G2.5Ocore-PETIM in water
54865
    1aaa     O1    1   0.142   5.588   7.146 -0.4173  0.2607 -0.4473
    1aaa     C1    2   0.169   5.524   7.018 -0.3222  0.4572 -0.2291
    1aaa     H1    3   0.266   5.474   7.008  0.5273  1.5357  1.8687
    1aaa     H2    4   0.152   5.591   6.933  0.8933 -0.0451 -0.8869
    1aaa     C2    5   0.264   5.651   7.190 -0.2499 -0.1903  0.1198
    1aaa     H3    6   0.301   5.720   7.113  0.6587  0.1225  0.8150
    1aaa     H4    7   0.336   5.574   7.219 -2.0544 -1.6577  0.9157
    1aaa     C3    8   0.066   5.412   6.997  0.2817 -0.5491 -0.4530
    1aaa     H5    9   0.067   5.378   6.893 -0.7342  2.2931 -1.4967
    1aaa     H6   10  -0.035   5.454   7.010  0.0091 -1.5699  1.0093
    1aaa     C4   11   0.232   5.737   7.311 -0.0380 -0.6707  0.0398
    1aaa     H7   12   0.226   5.658   7.387 -1.6496  0.3316  1.0304
    1aaa     H8   13   0.142   5.799   7.303 -0.4305 -1.1090  0.9091
    1aaa     C5   14   0.069   5.301   7.110 -0.2597 -0.7673 -0.4206
    1aaa     H9   15   0.165   5.249   7.100  0.6469  1.0525 -1.9301
    1aaa    H10   16   0.073   5.357   7.203 -2.1526 -1.3209  0.0246
    1aaa     C6   17   0.350   5.822   7.362 -0.2933  0.3383 -0.6053
    1aaa    H11   18   0.389   5.886   7.282  3.6434 -2.4934 -1.2691
    1aaa    H12   19   0.438   5.762   7.386  0.6734  1.6261 -0.7896
    1aaa     N1   20  -0.046   5.197   7.123  0.0574 -0.0095 -0.0631
    1aaa     N2   21   0.321   5.912   7.481 -0.4790  0.0842 -0.0725
    1aaa     C7   22   0.304   5.819   7.600 -0.0658 -0.2739 -0.1055
    1aaa    H13   23   0.207   5.773   7.581 -0.2870  1.0474 -2.7888
    1aaa    H14   24   0.385   5.746   7.605  0.2104  0.0603  0.3638
    1aaa     C8   25   0.208   6.012   7.463  0.1501  0.0569  0.5527
    1aaa    H15   26   0.112   5.961   7.455 -0.5474  1.0006  2.3569
    1aaa    H16   27   0.194   6.073   7.552 -1.7452  0.7167 -0.1535
    1aaa     C9   28  -0.029   5.109   7.240  0.1966  0.2251 -0.2920
    1aaa    H17   29  -0.015   5.172   7.328  2.0408  1.9881 -1.7348
    1aaa    H18   30  -0.124   5.056   7.250 -0.6455  1.4684 -1.3464
    1aaa    C10   31  -0.182   5.265   7.138 -0.2467 -0.2330  0.3376
    1aaa    H19   32  -0.187   5.325   7.229 -2.0392 -0.0223  0.1371
    1aaa    H20   33  -0.189   5.339   7.058 -2.1406 -1.7421 -0.9835
    1aaa    C11   34   0.306   5.886   7.734  0.6415 -0.2152  0.7112
    1aaa    H21   35   0.245   5.978   7.738  1.8919  0.6999 -0.2578
    1aaa    H22   36   0.256   5.819   7.805 -2.5951  0.3811 -0.8506
    1aaa    C12   37   0.222   6.112   7.346  0.3627  0.6361  0.6475
    1aaa    H23   38   0.321   6.161   7.344  0.2719  0.8408 -1.8265
    1aaa    H24   39   0.219   6.044   7.260  2.0073 -2.2564  2.6980
    1aaa    C13   40   0.083   5.005   7.218 -0.5754  0.0305 -0.3556
    1aaa    H25   41   0.176   5.062   7.221 -0.7366  0.2730  0.1336
    1aaa    H26   42   0.080   4.940   7.307 -0.1416  1.0188  0.3951
    1aaa    C14   43  -0.302   5.164   7.121 -0.2422  0.5221  0.4601
    1aaa    H27   44  -0.264   5.081   7.060 -1.9829  0.1968 -0.2505
    1aaa    H28   45  -0.332   5.120   7.216  0.8653 -1.1252  0.0935
    1aaa    C15   46  -0.418   5.226   7.052  0.1021  0.0947 -0.5780
    1aaa    H29   47  -0.504   5.159   7.061 -0.9950  1.2890 -1.6711
    1aaa    H30   48  -0.457   5.316   7.101 -0.7236 -0.3443 -0.4183
    1aaa    C16   49   0.072   4.924   7.088 -0.6491  0.3350  0.8249
    1aaa    H31   50  -0.032   4.897   7.065 -0.5221  0.0032  0.6411
    1aaa    H32   51   0.097   4.976   6.994  0.5348 -0.2766  0.7883
    1aaa    C17   52   0.117   6.218   7.361 -0.2374 -0.6500  0.3137
    1aaa    H33   53   0.021   6.167   7.346  0.6744 -2.4619  0.3558
    1aaa    H34   54   0.114   6.259   7.463  0.8356  1.6781 -0.5350
    1aaa    C18   55   0.445   5.929   7.781  0.6675  0.1341  0.1701
    1aaa    H35   56   0.444   6.000   7.864 -0.7805  2.0048 -1.3351
    1aaa    H36   57   0.505   5.842   7.808  2.8794  0.4698 -3.0872
    1aaa    H38   58  -0.047   5.136   7.040 -0.7535  1.9387 -1.5514
    1aaa    H37   59   0.404   5.970   7.500 -0.1342 -0.3725 -0.1690
    2bbb     N1   60  -0.593   5.061   6.627 -0.4306 -0.3102 -0.3470
    2bbb     C1   61  -0.557   4.908   6.618 -0.5312  0.5831  0.1559
    2bbb     H1   62  -0.490   4.895   6.533  1.6887  2.1909  1.5587
    2bbb     H2   63  -0.647   4.857   6.583 -0.0380  1.9655 -3.5745
    2bbb     C2   64  -0.704   5.091   6.724  1.0937 -0.4151 -0.2519
    2bbb     H3   65  -0.715   5.198   6.742 -0.1878 -0.6296  0.4217
    2bbb     H4   66  -0.664   5.045   6.815  0.1610  0.1968  0.4919
    2bbb     C3   67  -0.464   5.130   6.668  0.3704  0.0735 -0.0387
    2bbb     H5   68  -0.397   5.111   6.584 -0.8219 -0.9724 -0.7766
    2bbb     H6   69  -0.430   5.087   6.763  1.5886  0.0218 -0.4711
    2bbb     C4   70  -0.463   5.280   6.688  0.2353  0.3427  0.3843
    2bbb     H7   71  -0.537   5.336   6.628 -0.4106  0.6650  1.4518
    2bbb     H8   72  -0.362   5.308   6.655  0.8436 -0.6904  1.3233
    2bbb     C5   73  -0.500   4.831   6.742 -0.1777 -0.6055 -0.3825
    2bbb     H9   74  -0.553   4.865   6.832  0.5971 -2.6594  0.9179
    2bbb    H10   75  -0.393   4.852   6.750 -0.1314 -0.7706 -0.5656
    2bbb     C6   76  -0.836   5.031   6.695  0.2331 -0.4979  0.2090
    2bbb    H11   77  -0.829   4.922   6.694  0.3346 -0.5527 -3.0338
    2bbb    H12   78  -0.875   5.050   6.594  1.8239  1.6370 -0.0775
    2bbb     C7   79  -0.485   5.315   6.831  0.2069 -0.4784  0.1406
    2bbb    H13   80  -0.585   5.278   6.856  1.0688 -1.8886  1.7675
    2bbb    H14   81  -0.482   5.424   6.826  0.3653 -0.4885 -0.0004
    2bbb     C8   82  -0.955   5.087   6.787 -0.6935 -0.7230  0.3454
    2bbb    H15   83  -0.948   5.040   6.886  0.2708 -1.1748  0.0791
    2bbb    H16   84  -0.948   5.196   6.801  0.5945 -0.8033  0.4881
    2bbb     C9   85  -0.523   4.682   6.727 -0.0976  0.4556  0.0331
    2bbb    H17   86  -0.500   4.639   6.826 -2.2581 -0.1171  0.3381
    2bbb    H18   87  -0.459   4.639   6.649 -1.2772 -1.4102  0.0541
    2bbb     O1   88  -0.385   5.247   6.915  0.5698 -1.0255  0.1520
    2bbb    H19   89  -0.627   5.091   6.535  1.4759 -0.1954 -1.0455
    3bbb     N1   90   0.444   4.623   7.084 -0.5481 -0.0040  0.3375
    3bbb     C1   91   0.545   4.588   7.196  0.3545  0.3808  0.0389
    3bbb     H1   92   0.601   4.498   7.172  1.8705  1.1912  0.3632
    3bbb     H2   93   0.495   4.584   7.293 -0.5595  1.6779 -0.3509
    3bbb     C2   94   0.501   4.549   6.962  0.1268 -0.1168 -0.7138
    3bbb     H3   95   0.604   4.577   6.940 -0.5276  0.9592 -2.5755
    3bbb     H4   96   0.453   4.590   6.873 -1.1149  1.1254  0.4754
    3bbb     C3   97   0.310   4.567   7.116 -0.4358 -0.1553 -0.6363
    3bbb     H5   98   0.284   4.617   7.209 -0.4189  1.4519 -1.4676
    3bbb     H6   99   0.332   4.461   7.132  0.9095 -0.1243 -2.0298
    3bbb     C4  100   0.199   4.584   7.011  0.1615 -0.2895 -0.5182
    3bbb     H7  101   0.107   4.547   7.058 -0.1903 -0.2629 -1.1697
    3bbb     H8  102   0.213   4.528   6.918 -2.0906  0.2110 -1.2119
    3bbb     C5  103   0.662   4.682   7.201  0.5063  0.0857  0.2094
    3bbb     H9  104   0.624   4.782   7.224  1.9863 -0.1281  4.5409
    3bbb    H10  105   0.711   4.689   7.103 -0.3129 -0.5105 -0.2651
    3bbb     C6  106   0.493   4.397   6.962  0.9334 -0.2536  0.8056
    3bbb    H11  107   0.385   4.386   6.948  1.0542  0.3963 -0.9375
    3bbb    H12  108   0.518   4.341   7.053  0.3921 -1.4155  0.2708
    3bbb     C7  109   0.168   4.729   6.981  0.1186 -0.4604 -0.3734
    3bbb    H13  110   0.082   4.725   6.913  1.8135 -0.6000 -2.6271
    3bbb    H14  111   0.258   4.765   6.930 -0.1767  1.2510  0.2376
    3bbb     C8  112   0.553   4.337   6.832  0.0098 -0.9733  0.3724
    3bbb    H15  113   0.508   4.376   6.740  1.3390  2.6583  1.1126
    3bbb    H16  114   0.656   4.375   6.827 -0.8095  1.4165  0.3884
    3bbb     C9  115   0.779   4.649   7.301  0.6133  0.4552  0.0687
    3bbb    H17  116   0.844   4.738   7.304 -1.5023  2.0218  1.5474
    3bbb    H18  117   0.839   4.564   7.266  0.2889  0.3591 -0.2554
    3bbb     O1  118   0.152   4.807   7.106 -0.2197 -0.5643  0.3715
    3bbb    H19  119   0.443   4.723   7.062  1.1217  0.3570  1.6832
    4bbb     N1  120   0.214   6.650   7.002  0.0734  0.2319 -0.1416
    4bbb     C1  121   0.254   6.757   7.097 -0.5414 -0.0718  0.2343
    4bbb     H1  122   0.207   6.742   7.194 -0.8060  2.1888  0.5115
    4bbb     H2  123   0.229   6.856   7.058  0.3737 -0.7270 -2.2111
    4bbb     C2  124   0.307   6.640   6.879  0.1606 -0.4596  0.3520
    4bbb     H3  125   0.276   6.552   6.821  1.4087 -0.6746 -0.0238
    4bbb     H4  126   0.409   6.635   6.917 -0.0906 -0.7762  1.0031
    4bbb     C3  127   0.226   6.518   7.073 -0.0508 -0.4162  0.4953
    4bbb     H5  128   0.230   6.536   7.181  1.1431 -0.4373  0.4690
    4bbb     H6  129   0.320   6.467   7.054  1.7390  2.3626  1.3467
    4bbb     C4  130   0.121   6.409   7.037 -0.6037  0.3829 -0.4581
    4bbb     H7  131   0.118   6.386   6.930 -0.6720 -1.4796 -0.0902
    4bbb     H8  132   0.021   6.449   7.057 -0.2574  0.6662  0.8249
    4bbb     C5  133   0.405   6.768   7.138 -0.1369 -0.1005 -0.6020
    4bbb     H9  134   0.468   6.815   7.061  0.5869 -0.6451 -0.3472
    4bbb    H10  135   0.447   6.667   7.146 -1.3839 -0.5821  0.2322
    4bbb     C6  136   0.297   6.762   6.780  0.2222 -0.4700  0.3820
    4bbb    H11  137   0.356   6.744   6.689 -1.3661  1.4519 -1.1388
    4bbb    H12  138   0.351   6.844   6.829 -0.4565  0.1008  0.1929
    4bbb     C7  139   0.131   6.281   7.124 -0.3483 -0.1032  0.2958
    4bbb    H13  140   0.223   6.223   7.109 -1.6251 -2.6396  1.6272
    4bbb    H14  141   0.048   6.214   7.096 -0.5717  0.7579 -1.2425
    4bbb     C8  142   0.159   6.814   6.732 -0.3065 -0.4103 -0.8932
    4bbb    H15  143   0.102   6.732   6.686 -0.1832 -1.6058  0.9728
    4bbb    H16  144   0.103   6.851   6.819  0.4959 -1.1089 -0.0509
    4bbb     C9  145   0.420   6.836   7.274 -0.1398  0.1140  0.0241
    4bbb    H17  146   0.524   6.826   7.310  0.2047 -1.3830 -1.2698
    4bbb    H18  147   0.362   6.777   7.346  0.6179 -0.4927  0.1626
    4bbb     O1  148   0.140   6.322   7.266  0.3447 -0.5966  0.5529
    4bbb    H19  149   0.117   6.665   6.971 -0.5310  1.5748  2.1625
    5bbb     N1  150   0.619   6.490   7.762 -0.4899  0.5965 -0.4120
    5bbb     C1  151   0.556   6.537   7.636  0.2960 -0.1728 -0.1252
    5bbb     H1  152   0.452   6.504   7.634  0.9213 -2.3037  0.0323
    5bbb     H2  153   0.613   6.483   7.560  1.1951 -0.9039  1.0222
    5bbb     C2  154   0.528   6.528   7.878  0.7390  0.2192  0.8604
    5bbb     H3  155   0.439   6.466   7.866  1.6105 -0.6559 -2.0796
    5bbb     H4  156   0.504   6.634   7.865 -0.1899  0.0822  1.4078
    5bbb     C3  157   0.670   6.339   7.761  0.2197 -0.9730 -0.3370
    5bbb     H5  158   0.723   6.307   7.851 -3.0522 -1.7940  1.4739
    5bbb     H6  159   0.744   6.332   7.681 -0.0127 -1.2806 -0.5294
    5bbb     C4  160   0.559   6.234   7.723 -0.0077 -0.5467 -0.6131
    5bbb     H7  161   0.511   6.274   7.633 -0.0930  2.2458  0.5887
    5bbb     H8  162   0.483   6.221   7.801 -0.5319 -1.1783 -1.2084
    5bbb     C5  163   0.579   6.680   7.598 -0.3183 -0.1562  0.0179
    5bbb     H9  164   0.543   6.755   7.670  0.8502  0.9687 -0.5421
    5bbb    H10  165   0.518   6.706   7.511 -0.6619 -2.5002 -0.5052
    5bbb     C6  166   0.585   6.517   8.020  0.0524  0.4713 -0.0253
    5bbb    H11  167   0.665   6.589   8.043  1.5130 -1.5327  1.5402
    5bbb    H12  168   0.634   6.420   8.034  0.1969  0.5259 -0.1545
    5bbb     C7  169   0.618   6.095   7.695  0.4208 -0.1845  0.6077
    5bbb    H13  170   0.671   6.060   7.785 -1.4877 -0.0665  1.8409
    5bbb    H14  171   0.691   6.110   7.615 -1.9028  0.8298 -1.4425
    5bbb     C8  172   0.484   6.533   8.134 -0.4939 -0.2890 -0.5389
    5bbb    H15  173   0.384   6.488   8.125 -0.9338  0.1040  1.8415
    5bbb    H16  174   0.523   6.481   8.222  0.1036  1.2651  0.1290
    5bbb     C9  175   0.729   6.713   7.565  0.4672  0.5085  0.9847
    5bbb    H17  176   0.722   6.813   7.522 -2.5611 -0.4684 -1.1339
    5bbb    H18  177   0.754   6.639   7.488 -2.0843 -1.3693  1.8078
    5bbb     O1  178   0.511   5.997   7.670  0.2804  0.0924 -0.3547
    5bbb    H19  179   0.705   6.547   7.765  0.5160 -0.8756 -0.2509
    6bbb     N1  180  -1.195   5.426   6.607 -0.5216  0.2661 -0.4455
    6bbb     C1  181  -1.130   5.440   6.464  0.7717 -0.5192  0.5214
    6bbb     H1  182  -1.135   5.546   6.437 -0.3932 -0.8054 -0.4745
    6bbb     H2  183  -1.191   5.381   6.396  1.8520 -0.7943 -0.2276
    6bbb     C2  184  -1.332   5.474   6.609  0.5705 -0.3151 -0.3529
    6bbb     H3  185  -1.372   5.449   6.708  2.4508 -0.2675  0.4622
    6bbb     H4  186  -1.380   5.438   6.518  1.5989  0.9940 -1.4558
    6bbb     C3  187  -1.199   5.276   6.626  0.0049 -0.6656 -0.5774
    6bbb     H5  188  -1.098   5.238   6.612  0.0860 -0.7781  0.2661
    6bbb     H6  189  -1.264   5.240   6.545 -2.3589  1.4615  0.2284
    6bbb     C4  190  -1.244   5.218   6.767 -0.7225 -0.1810 -0.1009
    6bbb     H7  191  -1.352   5.230   6.777 -0.5653  1.0261  0.3102
    6bbb     H8  192  -1.199   5.285   6.842 -3.7765  0.1892  1.5550
    6bbb     C5  193  -0.979   5.408   6.447 -0.0658  0.8757  0.4613
    6bbb     H9  194  -0.971   5.298   6.454 -4.7905  0.3090  0.3172
    6bbb    H10  195  -0.933   5.458   6.532 -2.5013  1.8876  1.2588
    6bbb     C6  196  -1.330   5.630   6.598  0.3354 -0.5680 -0.1825
    6bbb    H11  197  -1.313   5.673   6.499 -0.0416  0.2660  0.1072
    6bbb    H12  198  -1.242   5.668   6.650  0.2953  2.2050 -1.9568
    6bbb     C7  199  -1.204   5.070   6.785 -0.7419  0.5071 -0.7333
    6bbb    H13  200  -1.290   5.017   6.742 -0.4941 -0.1762 -0.3993
    6bbb    H14  201  -1.201   5.038   6.889 -2.8554 -0.9625 -1.0683
    6bbb     C8  202  -1.463   5.691   6.655 -0.6879 -0.0054 -0.1514
    6bbb    H15  203  -1.494   5.656   6.755 -2.4119  2.1005  0.1097
    6bbb    H16  204  -1.446   5.798   6.672  2.3436 -0.5620  0.9766
    6bbb     C9  205  -0.928   5.442   6.299  0.0841 -0.8262  0.2461
    6bbb    H17  206  -0.992   5.388   6.228  1.3449 -0.6958 -1.0355
    6bbb    H18  207  -0.822   5.416   6.290  0.4659  0.8502 -0.4811
    6bbb     O1  208  -1.077   5.038   6.725  0.8929 -0.0580  1.4174
    6bbb    H19  209  -1.134   5.475   6.674 -0.0345 -0.2094 -0.5329
    7bbb     N1  210  -0.916   4.487   6.364 -0.0515 -0.0838  0.1042
    7bbb     C1  211  -0.954   4.343   6.364  0.4691  0.7957 -0.4207
    7bbb     H1  212  -0.983   4.303   6.461 -2.3771  1.0337 -1.0926
    7bbb     H2  213  -0.867   4.283   6.336 -1.0169 -2.4851  1.4437
    7bbb     C2  214  -1.019   4.576   6.425  0.6276  0.2010  0.2772
    7bbb     H3  215  -1.032   4.540   6.527  1.1155  1.4690  0.8136
    7bbb     H4  216  -1.109   4.558   6.366  1.4486 -0.6072 -0.7754
    7bbb     C3  217  -0.793   4.499   6.452 -0.0728 -0.4796 -0.4472
    7bbb     H5  218  -0.757   4.602   6.447  2.7202 -1.4384 -3.3111
    7bbb     H6  219  -0.715   4.444   6.400 -0.1386  0.1730 -1.2568
    7bbb     C4  220  -0.802   4.464   6.608  0.0444  0.5315  0.6115
    7bbb     H7  221  -0.816   4.355   6.607 -1.7078  0.7139 -0.9582
    7bbb     H8  222  -0.888   4.508   6.660 -0.1139 -2.1544  2.8507
    7bbb     C5  223  -1.078   4.315   6.267  0.0980  0.9733  0.4704
    7bbb     H9  224  -1.070   4.343   6.162  0.8084 -1.4542 -0.1998
    7bbb    H10  225  -1.176   4.347   6.305 -0.6148  0.1726 -0.6132
    7bbb     C6  226  -0.986   4.721   6.410 -0.4111  1.5962 -0.0432
    7bbb    H11  227  -0.941   4.745   6.312 -1.2968 -0.3408 -0.9802
    7bbb    H12  228  -0.909   4.746   6.484  2.3303 -2.1915 -1.2666
    7bbb     C7  229  -0.673   4.507   6.680  0.2887  0.5077  0.2948
    7bbb    H13  230  -0.592   4.456   6.627 -0.6948 -1.0207  0.2003
    7bbb    H14  231  -0.679   4.458   6.777 -2.0303  1.0605  0.4966
    7bbb     C8  232  -1.101   4.815   6.431  0.3276  0.3814 -0.3190
    7bbb    H15  233  -1.142   4.806   6.532  0.9418  0.1678 -0.0809
    7bbb    H16  234  -1.053   4.914   6.435 -1.2275  1.1297  0.3897
    7bbb     C9  235  -1.080   4.160   6.265 -0.6492 -0.6218 -0.3571
    7bbb    H17  236  -1.124   4.130   6.361 -3.3668  0.8922 -1.0183
    7bbb    H18  237  -0.978   4.121   6.259 -0.9782 -1.5428 -0.1446
    7bbb     O1  238  -0.660   4.648   6.692  0.2517 -0.4356 -0.3973
    7bbb    H19  239  -0.883   4.517   6.271  0.7845 -0.0216  0.4076
    8bbb     N1  240   0.751   3.798   6.873 -0.1486 -0.6353 -0.1638
    8bbb     C1  241   0.735   3.696   6.761  0.3315 -0.3988  0.6010
    8bbb     H1  242   0.635   3.700   6.716  1.0001 -0.2663 -0.9659
    8bbb     H2  243   0.753   3.599   6.806 -0.5780 -1.7205 -1.7131
    8bbb     C2  244   0.878   3.781   6.970 -0.2130  0.4368 -0.8825
    8bbb     H3  245   0.965   3.819   6.916 -1.2923  1.4776 -1.9635
    8bbb     H4  246   0.875   3.676   6.997 -1.1516  0.9964  1.4412
    8bbb     C3  247   0.740   3.943   6.817  0.0109  0.0025  0.1051
    8bbb     H5  248   0.824   3.962   6.751  0.1280 -1.0902 -0.0815
    8bbb     H6  249   0.759   4.006   6.904  1.2831  1.4680 -1.1941
    8bbb     C4  250   0.608   3.974   6.751 -0.2806  0.0277 -0.3646
    8bbb     H7  251   0.522   3.944   6.812  1.3735  0.4869  2.3606
    8bbb     H8  252   0.602   3.923   6.654 -1.2661  1.2879 -0.9955
    8bbb     C5  253   0.825   3.724   6.638 -0.4280  0.0247  0.0187
    8bbb     H9  254   0.933   3.716   6.659 -0.2331  0.1252 -0.9098
    8bbb    H10  255   0.800   3.817   6.587 -1.5022 -0.0269  0.4314
    8bbb     C6  256   0.865   3.871   7.104 -0.3310  0.5106  0.2775
    8bbb    H11  257   0.773   3.842   7.156 -1.0052  0.3732 -0.9475
    8bbb    H12  258   0.872   3.975   7.072 -0.1862  0.4054 -0.0401
    8bbb     C7  259   0.598   4.128   6.731 -0.3273  0.4934  0.2587
    8bbb    H13  260   0.528   4.144   6.648 -0.9623 -0.6755  0.5417
    8bbb    H14  261   0.696   4.152   6.688 -0.7623 -1.5224 -2.1021
    8bbb     C8  262   0.984   3.843   7.189 -0.3989  0.1342 -0.1065
    8bbb    H15  263   0.970   3.896   7.284 -0.4209  0.5110 -0.3221
    8bbb    H16  264   1.008   3.739   7.217  0.9782  0.9199  1.9004
    8bbb     C9  265   0.795   3.618   6.521 -0.3188 -1.3284 -0.0580
    8bbb    H17  266   0.841   3.666   6.434 -0.5887 -1.0374 -0.0394
    8bbb    H18  267   0.689   3.601   6.501 -0.4524 -0.9420  0.2909
    8bbb     O1  268   0.558   4.196   6.849 -0.2357 -0.4208  0.8675
    8bbb    H19  269   0.673   3.771   6.934 -0.2697 -1.2756 -0.5936
    9bbb     N1  270   0.586   4.408   7.802 -0.0583  0.1646 -0.8494
    9bbb     C1  271   0.484   4.515   7.831  0.4459 -0.0137 -0.4102
    9bbb     H1  272   0.428   4.546   7.743 -1.1509 -1.6245 -0.0299
    9bbb     H2  273   0.545   4.600   7.861 -0.9950  1.1404 -0.6085
    9bbb     C2  274   0.515   4.270   7.774 -0.0224 -0.1947  0.5515
    9bbb     H3  275   0.446   4.280   7.690  2.7702 -0.2333 -1.9170
    9bbb     H4  276   0.451   4.256   7.862 -0.7953 -0.0537  0.0180
    9bbb     C3  277   0.672   4.439   7.679 -0.0798 -0.4108 -0.2357
    9bbb     H5  278   0.599   4.428   7.598 -1.5752 -0.8831  1.1152
    9bbb     H6  279   0.742   4.357   7.668  0.9747 -0.0501  2.9281
    9bbb     C4  280   0.745   4.573   7.673  0.0322 -0.6632  0.1979
    9bbb     H7  281   0.816   4.578   7.756  0.7680 -0.3903 -0.4326
    9bbb     H8  282   0.680   4.661   7.683 -0.7913 -1.4828  2.7800
    9bbb     C5  283   0.386   4.495   7.949  0.2156  0.4765 -0.3844
    9bbb     H9  284   0.436   4.448   8.035 -1.6594  0.7604  0.9040
    9bbb    H10  285   0.303   4.430   7.920 -0.8587  0.5543  2.2632
    9bbb     C6  286   0.604   4.154   7.754 -0.1113  0.4874  0.4470
    9bbb    H11  287   0.700   4.169   7.805  1.1521 -2.0953 -0.9182
    9bbb    H12  288   0.635   4.151   7.648 -0.6461  0.0712  0.2945
    9bbb     C7  289   0.820   4.598   7.539 -0.0574  0.4901 -0.2823
    9bbb    H13  290   0.863   4.501   7.511 -2.6573 -0.9403  0.2627
    9bbb    H14  291   0.899   4.670   7.560  1.4803 -1.8228  2.6416
    9bbb     C8  292   0.554   4.007   7.786  0.3073 -0.6935 -0.3214
    9bbb    H15  293   0.632   3.934   7.760  2.8786  1.9900 -0.6622
    9bbb    H16  294   0.523   3.992   7.890  0.8249  0.3086 -0.0070
    9bbb     C9  295   0.315   4.628   7.996 -0.1076  0.1588  0.6541
    9bbb    H17  296   0.387   4.680   8.061  0.9726  0.4650 -0.7195
    9bbb    H18  297   0.219   4.600   8.041 -0.8992  0.5864 -0.6908
    9bbb     O1  298   0.729   4.638   7.430 -0.1218 -0.8141 -0.1332
    9bbb    H19  299   0.642   4.398   7.888 -1.0809 -1.5532 -0.3215
   10bbb     N1  300   0.090   6.903   6.198  0.7018  0.2360  0.0606
   10bbb     C1  301   0.217   6.935   6.113  0.2673 -0.8278  0.5694
   10bbb     H1  302   0.201   6.896   6.013  1.1473  0.8565 -0.2701
   10bbb     H2  303   0.299   6.881   6.161  0.6078 -2.2792 -1.5143
   10bbb     C2  304   0.074   6.751   6.184 -0.6869 -0.3277 -0.7281
   10bbb     H3  305  -0.008   6.714   6.244 -1.4934  1.0348 -0.9325
   10bbb     H4  306   0.163   6.705   6.228 -1.4598 -1.6510 -0.5085
   10bbb     C3  307   0.122   6.949   6.348 -0.2925  0.8279 -0.6170
   10bbb     H5  308   0.146   7.055   6.338 -2.0071  1.1519 -1.7251
   10bbb     H6  309   0.205   6.889   6.386  1.3745  1.5943 -2.8230
   10bbb     C4  310   0.013   6.928   6.453  0.8487  0.2149  0.9037
   10bbb     H7  311  -0.006   6.823   6.478 -0.7320  0.5317  1.1451
   10bbb     H8  312  -0.078   6.977   6.415  1.8214  1.3698 -0.0293
   10bbb     C5  313   0.249   7.080   6.090  0.0698  0.1660 -0.0467
   10bbb     H9  314   0.357   7.096   6.083 -0.1517  1.0832 -2.2678
   10bbb    H10  315   0.213   7.144   6.171 -1.4219  1.9358 -2.0108
   10bbb     C6  316   0.065   6.689   6.041 -0.4943  0.0095 -0.0915
   10bbb    H11  317   0.154   6.709   5.981 -0.8762  1.7696 -0.1122
   10bbb    H12  318  -0.030   6.729   6.003 -0.5499 -0.0786 -0.0448
   10bbb     C7  319   0.054   6.989   6.589  0.8028  0.2676  0.6326
   10bbb    H13  320  -0.035   6.959   6.646  0.2123  1.7621  0.5333
   10bbb    H14  321   0.063   7.098   6.596  0.0465  0.2355  2.7301
   10bbb     C8  322   0.042   6.539   6.038 -0.6894  0.1867 -0.3999
   10bbb    H15  323  -0.034   6.506   6.110  0.5086  2.6659  2.1773
   10bbb    H16  324   0.008   6.512   5.937 -1.7298 -2.1223  0.4992
   10bbb     C9  325   0.174   7.143   5.972 -0.0444  0.6455  0.0698
   10bbb    H17  326   0.200   7.249   5.971 -1.3626  1.0007 -1.0481
   10bbb    H18  327   0.067   7.128   5.992  0.2052 -0.7504  0.4803
   10bbb     O1  328   0.173   6.924   6.644 -0.7917  0.4846 -0.1229
   10bbb    H19  329   0.009   6.954   6.159  1.3767  0.6618 -0.8220
   11bbb     N1  330   0.348   7.437   7.258 -0.1238  0.1497  0.5626
   11bbb     C1  331   0.209   7.450   7.193 -0.4659 -0.2607 -0.0888
   11bbb     H1  332   0.137   7.511   7.249 -2.0477 -1.9189 -0.2592
   11bbb     H2  333   0.158   7.355   7.203 -0.7104  0.0202  1.7619
   11bbb     C2  334   0.338   7.501   7.394 -0.0898 -0.1807 -0.6848
   11bbb     H3  335   0.287   7.435   7.465 -1.6136  0.0259 -1.5349
   11bbb     H4  336   0.275   7.589   7.376 -0.6066 -0.3600  0.1797
   11bbb     C3  337   0.387   7.296   7.273  0.2825  0.4793 -0.3774
   11bbb     H5  338   0.313   7.250   7.338  1.7535 -1.0662  0.2758
   11bbb     H6  339   0.480   7.302   7.330 -0.7814  0.7081  1.4095
   11bbb     C4  340   0.411   7.206   7.149  0.3020 -0.0765  0.1660
   11bbb     H7  341   0.469   7.258   7.072 -0.2640 -0.6125 -0.6448
   11bbb     H8  342   0.314   7.191   7.100  0.9448 -1.1595 -0.8071
   11bbb     C5  343   0.214   7.491   7.042 -0.4192 -0.2205  0.0785
   11bbb     H9  344   0.112   7.502   7.004  0.2648  0.9966 -1.5868
   11bbb    H10  345   0.257   7.411   6.981  0.7658  0.7982 -0.4756
   11bbb     C6  346   0.468   7.532   7.467  0.3491  0.8419 -0.2530
   11bbb    H11  347   0.528   7.609   7.418 -0.4758  0.8113 -1.3648
   11bbb    H12  348   0.537   7.447   7.467 -0.9321 -0.2872 -1.9995
   11bbb     C7  349   0.476   7.069   7.194 -0.0993 -0.0870 -0.5758
   11bbb    H13  350   0.555   7.094   7.265  1.3136  0.4917 -2.2810
   11bbb    H14  351   0.516   7.031   7.099  2.9442 -2.5010  1.4768
   11bbb     C8  352   0.443   7.597   7.608  0.3576  0.0892  0.3289
   11bbb    H15  353   0.544   7.614   7.649 -0.9485  2.9901  2.6528
   11bbb    H16  354   0.395   7.694   7.590  0.1478  0.1471  1.1515
   11bbb     C9  355   0.292   7.629   7.019  0.2997 -0.1329 -0.4945
   11bbb    H17  356   0.265   7.709   7.089 -1.4150 -1.6861  0.7022
   11bbb    H18  357   0.270   7.667   6.918  3.2463 -1.3608 -1.7202
   11bbb     O1  358   0.382   6.975   7.255 -0.6049  0.6718  0.5932
   11bbb    H19  359   0.413   7.493   7.201 -1.7769  2.6938  1.0445
   12bbb     N1  360   0.530   6.592   8.596  0.2257 -0.5903 -0.0535
   12bbb     C1  361   0.667   6.601   8.638 -0.1691 -0.6367 -0.4441
   12bbb     H1  362   0.681   6.588   8.746  0.2261  3.4368  0.1545
   12bbb     H2  363   0.704   6.703   8.625 -0.2571 -0.6793 -1.0228
   12bbb     C2  364   0.454   6.657   8.708  0.5306 -0.0432  0.4702
   12bbb     H3  365   0.467   6.601   8.800 -0.0176 -0.6731  0.1767
   12bbb     H4  366   0.349   6.652   8.678 -0.2573  4.4892  1.8107
   12bbb     C3  367   0.508   6.658   8.455  0.9693 -0.3919  0.2261
   12bbb     H5  368   0.582   6.603   8.396 -0.1245 -1.3846 -0.2628
   12bbb     H6  369   0.538   6.762   8.458 -0.6830  0.1510 -0.8448
   12bbb     C4  370   0.375   6.628   8.382  0.1394  0.6480 -0.2856
   12bbb     H7  371   0.294   6.663   8.446  0.1893  1.4304 -0.6412
   12bbb     H8  372   0.360   6.519   8.373  0.7939  0.6992 -3.6241
   12bbb     C5  373   0.760   6.497   8.574  0.8200 -0.6438  0.3279
   12bbb     H9  374   0.764   6.514   8.465  0.6375  2.1090  0.6842
   12bbb    H10  375   0.742   6.391   8.598  3.0172 -0.9489  0.8316
   12bbb     C6  376   0.479   6.811   8.746 -0.1993 -0.0081  0.0822
   12bbb    H11  377   0.586   6.829   8.763 -0.5942  0.6030  2.3238
   12bbb    H12  378   0.428   6.820   8.843 -0.8669  0.3956 -0.3033
   12bbb     C7  379   0.353   6.701   8.248 -0.4256  0.1757 -0.1291
   12bbb    H13  380   0.348   6.810   8.261  1.6084  0.2647  0.1356
   12bbb    H14  381   0.254   6.674   8.209 -2.0321  3.6776  1.0712
   12bbb     C8  382   0.428   6.914   8.646 -0.6161  0.7437 -0.2354
   12bbb    H15  383   0.417   7.015   8.689 -0.8571  0.2928  0.8043
   12bbb    H16  384   0.499   6.916   8.562 -1.3222  1.3839 -0.8351
   12bbb     C9  385   0.905   6.524   8.616 -0.7506  0.2859  0.3356
   12bbb    H17  386   0.934   6.629   8.602 -1.3665  0.7085  2.0400
   12bbb    H18  387   0.969   6.465   8.548 -1.8519  0.7037 -1.1120
   12bbb     O1  388   0.467   6.672   8.161 -0.0126  0.0503 -0.0900
   12bbb    H19  389   0.507   6.492   8.594  0.9064 -0.7406 -1.0311
   13bbb     N1  390   1.158   6.799   7.932 -0.3556  0.1672 -0.0668
   13bbb     C1  391   1.289   6.746   7.871  0.5239  0.6051  0.6873
   13bbb     H1  392   1.369   6.785   7.935  0.0816  1.6926  0.5960
   13bbb     H2  393   1.291   6.798   7.775 -0.2383  1.9044  1.3359
   13bbb     C2  394   1.161   6.951   7.948 -0.1735 -0.2234 -0.0938
   13bbb     H3  395   1.066   6.971   7.998  0.9308  0.4929  1.8656
   13bbb     H4  396   1.162   7.006   7.854 -2.3013  0.0671 -0.0046
   13bbb     C3  397   1.042   6.769   7.835 -0.4124 -1.0525  0.0314
   13bbb     H5  398   1.039   6.669   7.791  0.4275 -1.1349  0.1524
   13bbb     H6  399   1.051   6.839   7.751 -0.6170 -2.1251 -0.9072
   13bbb     C4  400   0.902   6.784   7.901 -0.1482 -0.0277  0.2016
   13bbb     H7  401   0.894   6.854   7.985  1.2522 -0.9251  1.1142
   13bbb     H8  402   0.879   6.690   7.951 -1.8625  0.3721  0.2332
   13bbb     C5  403   1.299   6.597   7.854 -0.2946  0.4016 -0.4299
   13bbb     H9  404   1.232   6.567   7.773  0.5042  0.2135 -1.0355
   13bbb    H10  405   1.262   6.560   7.950  0.1412  0.3072 -0.2925
   13bbb     C6  406   1.276   6.999   8.033 -0.0097  0.4063  0.3005
   13bbb    H11  407   1.371   6.963   7.991 -0.0994 -1.5263  1.6296
   13bbb    H12  408   1.261   6.945   8.127 -1.2488  1.5984  0.8155
   13bbb     C7  409   0.794   6.809   7.788 -0.2433  0.1456  0.8713
   13bbb    H13  410   0.812   6.906   7.741  0.6870 -1.8976 -3.5718
   13bbb    H14  411   0.695   6.807   7.834 -1.0708  0.7153 -0.7862
   13bbb     C8  412   1.272   7.155   8.060  0.3947 -0.0732  0.2071
   13bbb    H15  413   1.193   7.186   8.129  0.5688  0.7824  0.0358
   13bbb    H16  414   1.367   7.184   8.106  0.1929 -0.7356  1.0682
   13bbb     C9  415   1.441   6.550   7.804 -0.0868  0.0905  0.6043
   13bbb    H17  416   1.460   6.587   7.703  0.5518 -0.7389  0.4063
   13bbb    H18  417   1.439   6.440   7.802 -1.6890  0.0632  1.5446
   13bbb     O1  418   0.809   6.704   7.686  0.2953  0.2223 -0.0929
   13bbb    H19  419   1.140   6.754   8.022 -1.6624  0.8699  0.0394
   14ccc     C1  420  -1.690   5.674   6.591 -0.3530 -0.7084  0.6972
   14ccc     H1  421  -1.703   5.615   6.683 -0.2191 -1.1045  0.4637
   14ccc     H2  422  -1.701   5.780   6.619 -0.6806  0.6238 -3.7164
   14ccc     C2  423  -1.780   5.637   6.480 -0.3421  0.2650  0.3321
   14ccc     H3  424  -1.745   5.685   6.388  0.0986 -1.1232 -0.2549
   14ccc     H4  425  -1.883   5.669   6.496 -1.3778 -2.3743 -0.5413
   14ccc     C3  426  -1.776   5.482   6.454  0.0244  0.1019  0.8847
   14ccc     H5  427  -1.770   5.430   6.550  1.0883  0.2489  0.9069
   14ccc     H6  428  -1.687   5.467   6.393 -0.2399  1.7808  0.0286
   14ccc     N1  429  -1.894   5.431   6.364 -0.8643 -0.2094  0.2558
   14ccc     C4  430  -1.882   5.494   6.224  0.3819 -0.9243  0.2778
   14ccc     H7  431  -1.829   5.423   6.160 -2.2770  0.2001 -3.5055
   14ccc     H8  432  -1.825   5.585   6.242 -0.4470 -0.1485 -0.9594
   14ccc     C5  433  -2.015   5.531   6.158 -0.1562 -0.0252  0.6263
   14ccc     H9  434  -2.085   5.448   6.170 -1.6316  1.2824  1.4578
   14ccc    H10  435  -2.061   5.620   6.202 -0.2830 -0.3567  1.1731
   14ccc     C6  436  -2.010   5.554   6.006 -0.2011 -0.3519  0.4839
   14ccc     O1  437  -1.916   5.506   5.947 -0.1041 -0.6669  0.4852
   14ccc     O2  438  -2.126   5.581   5.948  0.8543 -0.2840  0.1333
   14ccc    H11  439  -2.187   5.612   6.017 -0.0439  0.0199 -0.7729
   14ccc     C7  440  -1.894   5.274   6.361  0.3435  0.5960 -0.3287
   14ccc    H12  441  -1.807   5.234   6.308  0.7495 -0.4649  1.0747
   14ccc    H13  442  -1.891   5.240   6.465 -1.5017  1.5038  0.0615
   14ccc     C8  443  -2.018   5.211   6.295  0.7845  0.1648  0.1547
   14ccc    H14  444  -2.100   5.225   6.367  1.9181 -0.7528  1.6920
   14ccc    H15  445  -2.041   5.253   6.197 -0.7760 -0.3139  0.2798
   14ccc     C9  446  -2.004   5.062   6.271 -0.0670  0.5678  0.8807
   14ccc     O3  447  -1.901   5.000   6.292 -0.4359 -0.0003  0.0981
   14ccc     O4  448  -2.108   4.996   6.218 -0.7469  0.0616  0.5480
   14ccc    H16  449  -2.178   5.060   6.194  0.3107  1.3169  0.6964
   14ccc     O5  450  -1.553   5.659   6.548  0.8286 -0.2220  0.3687
   14ccc    H17  451  -1.978   5.470   6.408 -0.4962  1.4004 -0.4211
   15ccc     C1  452  -0.831   5.671   6.297  0.9836 -0.7309  0.7873
   15ccc     H1  453  -0.815   5.679   6.406 -0.6697 -1.1164  1.0970
   15ccc     H2  454  -0.738   5.642   6.248  1.0931 -0.9128  1.0945
   15ccc     C2  455  -0.886   5.808   6.251 -0.9652 -0.3007 -0.6177
   15ccc     H3  456  -0.916   5.801   6.146 -0.4942 -1.2405 -0.7059
   15ccc     H4  457  -0.802   5.878   6.260 -1.5825  0.2534  1.1331
   15ccc     C3  458  -1.007   5.852   6.329  0.3123 -0.1679  0.0787
   15ccc     H5  459  -0.971   5.864   6.431 -2.2898 -0.8954  1.1773
   15ccc     H6  460  -1.085   5.775   6.328 -0.6626  0.7457  1.3222
   15ccc     N1  461  -1.069   5.984   6.287  0.1051 -0.5263 -0.0159
   15ccc     C4  462  -1.191   6.012   6.373  0.3514  0.3954  0.1266
   15ccc     H7  463  -1.209   6.116   6.402 -1.6640  0.1751 -0.2336
   15ccc     H8  464  -1.169   5.953   6.462 -0.5926 -1.1549 -0.6282
   15ccc     C5  465  -1.326   5.961   6.311  0.1186 -0.4693 -0.0277
   15ccc     H9  466  -1.341   5.999   6.209  2.1186  2.7577  0.7302
   15ccc    H10  467  -1.319   5.852   6.300  1.4532 -0.2181 -2.2459
   15ccc     C6  468  -1.443   6.001   6.404 -0.3188  0.4420  0.2724
   15ccc     O1  469  -1.424   6.059   6.508 -0.6541  0.5449 -0.1115
   15ccc     O2  470  -1.559   5.946   6.361  0.3126 -0.2490 -0.6874
   15ccc    H11  471  -1.625   5.974   6.427 -1.2438  1.7669 -2.9181
   15ccc     C7  472  -0.963   6.094   6.296  0.0138  0.4706  0.1620
   15ccc    H12  473  -0.922   6.088   6.397  3.6644 -0.2390 -1.2072
   15ccc    H13  474  -0.879   6.067   6.232  0.3603  2.0248 -0.0611
   15ccc     C8  475  -1.013   6.232   6.261  0.7934  0.1660 -0.1187
   15ccc    H14  476  -1.031   6.240   6.153  1.2064  2.1259 -0.0864
   15ccc    H15  477  -1.103   6.265   6.313  1.3908 -2.2621  2.7583
   15ccc     C9  478  -0.902   6.326   6.296  0.6865  0.0249  0.7792
   15ccc     O3  479  -0.790   6.295   6.338 -0.6355  0.7585 -0.2359
   15ccc     O4  480  -0.946   6.449   6.318 -0.4836 -0.0977 -0.2995
   15ccc    H16  481  -0.896   6.482   6.395  0.2226  0.2720 -0.9018
   15ccc     O5  482  -0.940   5.582   6.257  0.0899 -0.6223 -0.0462
   15ccc    H17  483  -1.105   5.983   6.191 -0.4368  1.0385  0.1537
   16ccc     C1  484  -1.308   4.900   6.365 -0.0218 -0.1388 -0.3217
   16ccc     H1  485  -1.360   4.875   6.458  0.5693 -0.6634 -0.1225
   16ccc     H2  486  -1.275   5.005   6.364  2.3594 -0.8257  0.2663
   16ccc     C2  487  -1.417   4.901   6.256 -0.4479 -0.3066  0.4209
   16ccc     H3  488  -1.494   4.970   6.292 -2.5424 -1.9217 -0.8099
   16ccc     H4  489  -1.454   4.798   6.257  0.5928 -0.7216 -0.8207
   16ccc     C3  490  -1.367   4.934   6.118  0.1676 -0.2390  0.5302
   16ccc     H5  491  -1.274   4.880   6.101 -0.6968 -1.3075 -1.0355
   16ccc     H6  492  -1.332   5.038   6.116 -0.5418 -0.0009  0.0832
   16ccc     N1  493  -1.467   4.914   6.004 -0.1894  0.0891 -0.1849
   16ccc     C4  494  -1.579   5.007   6.015  0.5690 -0.2738 -0.2193
   16ccc     H7  495  -1.539   5.107   5.996  2.3515 -1.2089 -1.6249
   16ccc     H8  496  -1.623   5.009   6.115  0.1326  0.3847 -0.4134
   16ccc     C5  497  -1.699   4.983   5.912  0.6290  0.1159  0.7651
   16ccc     H9  498  -1.684   5.015   5.809 -3.4720  3.1498  0.8608
   16ccc    H10  499  -1.717   4.875   5.905 -0.3519  0.2629  0.8564
   16ccc     C6  500  -1.819   5.057   5.959  0.5091  0.3805 -0.5281
   16ccc     O1  501  -1.813   5.161   6.021 -0.0190  0.1444 -0.5351
   16ccc     O2  502  -1.934   4.998   5.946 -0.1495 -0.1065  0.0548
   16ccc    H11  503  -1.996   5.072   5.960 -0.9624 -0.5872 -0.8357
   16ccc     C7  504  -1.402   4.929   5.862  0.1082 -0.0072 -0.0825
   16ccc    H12  505  -1.480   4.944   5.787  1.7572 -1.3553 -2.1738
   16ccc    H13  506  -1.345   5.022   5.861  2.2800 -1.2941 -0.0791
   16ccc     C8  507  -1.319   4.811   5.811 -0.7452 -0.4527 -0.6598
   16ccc    H14  508  -1.221   4.807   5.860 -0.1297 -1.4045 -1.9071
   16ccc    H15  509  -1.376   4.719   5.828 -2.1012  0.4077 -0.3807
   16ccc     C9  510  -1.295   4.817   5.665 -0.3221 -0.0336  0.1874
   16ccc     O3  511  -1.179   4.801   5.623  0.1318  0.2553  0.1829
   16ccc     O4  512  -1.399   4.847   5.589  0.1120  0.6362  0.1183
   16ccc    H16  513  -1.354   4.850   5.503 -1.6744  0.2572 -0.8833
   16ccc     O5  514  -1.202   4.810   6.326 -0.2164  0.5062  0.3733
   16ccc    H17  515  -1.481   4.812   6.010  2.6204 -0.4014 -0.6682
   17ccc     C1  516  -1.152   3.972   6.133  0.7383  0.0622  0.1622
   17ccc     H1  517  -1.050   3.938   6.112  1.5093  1.1817  1.8505
   17ccc     H2  518  -1.188   3.919   6.222 -0.7137  1.9399  0.7568
   17ccc     C2  519  -1.238   3.941   6.013  0.7837 -0.6461 -0.3682
   17ccc     H3  520  -1.343   3.959   6.039  0.3970  0.9777 -2.7495
   17ccc     H4  521  -1.221   3.834   5.994  0.8018 -0.3928 -1.9514
   17ccc     C3  522  -1.205   4.010   5.879 -0.1098  0.1054  0.8081
   17ccc     H5  523  -1.237   3.951   5.793 -1.2292  1.2740  0.3943
   17ccc     H6  524  -1.097   4.011   5.868 -0.2738 -1.1101 -1.5106
   17ccc     N1  525  -1.253   4.158   5.853 -0.2585  0.4901 -0.2115
   17ccc     C4  526  -1.152   4.231   5.764 -0.3932 -0.5597  0.3094
   17ccc     H7  527  -1.195   4.308   5.701  1.0560 -0.7423 -0.9582
   17ccc     H8  528  -1.105   4.159   5.697  0.9039  1.1112 -0.6381
   17ccc     C5  529  -1.049   4.315   5.846 -0.4108 -0.2558 -0.1531
   17ccc     H9  530  -1.097   4.321   5.944 -0.5903  0.9384 -0.3047
   17ccc    H10  531  -0.962   4.253   5.873 -0.2085  0.5867  1.2419
   17ccc     C6  532  -1.019   4.449   5.786  0.5344 -0.4922  0.4896
   17ccc     O1  533  -1.097   4.543   5.780 -0.2360 -0.4309  0.1099
   17ccc     O2  534  -0.890   4.478   5.782  0.2833 -0.8080 -0.2518
   17ccc    H11  535  -0.896   4.564   5.736 -0.9443 -0.3310  0.7441
   17ccc     C7  536  -1.389   4.152   5.780 -0.0567  0.5349 -0.3041
   17ccc    H12  537  -1.379   4.118   5.677 -0.2593 -1.7100  0.3703
   17ccc    H13  538  -1.448   4.080   5.836 -1.5226  1.8840 -0.0137
   17ccc     C8  539  -1.470   4.276   5.789 -0.1428  0.4601 -0.0853
   17ccc    H14  540  -1.402   4.360   5.808  1.5175 -0.7887 -0.2772
   17ccc    H15  541  -1.526   4.284   5.694 -0.1738 -1.8567 -0.3074
   17ccc     C9  542  -1.577   4.269   5.895  0.3934  0.1799 -0.3748
   17ccc     O3  543  -1.603   4.170   5.955 -0.0518 -0.4079  0.0475
   17ccc     O4  544  -1.670   4.375   5.893 -0.1102 -0.1735  0.3372
   17ccc    H16  545  -1.633   4.427   5.819 -0.2291  0.0272  0.4186
   17ccc     O5  546  -1.156   4.113   6.157 -0.6519  0.0709  0.3529
   17ccc    H17  547  -1.267   4.211   5.941 -0.8370  1.8825 -1.1026
   18ccc     C1  548   1.213   3.812   7.096  0.1584 -0.2573 -0.1159
   18ccc     H1  549   1.200   3.738   7.176 -2.4899  1.1798  0.9272
   18ccc     H2  550   1.226   3.778   6.992 -2.1788  1.3717 -1.0274
   18ccc     C2  551   1.327   3.909   7.129  0.4142 -0.3351  0.1460
   18ccc     H3  552   1.404   3.852   7.183  1.0078  0.4917  0.1868
   18ccc     H4  553   1.301   3.991   7.197  0.4242 -0.4394  0.2769
   18ccc     C3  554   1.404   3.962   7.007 -0.3695  0.0397  0.0523
   18ccc     H5  555   1.407   3.906   6.914 -0.1326 -1.8581  1.1380
   18ccc     H6  556   1.510   3.962   7.034 -0.1902 -1.7705 -0.4977
   18ccc     N1  557   1.365   4.110   6.969  0.2078  0.0693 -0.2888
   18ccc     C4  558   1.482   4.173   6.893  0.9315  0.4053  0.6087
   18ccc     H7  559   1.480   4.140   6.789  1.2279  1.1282  0.3690
   18ccc     H8  560   1.579   4.143   6.931  0.7614 -1.8010 -0.4958
   18ccc     C5  561   1.480   4.328   6.881  0.0304  0.0058 -0.0648
   18ccc     H9  562   1.389   4.355   6.827 -0.4733 -1.8132 -0.2009
   18ccc    H10  563   1.491   4.375   6.979 -1.5090  0.6934 -0.1963
   18ccc     C6  564   1.603   4.370   6.799 -0.5467 -0.0064 -0.0405
   18ccc     O1  565   1.676   4.297   6.737 -0.0837  0.4269 -0.5103
   18ccc     O2  566   1.639   4.492   6.832  0.1091  0.4142 -0.4757
   18ccc    H11  567   1.718   4.514   6.780 -0.6408  0.5994 -1.5651
   18ccc     C7  568   1.225   4.120   6.907 -0.3326 -0.6082 -1.1945
   18ccc    H12  569   1.162   4.103   6.994  1.8792 -2.9048  0.1026
   18ccc    H13  570   1.200   4.222   6.877 -1.3227 -1.3571 -3.0569
   18ccc     C8  571   1.187   4.017   6.795  0.1978 -0.1305 -0.0986
   18ccc    H14  572   1.283   4.000   6.745  1.4717  0.1202  2.1035
   18ccc    H15  573   1.154   3.919   6.832  1.8936 -1.2096 -1.3028
   18ccc     C9  574   1.072   4.067   6.707  0.1835 -0.3751  0.1729
   18ccc     O3  575   0.976   4.126   6.746  0.3676 -0.0800  0.4076
   18ccc     O4  576   1.060   3.996   6.592 -0.1802  0.1678 -0.2335
   18ccc    H16  577   1.146   3.949   6.586 -0.4904 -0.2508 -1.7603
   18ccc     O5  578   1.093   3.895   7.110 -0.3461 -0.6438  0.4607
   18ccc    H17  579   1.364   4.163   7.058  1.3818  0.5351 -0.5284
   19ccc     C1  580   0.832   3.377   6.473  0.1111 -0.5867 -0.3606
   19ccc     H1  581   0.729   3.351   6.445 -0.3219  0.6573  0.0160
   19ccc     H2  582   0.878   3.382   6.373 -1.2775  0.3122 -0.9822
   19ccc     C2  583   0.894   3.258   6.551 -0.3693  0.3513  0.0078
   19ccc     H3  584   0.855   3.159   6.522 -0.9316 -0.8155  4.1675
   19ccc     H4  585   0.868   3.268   6.656  3.6176 -1.2631  1.3539
   19ccc     C3  586   1.048   3.262   6.519 -0.0368  0.0589 -0.5033
   19ccc     H5  587   1.087   3.360   6.546 -1.0677  0.8080 -1.6572
   19ccc     H6  588   1.056   3.262   6.410  1.1771 -1.1410 -0.4530
   19ccc     N1  589   1.137   3.147   6.584  0.0582  0.5922  0.8744
   19ccc     C4  590   1.094   3.009   6.532  0.0192  0.3473  1.1369
   19ccc     H7  591   1.079   3.011   6.424  1.0687 -0.0239  0.9733
   19ccc     H8  592   0.994   2.988   6.570 -0.7774  2.5852  0.4268
   19ccc     C5  593   1.193   2.892   6.565  0.2283  0.9941  0.3283
   19ccc     H9  594   1.298   2.908   6.536  0.8369 -2.0912  0.4802
   19ccc    H10  595   1.208   2.873   6.672  1.4162 -3.3044 -0.4179
   19ccc     C6  596   1.149   2.770   6.478  0.2332 -0.5851  0.5137
   19ccc     O1  597   1.112   2.789   6.362 -0.1385  0.7321  0.1221
   19ccc     O2  598   1.194   2.652   6.516  0.1358 -0.5190 -0.2082
   19ccc    H11  599   1.188   2.588   6.442  2.2388 -0.6821 -0.2966
   19ccc     C7  600   1.286   3.174   6.556  0.0508 -0.5419  0.2260
   19ccc    H12  601   1.344   3.092   6.599  0.9734  0.0506  0.1292
   19ccc    H13  602   1.303   3.166   6.449  3.9070  0.0749  0.6549
   19ccc     C8  603   1.345   3.311   6.596  0.2307 -0.1604 -0.4517
   19ccc    H14  604   1.292   3.400   6.560  1.2916  0.1620 -1.2467
   19ccc    H15  605   1.309   3.329   6.698 -1.6301  0.2050 -1.1293
   19ccc     C9  606   1.496   3.316   6.588  0.2491  0.0955 -0.0953
   19ccc     O3  607   1.574   3.221   6.588  0.6418  0.5668 -0.2480
   19ccc     O4  608   1.547   3.433   6.553  0.7854  0.0544 -0.0303
   19ccc    H16  609   1.641   3.412   6.537  0.2679 -0.5340 -2.7644
   19ccc     O5  610   0.854   3.500   6.558 -0.4621  1.0246  0.4400
   19ccc    H17  611   1.127   3.148   6.687 -2.8332  0.6064  0.6735
   20ccc     C1  612   0.362   3.877   7.733 -0.5961  0.4702  0.5051
   20ccc     H1  613   0.424   3.786   7.729  0.8580  1.4441 -0.0981
   20ccc     H2  614   0.310   3.890   7.828 -2.0988  0.9572 -0.3503
   20ccc     C2  615   0.256   3.867   7.622 -0.6418  0.3172 -0.3404
   20ccc     H3  616   0.195   3.781   7.653  0.6819 -0.6629 -0.3707
   20ccc     H4  617   0.309   3.843   7.529 -0.6241 -2.2437  0.2550
   20ccc     C3  618   0.169   3.989   7.609 -0.1924 -0.5268  0.2464
   20ccc     H5  619   0.236   4.070   7.576 -1.6714  1.8200  2.5862
   20ccc     H6  620   0.122   4.013   7.705 -2.2701  0.4750 -0.9460
   20ccc     N1  621   0.059   3.982   7.504 -0.3100 -0.0898 -1.2305
   20ccc     C4  622  -0.065   3.908   7.570 -0.3347 -0.0273  0.7258
   20ccc     H7  623  -0.103   3.973   7.650  1.8891  0.7158  1.2553
   20ccc     H8  624  -0.031   3.820   7.624 -0.7839 -0.7138 -0.0949
   20ccc     C5  625  -0.176   3.876   7.465  0.8514 -0.0167 -0.9149
   20ccc     H9  626  -0.209   3.956   7.397  1.1988  1.5548  0.6862
   20ccc    H10  627  -0.140   3.795   7.401 -2.1317 -0.7990 -1.7189
   20ccc     C6  628  -0.309   3.832   7.534 -0.0098 -0.1386  0.3931
   20ccc     O1  629  -0.314   3.797   7.649  0.3394  0.1228  0.2174
   20ccc     O2  630  -0.403   3.799   7.448  0.5385 -0.2275 -0.2853
   20ccc    H11  631  -0.457   3.739   7.502  1.3996  1.0402  2.1442
   20ccc     C7  632   0.019   4.123   7.450  0.2793 -0.1864  0.5191
   20ccc    H12  633  -0.072   4.112   7.391  0.5130  3.8731 -0.8656
   20ccc    H13  634  -0.013   4.177   7.539 -1.6064 -0.2705 -0.0713
   20ccc     C8  635   0.121   4.198   7.362  0.0657 -0.1711 -0.3401
   20ccc    H14  636   0.208   4.200   7.428  0.1850 -0.3402 -0.4918
   20ccc    H15  637   0.138   4.145   7.267  0.5438 -0.0333 -0.3343
   20ccc     C9  638   0.062   4.336   7.336  0.2841 -0.3094  0.1851
   20ccc     O3  639   0.023   4.412   7.425 -0.9744 -0.1312  0.2842
   20ccc     O4  640   0.055   4.370   7.205 -0.2143 -0.1392  0.5083
   20ccc    H16  641   0.093   4.295   7.156  0.9959  1.3870 -1.0214
   20ccc     O5  642   0.448   3.993   7.703  0.3594  0.0720  0.0631
   20ccc    H17  643   0.097   3.934   7.420 -0.7383 -2.5100 -0.1189
   21ccc     C1  644   0.250   4.848   7.903 -0.4810 -0.3000 -0.2720
   21ccc     H1  645   0.144   4.839   7.929 -1.1545 -0.2647 -2.7322
   21ccc     H2  646   0.313   4.895   7.980  4.3285 -2.9730 -2.1486
   21ccc     C2  647   0.267   4.908   7.769 -0.2735  0.2024  0.3059
   21ccc     H3  648   0.193   4.988   7.755  1.2310  1.6181  0.0406
   21ccc     H4  649   0.243   4.827   7.700  0.6333 -0.7942  1.1261
   21ccc     C3  650   0.410   4.957   7.744  0.3239  0.1554 -0.0092
   21ccc     H5  651   0.480   4.880   7.777  2.4640  1.5000 -1.1887
   21ccc     H6  652   0.420   5.046   7.806 -1.7535 -0.1504  0.8639
   21ccc     N1  653   0.442   4.978   7.590  0.2627 -0.0277 -0.5530
   21ccc     C4  654   0.350   5.089   7.530  0.1575 -0.1647  0.1380
   21ccc     H7  655   0.246   5.060   7.547 -0.6038  2.8435  1.2501
   21ccc     H8  656   0.366   5.080   7.423  1.4858 -0.5471  0.3470
   21ccc     C5  657   0.367   5.240   7.565  0.2925 -0.0198 -0.6086
   21ccc     H9  658   0.350   5.246   7.673 -1.6391 -0.8198 -0.8272
   21ccc    H10  659   0.469   5.273   7.542 -0.5390  2.1297 -1.4535
   21ccc     C6  660   0.275   5.335   7.489 -0.5131 -0.1271 -0.4168
   21ccc     O1  661   0.248   5.316   7.370 -0.5313  0.4552  0.2578
   21ccc     O2  662   0.270   5.460   7.535 -0.1282  0.3237 -0.0287
   21ccc    H11  663   0.308   5.454   7.625 -0.0384  0.7096 -0.0416
   21ccc     C7  664   0.593   5.013   7.587  0.2140 -0.0102  0.3958
   21ccc    H12  665   0.604   5.114   7.628  0.3450  0.0918  0.1146
   21ccc    H13  666   0.655   4.941   7.641  0.3743  0.7237  1.2255
   21ccc     C8  667   0.641   5.010   7.442 -0.0143  0.6290  0.1446
   21ccc    H14  668   0.593   4.939   7.374  1.3818  0.7187 -0.9709
   21ccc    H15  669   0.611   5.106   7.398  0.5130  1.0141  0.5978
   21ccc     C9  670   0.797   4.998   7.435  0.3574 -0.7178 -0.0212
   21ccc     O3  671   0.866   4.977   7.537  0.0677  0.0109  0.5696
   21ccc     O4  672   0.851   4.997   7.314 -0.4822  0.8917  0.2380
   21ccc    H16  673   0.787   5.034   7.251  0.3318  1.9588  0.0111
   21ccc     O5  674   0.295   4.709   7.879 -0.1605 -0.6243  0.2801
   21ccc    H17  675   0.431   4.890   7.536 -0.5899 -0.4189  0.2404
   22ccc     C1  676   0.170   6.346   6.035 -0.1294  0.5584 -0.2132
   22ccc     H1  677   0.085   6.310   6.094  0.7388  2.2490  2.2183
   22ccc     H2  678   0.156   6.306   5.934 -0.0258 -0.1853  0.0659
   22ccc     C2  679   0.298   6.286   6.092 -0.1012 -0.4643  0.1584
   22ccc     H3  680   0.379   6.318   6.026 -1.2293  0.4535 -0.8072
   22ccc     H4  681   0.298   6.176   6.082  0.0647 -0.4573  0.0771
   22ccc     C3  682   0.320   6.331   6.233  0.4531 -0.8709  0.2670
   22ccc     H5  683   0.231   6.298   6.287 -0.9451  1.1501 -0.6454
   22ccc     H6  684   0.309   6.439   6.247  1.8517 -0.6815  0.0757
   22ccc     N1  685   0.444   6.284   6.298  0.0343 -0.1032  0.1484
   22ccc     C4  686   0.564   6.330   6.219  0.0040 -0.4714  0.1532
   22ccc     H7  687   0.546   6.307   6.114  3.1375 -0.9116 -0.3638
   22ccc     H8  688   0.648   6.270   6.254 -0.1548 -0.6861  0.1714
   22ccc     C5  689   0.593   6.478   6.221 -0.3587  0.7603  0.5440
   22ccc     H9  690   0.514   6.537   6.174 -0.9634 -0.6417 -0.2655
   22ccc    H10  691   0.610   6.522   6.320 -2.5727  1.6365  0.5781
   22ccc     C6  692   0.715   6.505   6.136  0.0468 -0.1563 -0.5546
   22ccc     O1  693   0.806   6.577   6.173  0.6243 -0.8722 -0.3176
   22ccc     O2  694   0.738   6.428   6.031  0.4999  0.4292  0.0164
   22ccc    H11  695   0.826   6.465   6.009  0.5969 -0.1611 -0.6507
   22ccc     C7  696   0.455   6.335   6.444  0.3401  0.4395  1.1081
   22ccc    H12  697   0.558   6.319   6.478  0.6488  0.0532  0.0262
   22ccc    H13  698   0.440   6.443   6.454  2.9361  0.7470  2.7343
   22ccc     C8  699   0.355   6.267   6.533  0.5395 -0.0677  0.3965
   22ccc    H14  700   0.250   6.284   6.509 -0.2345 -1.5205  2.4955
   22ccc    H15  701   0.371   6.160   6.547 -1.1181 -0.9088 -3.1135
   22ccc     C9  702   0.369   6.316   6.679 -0.0401 -0.5206 -0.0010
   22ccc     O3  703   0.466   6.373   6.718 -0.2876  0.0302  0.6991
   22ccc     O4  704   0.301   6.259   6.779 -0.1725 -0.1998  0.3064
   22ccc    H16  705   0.240   6.201   6.731 -0.3125  1.1880 -1.2753
   22ccc     O5  706   0.172   6.485   6.056 -0.5543  0.1545 -0.1102
   22ccc    H17  707   0.448   6.181   6.295  1.8853 -0.1124  1.5705
   23ccc     C1  708   0.138   7.117   5.744 -0.7136 -0.4413  0.5238
   23ccc     H1  709   0.035   7.083   5.760 -0.1602 -1.3204  2.6566
   23ccc     H2  710   0.144   7.224   5.723  1.0982 -0.6810 -0.4496
   23ccc     C2  711   0.193   7.049   5.616 -0.0904 -0.4274  0.6009
   23ccc     H3  712   0.158   7.108   5.531  0.1588 -2.7290 -1.1940
   23ccc     H4  713   0.157   6.948   5.596  1.2837 -0.2717 -3.4760
   23ccc     C3  714   0.343   7.054   5.597 -0.5313 -0.7228 -0.1076
   23ccc     H5  715   0.394   7.099   5.682 -2.0927 -1.0731  1.0581
   23ccc     H6  716   0.368   7.117   5.512  2.4622  1.6998  2.2957
   23ccc     N1  717   0.421   6.923   5.570 -0.1230 -0.0219  0.1911
   23ccc     C4  718   0.551   6.946   5.505 -0.0858  0.1108 -0.0228
   23ccc     H7  719   0.604   6.851   5.498 -2.3987 -1.2389 -0.3377
   23ccc     H8  720   0.614   7.010   5.566  0.4526  0.6434 -1.1002
   23ccc     C5  721   0.541   6.987   5.358 -0.2390 -0.1235 -0.7765
   23ccc     H9  722   0.485   6.909   5.305 -0.1068 -0.9372  0.2556
   23ccc    H10  723   0.483   7.080   5.343  2.4541  1.5275 -1.7511
   23ccc     C6  724   0.679   7.005   5.298  0.5545 -0.1751  0.4066
   23ccc     O1  725   0.782   6.972   5.351 -0.0454 -0.2342 -0.2429
   23ccc     O2  726   0.671   6.996   5.162  0.5518  0.1116 -0.0038
   23ccc    H11  727   0.576   7.007   5.148  0.0844 -4.0803 -1.4159
   23ccc     C7  728   0.457   6.846   5.699 -0.5268  0.5940  0.0476
   23ccc    H12  729   0.362   6.828   5.748  0.1269  0.0316  1.1446
   23ccc    H13  730   0.499   6.750   5.668 -0.9942  0.3200  0.2615
   23ccc     C8  731   0.548   6.922   5.806  0.3755 -1.5231 -0.5434
   23ccc    H14  732   0.654   6.940   5.784  0.3348  1.5390  1.1732
   23ccc    H15  733   0.506   7.019   5.836  1.9216 -1.1169  0.4360
   23ccc     C9  734   0.542   6.837   5.935 -0.0005  0.2344  0.0835
   23ccc     O3  735   0.451   6.764   5.964 -0.8423  0.1325  0.4875
   23ccc     O4  736   0.661   6.808   5.989 -0.3306  0.1814 -0.1305
   23ccc    H16  737   0.719   6.884   5.974  1.6343 -0.6159  2.6870
   23ccc     O5  738   0.220   7.073   5.851  0.5223  0.0134  0.2032
   23ccc    H17  739   0.365   6.862   5.508 -0.2204 -1.4540  1.6409
   24ccc     C1  740   0.351   7.580   7.827  0.6397 -0.0091 -0.0615
   24ccc     H1  741   0.445   7.555   7.878  0.4797 -0.8823 -0.1716
   24ccc     H2  742   0.341   7.689   7.826 -1.2392 -0.1494  0.4582
   24ccc     C2  743   0.219   7.527   7.895  0.7788  0.4606 -0.3536
   24ccc     H3  744   0.210   7.567   7.996 -1.7340  1.5736 -0.9372
   24ccc     H4  745   0.217   7.417   7.894 -4.5562  0.2681 -0.4349
   24ccc     C3  746   0.094   7.566   7.808  0.3035 -0.1892 -0.6017
   24ccc     H5  747   0.090   7.502   7.720 -0.5614 -0.9207 -0.0548
   24ccc     H6  748   0.089   7.672   7.781 -3.4653 -0.1388 -0.2783
   24ccc     N1  749  -0.039   7.549   7.888  0.2253 -0.8455 -0.3612
   24ccc     C4  750  -0.154   7.617   7.817 -0.9192  0.3846 -0.2089
   24ccc     H7  751  -0.126   7.716   7.781 -0.2493 -0.0035 -0.7637
   24ccc     H8  752  -0.238   7.624   7.886 -2.0356 -3.1774 -1.0048
   24ccc     C5  753  -0.206   7.542   7.697  0.5658 -0.7264  0.3710
   24ccc     H9  754  -0.130   7.506   7.626 -1.4939 -0.9619 -1.8452
   24ccc    H10  755  -0.266   7.452   7.717 -0.3195 -0.5688 -1.3614
   24ccc     C6  756  -0.303   7.630   7.616 -0.4993 -0.8238 -0.0360
   24ccc     O1  757  -0.325   7.746   7.645  0.2261 -0.7497  0.0021
   24ccc     O2  758  -0.309   7.581   7.492 -0.4255  0.1578  0.3653
   24ccc    H11  759  -0.363   7.646   7.445 -0.1439  0.6396  0.7072
   24ccc     C7  760  -0.068   7.401   7.924 -0.4877  0.3269 -0.0638
   24ccc    H12  761  -0.106   7.347   7.838  1.9489 -1.3769 -0.1755
   24ccc    H13  762   0.018   7.343   7.959 -0.7197  0.4540  0.7444
   24ccc     C8  763  -0.167   7.380   8.036 -0.0073  0.0994  0.2950
   24ccc    H14  764  -0.147   7.448   8.120 -0.6001  1.4820 -0.6532
   24ccc    H15  765  -0.264   7.404   7.992  0.4347  3.6046  0.9648
   24ccc     C9  766  -0.160   7.243   8.093 -0.0068  0.5630 -0.3134
   24ccc     O3  767  -0.079   7.150   8.067 -0.2364  0.4111  0.2559
   24ccc     O4  768  -0.263   7.216   8.176  0.3655  0.5619 -0.5410
   24ccc    H16  769  -0.318   7.297   8.180 -1.4646 -0.6430 -0.3835
   24ccc     O5  770   0.361   7.517   7.693 -0.1925 -1.1003 -0.2410
   24ccc    H17  771  -0.017   7.603   7.973  0.3971  0.7680 -1.3888
   25ccc     C1  772   0.517   7.710   7.024  0.0448  0.4364  0.2169
   25ccc     H1  773   0.526   7.756   6.925 -0.7599  0.1523  0.0000
   25ccc     H2  774   0.481   7.787   7.093  1.4960  2.9002 -1.6391
   25ccc     C2  775   0.657   7.659   7.065 -0.6138 -0.2266  0.1559
   25ccc     H3  776   0.661   7.600   7.158 -1.0026 -0.0598  0.2791
   25ccc     H4  777   0.723   7.745   7.080  2.4111 -2.3002 -0.2733
   25ccc     C3  778   0.725   7.575   6.958  0.3773 -0.0920  0.6024
   25ccc     H5  779   0.694   7.633   6.870 -1.4970 -1.2845  0.4308
   25ccc     H6  780   0.672   7.480   6.959  3.1231 -1.7941 -1.3544
   25ccc     N1  781   0.874   7.550   6.978 -0.7485 -0.1631 -0.1139
   25ccc     C4  782   0.915   7.411   7.036 -0.2715 -0.2232 -0.2894
   25ccc     H7  783   0.886   7.407   7.141 -0.8988  2.0721 -0.3308
   25ccc     H8  784   1.022   7.392   7.024 -0.6517 -1.4200 -2.2157
   25ccc     C5  785   0.856   7.292   6.962 -0.7932  0.7163 -0.6018
   25ccc     H9  786   0.747   7.292   6.975 -0.7877 -0.4208 -0.4188
   25ccc    H10  787   0.878   7.290   6.854  0.2991  0.5343 -0.3919
   25ccc     C6  788   0.912   7.161   7.020 -0.5085 -0.4110  0.0615
   25ccc     O1  789   1.033   7.142   7.031  0.5286  0.6798  0.6505
   25ccc     O2  790   0.818   7.078   7.060  0.3326  0.0212  0.3139
   25ccc    H11  791   0.741   7.121   7.020  1.4348  2.1106  0.3167
   25ccc     C7  792   0.947   7.575   6.851  0.3384  0.2059  0.3534
   25ccc    H12  793   1.052   7.553   6.871  0.0939 -0.0104  1.4360
   25ccc    H13  794   0.913   7.501   6.778  2.4665 -0.3680 -0.1290
   25ccc     C8  795   0.937   7.722   6.789  0.1142  0.4109 -0.1596
   25ccc    H14  796   0.911   7.797   6.865  0.8334  3.2264 -2.5358
   25ccc    H15  797   1.035   7.743   6.746 -1.1642  1.4560 -2.8307
   25ccc     C9  798   0.833   7.736   6.674 -0.6745 -0.2339 -0.7509
   25ccc     O3  799   0.763   7.647   6.637  0.1010  0.1460  0.2391
   25ccc     O4  800   0.806   7.867   6.651  0.2072  0.2326 -0.0793
   25ccc    H16  801   0.748   7.872   6.572  0.3262 -0.6310 -0.2359
   25ccc     O5  802   0.427   7.598   7.031 -0.2707 -0.3339  0.0152
   25ccc    H17  803   0.921   7.617   7.040  1.6634  0.5310 -2.4711
   26ccc     C1  804   0.182   6.883   8.687  0.0624 -0.4934  1.0279
   26ccc     H1  805   0.198   6.819   8.775  0.4150 -0.8847  0.6771
   26ccc     H2  806   0.156   6.983   8.723 -1.5428 -0.5686  0.1806
   26ccc     C2  807   0.059   6.831   8.613  0.3296 -0.5880 -0.9919
   26ccc     H3  808  -0.004   6.799   8.697  1.9835 -0.0027  0.5572
   26ccc     H4  809   0.100   6.744   8.560  0.1960  0.2879 -2.5912
   26ccc     C3  810  -0.005   6.922   8.505 -0.7695  0.5454  0.4584
   26ccc     H5  811   0.075   6.937   8.431 -1.6404 -0.1552 -0.6662
   26ccc     H6  812  -0.030   7.021   8.541  2.5297  2.6818 -2.3830
   26ccc     N1  813  -0.121   6.861   8.426 -0.0060  0.5752  0.3629
   26ccc     C4  814  -0.242   6.852   8.512 -0.9064  0.2565 -0.5497
   26ccc     H7  815  -0.230   6.770   8.583 -0.9879  1.4583  0.8955
   26ccc     H8  816  -0.326   6.828   8.447 -0.6875 -0.5909 -0.5372
   26ccc     C5  817  -0.283   6.978   8.591  0.0460  0.3218 -0.5900
   26ccc     H9  818  -0.222   6.993   8.681 -0.6011 -0.8307  0.0590
   26ccc    H10  819  -0.274   7.070   8.533  0.9977 -0.0667 -1.0880
   26ccc     C6  820  -0.434   6.976   8.619  0.3347 -0.2921 -0.5286
   26ccc     O1  821  -0.499   6.878   8.604  0.1702 -0.0174  0.3848
   26ccc     O2  822  -0.494   7.091   8.634 -0.0351 -0.0912  0.0202
   26ccc    H11  823  -0.589   7.069   8.628 -0.5010  1.9158 -0.8930
   26ccc     C7  824  -0.154   6.920   8.283 -0.3194  0.3250 -0.4111
   26ccc    H12  825  -0.224   7.003   8.293  1.1155  1.5727 -0.3321
   26ccc    H13  826  -0.065   6.952   8.229 -2.6902  2.7554 -3.2102
   26ccc     C8  827  -0.226   6.818   8.195  0.4333 -0.4431  0.0686
   26ccc    H14  828  -0.174   6.722   8.186 -0.4166 -0.8892 -0.2074
   26ccc    H15  829  -0.323   6.796   8.241  1.0860  0.1344  1.8120
   26ccc     C9  830  -0.237   6.888   8.058 -0.2873 -0.2391 -1.1164
   26ccc     O3  831  -0.329   6.952   8.024  0.4685  0.0181  0.0616
   26ccc     O4  832  -0.165   6.830   7.953  0.1990  0.5473 -0.6875
   26ccc    H16  833  -0.091   6.794   8.005 -0.4249 -0.6179 -0.5743
   26ccc     O5  834   0.299   6.876   8.596 -0.3171  0.4976  0.2209
   26ccc    H17  835  -0.097   6.763   8.405 -0.3965  0.8313 -1.5153
   27ccc     C1  836   1.057   6.510   8.809 -0.1688 -0.0771 -0.0417
   27ccc     H1  837   1.134   6.470   8.742  1.4787  0.9774  1.1598
   27ccc     H2  838   1.060   6.615   8.838 -1.7392 -0.0569  0.1123
   27ccc     C2  839   1.044   6.420   8.938  0.5647 -0.0592 -0.2429
   27ccc     H3  840   0.969   6.464   9.004  1.6530  0.5889  0.6048
   27ccc     H4  841   1.139   6.418   8.993  1.0895 -0.0007 -1.1327
   27ccc     C3  842   0.997   6.275   8.906 -0.3055  0.1637 -0.7957
   27ccc     H5  843   1.055   6.243   8.820  1.1465  0.7375 -0.0762
   27ccc     H6  844   0.890   6.273   8.886 -0.5506 -1.8849  0.3445
   27ccc     N1  845   1.022   6.165   9.018 -0.5460  0.1799  0.1819
   27ccc     C4  846   0.960   6.034   8.965  0.2499  0.0853 -0.4322
   27ccc     H7  847   0.991   5.944   9.018 -0.1492  0.6469  0.7866
   27ccc     H8  848   0.967   6.022   8.857 -0.6172 -1.5958 -0.3366
   27ccc     C5  849   0.811   6.043   8.994 -0.2427  0.1659 -0.3701
   27ccc     H9  850   0.794   6.024   9.101 -0.3875  0.9114 -0.2577
   27ccc    H10  851   0.762   6.134   8.958 -2.4354 -0.9709 -0.4445
   27ccc     C6  852   0.731   5.929   8.925 -0.6737 -0.1624 -0.1478
   27ccc     O1  853   0.773   5.859   8.836 -0.2799  0.4084 -0.4048
   27ccc     O2  854   0.603   5.920   8.963 -0.5519 -0.0220 -0.2630
   27ccc    H11  855   0.591   5.983   9.036 -0.1950 -0.7766  0.4611
   27ccc     C7  856   1.168   6.140   9.029 -0.3353  0.2389 -0.1960
   27ccc    H12  857   1.208   6.104   8.933 -1.3365  1.2108 -1.0036
   27ccc    H13  858   1.232   6.228   9.041  0.0892 -0.0316 -0.4080
   27ccc     C8  859   1.204   6.044   9.144 -0.4313 -0.5317  0.1406
   27ccc    H14  860   1.124   5.983   9.187 -0.0643 -1.4092 -0.4090
   27ccc    H15  861   1.283   5.980   9.104  2.3994  2.1879  0.9251
   27ccc     C9  862   1.264   6.117   9.261  0.6049  0.3017 -0.0390
   27ccc     O3  863   1.301   6.232   9.262  0.3462 -0.0469 -0.4526
   27ccc     O4  864   1.271   6.044   9.373  0.0861  0.1810  0.5852
   27ccc    H16  865   1.277   6.114   9.441 -0.6206  2.0527 -1.1427
   27ccc     O5  866   0.926   6.492   8.754 -0.4332  0.3683  0.2500
   27ccc    H17  867   0.997   6.199   9.112  0.1122  1.0638  0.0542
   28ccc     C1  868   1.257   7.373   7.961 -0.7344  0.9013  0.1081
   28ccc     H1  869   1.178   7.407   8.029 -0.5131 -2.2045  2.1753
   28ccc     H2  870   1.358   7.402   7.994 -0.1815 -0.0053 -0.7257
   28ccc     C2  871   1.230   7.427   7.823  0.5514 -0.3316  0.3389
   28ccc     H3  872   1.198   7.532   7.825 -2.4857 -1.1539 -0.0174
   28ccc     H4  873   1.145   7.370   7.784 -1.9917  1.5822  2.6894
   28ccc     C3  874   1.355   7.404   7.739 -0.7606  0.1685 -0.4330
   28ccc     H5  875   1.379   7.298   7.748  0.7984  0.6509  1.9514
   28ccc     H6  876   1.444   7.461   7.769 -0.2897  1.6461 -4.0336
   28ccc     N1  877   1.339   7.454   7.598  0.1825 -0.1095 -0.4431
   28ccc     C4  878   1.228   7.367   7.530  0.6409 -0.8994  0.3107
   28ccc     H7  879   1.132   7.396   7.573 -0.8980 -0.0866 -3.2546
   28ccc     H8  880   1.244   7.262   7.553 -0.6718 -1.5023 -1.2783
   28ccc     C5  881   1.226   7.382   7.371 -0.4737  0.0861  0.3214
   28ccc     H9  882   1.194   7.483   7.344  3.8132  1.4305 -0.5064
   28ccc    H10  883   1.326   7.370   7.327 -0.5157  0.5163  0.0999
   28ccc     C6  884   1.143   7.274   7.304  0.3162 -0.0136  0.5310
   28ccc     O1  885   1.020   7.266   7.308  0.1853 -0.1955 -0.0749
   28ccc     O2  886   1.213   7.190   7.226 -0.5619 -0.2043 -0.7117
   28ccc    H11  887   1.138   7.145   7.184 -1.0367 -1.3184  1.2379
   28ccc     C7  888   1.321   7.609   7.595 -0.3989  0.3233 -0.4370
   28ccc    H12  889   1.274   7.634   7.500 -0.9650 -0.3235 -0.3390
   28ccc    H13  890   1.233   7.633   7.655 -1.6761 -0.1561 -2.0481
   28ccc     C8  891   1.439   7.702   7.632 -0.2275  0.0965 -0.2054
   28ccc    H14  892   1.488   7.666   7.723  0.1280 -0.6730 -0.6837
   28ccc    H15  893   1.509   7.699   7.547  1.1675 -1.5394  0.9216
   28ccc     C9  894   1.399   7.843   7.663 -0.0647 -0.2661 -0.0335
   28ccc     O3  895   1.290   7.880   7.705  0.2171 -0.0394 -0.3994
   28ccc     O4  896   1.488   7.939   7.631 -0.3994  0.3884  0.0250
   28ccc    H16  897   1.443   8.024   7.647  0.7209  0.9492  0.3289
   28ccc     O5  898   1.256   7.227   7.944 -0.6436 -0.1530  0.2454
   28ccc    H17  899   1.430   7.437   7.553  1.0955  1.3069  0.7777
   29ccc     C1  900   1.674   6.560   7.895 -0.1768 -0.1340 -0.2737
   29ccc     H1  901   1.694   6.460   7.934 -1.3912  0.3468  1.7247
   29ccc     H2  902   1.710   6.562   7.791  0.1500  0.3417 -0.1563
   29ccc     C2  903   1.749   6.661   7.985  0.0762 -0.2147 -0.0736
   29ccc     H3  904   1.746   6.758   7.934  3.0257  0.3778  0.6825
   29ccc     H4  905   1.856   6.636   7.982 -0.3457 -2.4989  1.4759
   29ccc     C3  906   1.709   6.652   8.134 -0.2922  0.5730  0.0696
   29ccc     H5  907   1.727   6.551   8.169  0.3369  0.2178 -1.2155
   29ccc     H6  908   1.602   6.670   8.146 -0.2025  0.0433  2.0221
   29ccc     N1  909   1.781   6.743   8.228  0.8965 -0.0637  0.2002
   29ccc     C4  910   1.767   6.890   8.184 -0.8338 -0.5027 -0.5003
   29ccc     H7  911   1.792   6.897   8.078 -0.6870  2.8009 -0.3732
   29ccc     H8  912   1.839   6.948   8.242 -0.9970 -0.3716 -0.4266
   29ccc     C5  913   1.633   6.961   8.207 -0.5321 -0.3029  0.5355
   29ccc     H9  914   1.556   6.905   8.152 -1.9985  2.5833 -0.5836
   29ccc    H10  915   1.611   6.973   8.314 -0.6260 -1.1541  0.6246
   29ccc     C6  916   1.640   7.103   8.148  0.6692 -0.2754  0.1878
   29ccc     O1  917   1.619   7.142   8.034 -0.3597  0.3201  0.4161
   29ccc     O2  918   1.653   7.199   8.244  0.5233  0.3328 -0.1030
   29ccc    H11  919   1.660   7.281   8.191 -0.8589  1.3802  1.2224
   29ccc     C7  920   1.728   6.712   8.372  0.2574 -0.2223  0.3097
   29ccc    H12  921   1.734   6.801   8.435  1.6219  0.9218 -1.3583
   29ccc    H13  922   1.622   6.687   8.366  0.5368 -1.3636 -0.1345
   29ccc     C8  923   1.808   6.598   8.442 -0.4436  0.4218 -0.4756
   29ccc    H14  924   1.793   6.507   8.382 -1.6426 -0.0986  0.5597
   29ccc    H15  925   1.912   6.630   8.440 -0.2841  0.1215  1.4692
   29ccc     C9  926   1.766   6.578   8.590  0.1401 -0.3856  0.5351
   29ccc     O3  927   1.690   6.651   8.647  0.3208  0.4488  0.7242
   29ccc     O4  928   1.850   6.505   8.664  0.2577 -0.0445 -0.0165
   29ccc    H16  929   1.922   6.478   8.604  0.7777  1.3530 -0.0607
   29ccc     O5  930   1.537   6.587   7.901 -0.2626  0.3064 -0.7395
   29ccc    H17  931   1.881   6.719   8.224  1.0693  0.4123  1.1955
   30SOL     OW  932   6.062   5.844   3.599 -0.2671  0.6095 -0.4415
   30SOL    HW1  933   5.985   5.869   3.649 -0.8432 -0.0694 -0.9531
   30SOL    HW2  934   6.036   5.858   3.507  0.5468  1.2477 -0.5895
   31SOL     OW  935   7.097   3.463   7.872  0.1704  0.1387 -0.3775
   31SOL    HW1  936   7.127   3.474   7.962 -0.7725  0.4329 -0.0878
   31SOL    HW2  937   7.092   3.552   7.837  4.4953 -0.0360 -2.1351
   32SOL     OW  938   5.161   2.694   2.707  0.1872 -0.0101  0.2208
   32SOL    HW1  939   5.214   2.630   2.660 -0.2226 -0.6225  0.5826
   32SOL    HW2  940   5.213   2.718   2.783  1.0210  1.2692 -0.7070
   33SOL     OW  941   8.219   7.773   2.588 -0.0192  0.4167 -0.2935
   33SOL    HW1  942   8.274   7.821   2.526 -0.8622  1.3470 -0.3399
   33SOL    HW2  943   8.237   7.815   2.673  0.1182  0.0373 -0.1336
   34SOL     OW  944   2.970   7.889   2.322  0.1008 -0.1459 -0.3066
   34SOL    HW1  945   2.882   7.882   2.284  0.5234  0.2788 -1.3881
   34SOL    HW2  946   2.957   7.868   2.415 -1.6619  2.6122  0.2199
   35SOL     OW  947   7.267   0.908   2.669 -0.6358 -0.4505  0.4891
   35SOL    HW1  948   7.219   0.952   2.599 -0.4164  0.5845  0.9612
   35SOL    HW2  949   7.266   0.816   2.645  1.4361  0.0903 -2.1073
   36SOL     OW  950   4.725   2.297   3.536 -0.2185 -0.3598 -0.1782
   36SOL    HW1  951   4.752   2.367   3.595  1.2867 -0.7947 -0.3276
   36SOL    HW2  952   4.636   2.322   3.509 -0.6610  0.2243  1.6576
   37SOL     OW  953   6.695   1.272   0.863  0.3148 -0.5149  0.2825
   37SOL    HW1  954   6.602   1.290   0.850  0.2085 -1.7196 -0.7820
   37SOL    HW2  955   6.705   1.263   0.958 -0.7972 -1.0428  0.3622
   38SOL     OW  956   1.169   0.178   4.099  0.2065 -0.0181  0.1698
   38SOL    HW1  957   1.140   0.237   4.029 -0.1365 -1.4363 -0.9388
   38SOL    HW2  958   1.094   0.173   4.159 -0.3022 -0.4016 -0.4812
   39SOL     OW  959   4.750   2.635   3.392 -0.1397 -0.1352 -0.0100
   39SOL    HW1  960   4.811   2.630   3.466  2.6701 -0.5822 -2.2075
   39SOL    HW2  961   4.776   2.714   3.344 -1.3891 -0.2813 -0.9824
   40SOL     OW  962   6.623   5.828   5.495 -0.2740  0.0290 -0.2180
   40SOL    HW1  963   6.634   5.784   5.410 -1.0443  0.1515 -0.3863
   40SOL    HW2  964   6.551   5.781   5.537 -0.8351  0.8715 -0.2279
   41SOL     OW  965   5.425   0.201   8.114  0.1782 -0.4083  0.2385
   41SOL    HW1  966   5.517   0.178   8.129  0.1804 -0.8008 -0.3551
   41SOL    HW2  967   5.398   0.245   8.195  0.6733 -0.9435  0.6998
   42SOL     OW  968   1.889   8.152   6.702  1.0157 -0.2371  0.2630
   42SOL    HW1  969   1.796   8.155   6.677  0.9942 -0.4514  0.3145
   42SOL    HW2  970   1.935   8.159   6.618  0.9590  0.2706  0.2732
   43SOL     OW  971   6.525   2.356   4.366  0.5302 -0.2833  0.1096
   43SOL    HW1  972   6.460   2.309   4.418  1.2932 -1.7330 -0.2014
   43SOL    HW2  973   6.554   2.293   4.301  0.8961  0.9434 -0.9545
   44SOL     OW  974   5.402   2.311   1.073  0.1527 -0.1439  0.2768
   44SOL    HW1  975   5.407   2.397   1.030  0.6048 -1.2999 -2.1489
   44SOL    HW2  976   5.311   2.285   1.062  0.0850 -0.1070  0.7487
   45SOL     OW  977   1.940   3.798   4.228  0.1810 -0.1494 -0.1320
   45SOL    HW1  978   2.011   3.817   4.167  1.5208 -0.2919  1.2997
   45SOL    HW2  979   1.938   3.875   4.286 -0.4950 -0.3717  0.1408
   46SOL     OW  980   1.904   7.508   4.273 -0.0535 -0.3050  0.5671
   46SOL    HW1  981   1.890   7.501   4.179  0.3163  1.4387  0.3572
   46SOL    HW2  982   1.958   7.431   4.295 -1.3001 -1.4852 -0.3606
   47SOL     OW  983   2.927   5.424   1.658 -0.9155 -0.1134 -0.5062
   47SOL    HW1  984   2.842   5.433   1.702 -0.3561 -0.8476  0.7943
   47SOL    HW2  985   2.987   5.398   1.728  0.2879 -0.0657 -1.4938
   48SOL     OW  986   4.243   3.199   0.953 -0.1755 -0.1342 -0.1806
   48SOL    HW1  987   4.314   3.169   0.896 -0.4893  0.5227 -0.9426
   48SOL    HW2  988   4.229   3.290   0.928 -0.2008  0.2316  1.0964
   49SOL     OW  989   0.964   3.021   5.370  0.5833 -0.0095  0.2604
   49SOL    HW1  990   1.020   2.982   5.303  2.8596  1.8588  0.9643
   49SOL    HW2  991   0.909   3.083   5.321 -0.0868 -0.9908 -0.2722
   50SOL     OW  992   1.266   3.144   5.615 -0.4218 -0.5106  0.4605
   50SOL    HW1  993   1.217   3.224   5.596 -2.1569 -1.1883  1.7277
   50SOL    HW2  994   1.354   3.161   5.583 -0.9590  1.5733 -0.0684
   51SOL     OW  995   2.818   2.482   4.472  0.4840  0.0277  0.2054
   51SOL    HW1  996   2.729   2.484   4.507  0.2695  0.4699 -0.3688
   51SOL    HW2  997   2.808   2.492   4.378  1.0798 -0.9521  0.0229
   52SOL     OW  998   0.907   0.811   5.130  0.1978 -0.3430  0.1931
   52SOL    HW1  999   0.869   0.734   5.088 -0.2352 -0.4494  0.7606
   52SOL    HW2 1000   0.999   0.790   5.141  0.5930  0.1502 -1.7430
   53SOL     OW 1001   5.415   2.797   6.981 -0.0623  0.4955 -0.3753
   53SOL    HW1 1002   5.450   2.717   6.942  0.8142  0.9277 -0.4763
   53SOL    HW2 1003   5.426   2.784   7.075 -1.5432 -0.2456 -0.2630
   54SOL     OW 1004   6.059   0.007   1.413  0.3877 -0.1821 -0.1222
   54SOL    HW1 1005   5.965   0.005   1.435 -0.3851  0.4903 -2.9393
   54SOL    HW2 1006   6.089  -0.083   1.427 -1.3365 -1.0396 -1.5207
   55SOL     OW 1007   6.291   0.720   4.287 -0.6104 -0.2595  0.0525
   55SOL    HW1 1008   6.233   0.794   4.303  0.6985  0.7474  0.3464
   55SOL    HW2 1009   6.354   0.753   4.222  0.8848 -0.5811  1.2834
   56SOL     OW 1010   7.869   3.728   1.595  0.1797  0.3704  0.5837
   56SOL    HW1 1011   7.816   3.648   1.590  2.0359 -0.9091 -0.2479
   56SOL    HW2 1012   7.846   3.777   1.516  0.3207 -0.2567  0.1407
   57SOL     OW 1013   1.992   3.084   6.066  0.8634 -0.2965 -0.5623
   57SOL    HW1 1014   2.080   3.080   6.102  0.6400 -0.7613 -0.0514
   57SOL    HW2 1015   1.959   3.170   6.091  1.1124 -0.1878 -0.6095
   58SOL     OW 1016   6.751   0.497   4.256 -0.1072  0.2302  0.5446
   58SOL    HW1 1017   6.723   0.585   4.278 -0.3174  0.2938  0.0396
   58SOL    HW2 1018   6.683   0.440   4.293  0.1093  0.2694  1.0052
   59SOL     OW 1019   7.758   8.032   5.000 -0.1589  0.2838 -0.2695
   59SOL    HW1 1020   7.803   8.046   4.917  1.1074 -1.7303  0.0251
   59SOL    HW2 1021   7.813   7.970   5.047 -1.4130  0.5487  1.6396
   60SOL     OW 1022   7.248   6.023   7.496  0.2068  0.1065 -0.2367
   60SOL    HW1 1023   7.299   5.968   7.436 -0.0688 -1.1648  0.6651
   60SOL    HW2 1024   7.163   5.980   7.501  0.4010 -0.1155  1.4848
   61SOL     OW 1025   3.490   1.113   2.657 -0.2607  0.0134  0.2562
   61SOL    HW1 1026   3.432   1.063   2.600 -0.8176 -0.7581  1.4539
   61SOL    HW2 1027   3.482   1.203   2.627  0.6776 -0.5650 -1.8897
   62SOL     OW 1028   2.026   2.165   3.005  0.0402  0.1570 -0.5212
   62SOL    HW1 1029   2.004   2.208   3.088 -0.0207 -0.1994 -0.3532
   62SOL    HW2 1030   1.942   2.147   2.964  0.0519 -0.2423 -0.3689
   63SOL     OW 1031   0.443   3.210   0.492  0.3819 -0.1025 -0.5116
   63SOL    HW1 1032   0.474   3.154   0.563  1.4631 -1.2404 -1.8269
   63SOL    HW2 1033   0.420   3.149   0.421 -0.4853  1.0051 -1.2192
   64SOL     OW 1034   2.303   5.837   4.963  0.0914  0.5649  0.0320
   64SOL    HW1 1035   2.323   5.929   4.944  3.1574  0.6093  2.5793
   64SOL    HW2 1036   2.277   5.800   4.878 -1.8547  3.8170 -0.9620
   65SOL     OW 1037   0.156   5.785   6.680  0.0553  0.5668 -0.0726
   65SOL    HW1 1038   0.121   5.696   6.689  0.2223  0.6611  2.0861
   65SOL    HW2 1039   0.149   5.804   6.587  1.6914 -2.3897 -0.9569
   66SOL     OW 1040   5.224   2.984   7.609  0.1115 -0.3580 -0.3857
   66SOL    HW1 1041   5.240   3.000   7.702 -3.5580 -1.1857  0.5590
   66SOL    HW2 1042   5.233   2.889   7.599 -0.0308 -0.3357 -0.7407
   67SOL     OW 1043   1.602   0.614   7.667  0.2890  0.7427 -0.0804
   67SOL    HW1 1044   1.590   0.530   7.711  1.6579  0.0408 -0.9835
   67SOL    HW2 1045   1.617   0.591   7.575 -0.4657  2.0526 -0.5602
   68SOL     OW 1046   0.300   4.858   6.285 -0.1844 -0.6335  0.9170
   68SOL    HW1 1047   0.346   4.802   6.347  1.8296 -1.4770 -1.1914
   68SOL    HW2 1048   0.309   4.814   6.201  3.8175  3.7821 -1.4678
   69SOL     OW 1049   4.733   4.018   6.420  0.3691  0.2435  0.3745
   69SOL    HW1 1050   4.703   4.091   6.474  1.1221  0.1312  0.9560
   69SOL    HW2 1051   4.824   4.038   6.400  0.8843 -0.9826  1.3436
   70SOL     OW 1052   1.810   5.599   3.741  0.2375 -0.1801  0.3883
   70SOL    HW1 1053   1.778   5.662   3.805  0.6084  0.0899  0.3076
   70SOL    HW2 1054   1.734   5.544   3.722  0.0723 -0.1355  0.9075
   71SOL     OW 1055   3.326   4.009   6.491 -0.2181 -0.5653 -0.0431
   71SOL    HW1 1056   3.343   3.949   6.419  1.5028  0.0290 -0.1645
   71SOL    HW2 1057   3.319   3.952   6.568  1.4316 -0.9693 -0.1476
   72SOL     OW 1058   5.410   7.700   1.735  0.3832  0.6094  0.3992
   72SOL    HW1 1059   5.356   7.741   1.803 -0.1696  2.3168 -0.9891
   72SOL    HW2 1060   5.497   7.736   1.750  0.5503 -0.0080  0.9580
   73SOL     OW 1061   7.986   1.584   4.538  0.1660  0.4118  0.7842
   73SOL    HW1 1062   7.962   1.565   4.448  0.8129  0.4447  0.5987
   73SOL    HW2 1063   7.931   1.659   4.562  1.0134  1.3322 -0.0713
   74SOL     OW 1064   1.644   1.398   2.209 -0.6895  0.3474  0.0144
   74SOL    HW1 1065   1.553   1.424   2.220 -0.2219  2.1069 -0.0169
   74SOL    HW2 1066   1.678   1.394   2.298 -0.6886  0.0882  0.0031
   75SOL     OW 1067   6.017   5.587   1.247 -0.0112 -0.0144  0.4244
   75SOL    HW1 1068   5.923   5.588   1.264 -0.5763 -1.6277 -2.0224
   75SOL    HW2 1069   6.028   5.524   1.175  2.9175  0.2940  0.4621
   76SOL     OW 1070   6.504   1.617   3.909 -0.3480 -0.2474 -0.5477
   76SOL    HW1 1071   6.456   1.534   3.915 -0.1560 -0.3010  0.6619
   76SOL    HW2 1072   6.596   1.591   3.906 -0.3475 -0.1185 -1.9098
   77SOL     OW 1073   4.894   5.894   6.847 -0.8290 -0.3466  0.2000
   77SOL    HW1 1074   4.945   5.970   6.820  1.2603 -1.4745  0.7979
   77SOL    HW2 1075   4.828   5.930   6.907 -1.0572  1.1958 -0.9109
   78SOL     OW 1076   0.767   0.325   0.661  0.1392 -0.2403  0.4718
   78SOL    HW1 1077   0.799   0.257   0.602  1.3394  1.6755 -1.2123
   78SOL    HW2 1078   0.840   0.343   0.720 -0.0881 -0.2438  0.7585
   79SOL     OW 1079   2.543   5.458   5.738  0.1768 -0.4978 -0.3138
   79SOL    HW1 1080   2.464   5.469   5.686  0.0582  1.3981  0.1872
   79SOL    HW2 1081   2.579   5.374   5.711 -1.7780 -1.2005 -0.8549
   80SOL     OW 1082   4.419   4.373   2.744 -0.1606  0.0717  0.2100
   80SOL    HW1 1083   4.391   4.446   2.800 -1.7862  0.0061 -0.4758
   80SOL    HW2 1084   4.403   4.295   2.798 -0.3803  0.0967  0.1825
   81SOL     OW 1085   2.496   5.826   6.926  0.3416  0.4252 -0.2779
   81SOL    HW1 1086   2.546   5.808   6.847 -2.8699  2.2204 -3.0083
   81SOL    HW2 1087   2.423   5.765   6.923 -0.7153  1.6028  0.3317
   82SOL     OW 1088   1.636   1.551   2.829 -0.4405  0.0954 -0.2757
   82SOL    HW1 1089   1.640   1.643   2.858 -1.2462  0.4308 -1.1421
   82SOL    HW2 1090   1.709   1.508   2.873  0.4519  1.3428 -0.4937
   83SOL     OW 1091   4.284   6.280   4.450  0.1229  1.2199 -0.4571
   83SOL    HW1 1092   4.337   6.347   4.406  1.2481  0.6868  0.0408
   83SOL    HW2 1093   4.217   6.257   4.386 -0.1301  2.6299 -0.7338
   84SOL     OW 1094   6.981   8.183   7.582 -0.2034  0.1408 -0.0665
   84SOL    HW1 1095   7.054   8.171   7.643 -0.5415 -4.1509 -0.1993
   84SOL    HW2 1096   6.912   8.224   7.635  0.8845  0.3246  1.2690
   85SOL     OW 1097   7.051   0.324   6.149  0.0281 -0.1711  0.6185
   85SOL    HW1 1098   7.019   0.337   6.238 -0.4091  2.1675  0.1837
   85SOL    HW2 1099   6.982   0.273   6.106 -0.1958 -0.4909  1.3404
   86SOL     OW 1100   4.709   3.486   6.305 -0.6025 -0.1754 -0.5236
   86SOL    HW1 1101   4.660   3.567   6.322  1.6242  1.4677 -1.4488
   86SOL    HW2 1102   4.774   3.483   6.375 -0.0350 -0.6566 -1.0672
   87SOL     OW 1103   1.556   2.083   4.724  0.4362 -0.9230  0.1633
   87SOL    HW1 1104   1.517   1.998   4.704  1.3372 -1.0920 -0.9413
   87SOL    HW2 1105   1.512   2.145   4.666  0.9441 -0.9132 -0.2156
   88SOL     OW 1106   8.012   2.463   2.679  0.5244  0.2130  0.3475
   88SOL    HW1 1107   7.924   2.500   2.680 -0.4607 -1.9141  1.6438
   88SOL    HW2 1108   8.059   2.511   2.748 -0.0144  0.5416  0.4912
   89SOL     OW 1109   3.733   7.596   3.224  0.4798 -0.5130 -0.2985
   89SOL    HW1 1110   3.751   7.587   3.130  2.2385  0.6450 -0.1110
   89SOL    HW2 1111   3.814   7.568   3.266 -0.3391 -1.1303  0.9118
   90SOL     OW 1112   2.643   1.019   2.410  0.0090  0.3849  0.4178
   90SOL    HW1 1113   2.574   0.968   2.368  0.2014  0.4727 -0.0105
   90SOL    HW2 1114   2.698   1.048   2.338  2.3370 -2.3394  0.9275
   91SOL     OW 1115   3.857   5.450   1.647 -0.2248  0.1244 -0.2713
   91SOL    HW1 1116   3.946   5.415   1.637 -0.2572 -0.6771  1.9007
   91SOL    HW2 1117   3.804   5.398   1.586  0.5018 -0.5496 -0.3446
   92SOL     OW 1118   4.439   6.923   1.416  0.6812 -0.2304  0.2184
   92SOL    HW1 1119   4.393   6.877   1.347  0.3816  0.4636 -0.0571
   92SOL    HW2 1120   4.473   7.002   1.374  0.3723  0.2749  0.8965
   93SOL     OW 1121   0.810   5.189   3.471  0.3330 -0.4402  0.2613
   93SOL    HW1 1122   0.794   5.153   3.558 -0.3165 -1.2534 -0.1811
   93SOL    HW2 1123   0.723   5.198   3.432  0.3305  2.7800  0.7601
   94SOL     OW 1124   4.096   1.329   1.078 -0.2486  0.6351 -0.6800
   94SOL    HW1 1125   4.048   1.382   1.141  0.5944  2.1953 -1.3122
   94SOL    HW2 1126   4.060   1.241   1.089 -1.8585  1.3646  0.2133
   95SOL     OW 1127   2.978   0.023   2.209 -0.1332 -0.1369  0.0946
   95SOL    HW1 1128   2.969   0.059   2.297 -0.4852  2.0228 -0.7769
   95SOL    HW2 1129   2.917  -0.051   2.207 -3.5550  2.4691  0.3420
   96SOL     OW 1130   5.507   1.308   6.269 -0.0709  0.2259 -0.0809
   96SOL    HW1 1131   5.524   1.336   6.359 -0.1893  0.3290 -0.0918
   96SOL    HW2 1132   5.475   1.218   6.278  1.2601 -0.2821 -0.1062
   97SOL     OW 1133   7.898   0.552   6.377  0.3902  0.3397  0.6056
   97SOL    HW1 1134   7.901   0.583   6.468  0.7243  0.1591  0.6604
   97SOL    HW2 1135   7.924   0.628   6.325  0.8048  0.2743  0.7096
   98SOL     OW 1136   6.482   2.307   7.299 -0.2952  0.2162 -0.4786
   98SOL    HW1 1137   6.504   2.384   7.352 -0.0849 -0.2455  0.1206
   98SOL    HW2 1138   6.434   2.250   7.359 -1.1696  0.2292 -1.1473
   99SOL     OW 1139   7.384   0.974   2.149 -0.7048 -0.0569  0.3901
   99SOL    HW1 1140   7.300   0.943   2.116 -0.1478  0.0771 -1.2629
   99SOL    HW2 1141   7.397   1.058   2.106  1.3153 -1.1351 -1.3383
  100SOL     OW 1142   5.938   2.059   7.142 -0.4041 -0.0677 -0.5501
  100SOL    HW1 1143   6.006   2.028   7.202 -3.0115 -2.4670  1.4681
  100SOL    HW2 1144   5.955   2.012   7.060  1.2450  0.6282 -0.6395
  101SOL     OW 1145   2.777   3.398   5.272 -0.2456 -0.2813 -0.3147
  101SOL    HW1 1146   2.868   3.428   5.264 -0.8645  1.2349 -2.3836
  101SOL    HW2 1147   2.776   3.313   5.229  0.6751 -1.5389  1.9988
  102SOL     OW 1148   4.285   1.115   7.308 -0.8865 -0.2311  0.2297
  102SOL    HW1 1149   4.192   1.129   7.330 -0.8702  1.5830 -0.6035
  102SOL    HW2 1150   4.315   1.051   7.371 -2.4257  0.0151  1.2902
  103SOL     OW 1151   4.228   5.498   3.028  0.4592  0.2107 -0.2169
  103SOL    HW1 1152   4.318   5.468   3.043 -0.6763 -2.5101  1.9466
  103SOL    HW2 1153   4.188   5.500   3.115 -2.7441 -2.9591 -1.3609
  104SOL     OW 1154   4.074   5.996   1.707 -0.0517  0.1659  0.2665
  104SOL    HW1 1155   4.143   6.056   1.735  1.1104 -0.9966  0.0082
  104SOL    HW2 1156   4.065   5.934   1.779 -0.7255  0.2130  0.2301
  105SOL     OW 1157   7.005   5.824   2.254  0.2832  0.1091  0.1343
  105SOL    HW1 1158   6.960   5.842   2.336 -1.0180 -0.0220 -0.5210
  105SOL    HW2 1159   7.088   5.871   2.261 -0.2525  0.9514  1.1029
  106SOL     OW 1160   0.282   4.009   6.257  0.2818 -0.7325 -0.5678
  106SOL    HW1 1161   0.294   3.986   6.165  1.6272 -0.3801 -0.4964
  106SOL    HW2 1162   0.290   4.105   6.258 -1.3732 -0.5706 -0.3046
  107SOL     OW 1163   6.994   6.719   8.110  0.3078  0.0337  0.5285
  107SOL    HW1 1164   6.935   6.645   8.099  0.2270  0.3206 -1.1519
  107SOL    HW2 1165   6.948   6.793   8.070  0.7324  0.8269  1.4587
  108SOL     OW 1166   7.120   1.274   1.812  0.3004 -0.3007 -0.1860
  108SOL    HW1 1167   7.125   1.313   1.899 -1.4866 -0.4853  0.0384
  108SOL    HW2 1168   7.062   1.332   1.763 -1.6686 -2.0766 -0.1204
  109SOL     OW 1169   1.501   0.283   6.450 -0.1494  0.1955 -0.2016
  109SOL    HW1 1170   1.581   0.322   6.415 -0.5803  1.3534  0.0362
  109SOL    HW2 1171   1.434   0.349   6.434 -1.1864 -0.9944 -0.9203
  110SOL     OW 1172   2.664   6.626   3.177  0.0967  0.1262 -0.1466
  110SOL    HW1 1173   2.662   6.595   3.087 -1.6148  0.6275 -0.3259
  110SOL    HW2 1174   2.754   6.656   3.190 -0.1645  2.2961 -2.5080
  111SOL     OW 1175   5.814   0.422   7.913 -0.1829  1.3213  0.2638
  111SOL    HW1 1176   5.892   0.389   7.868 -1.2605 -1.7060  0.3874
  111SOL    HW2 1177   5.828   0.401   8.005 -1.5030 -0.1746  0.1611
  112SOL     OW 1178   4.959   5.432   4.838 -0.4038 -0.2447 -0.1480
  112SOL    HW1 1179   5.015   5.466   4.769 -1.7242  1.4841 -0.4185
  112SOL    HW2 1180   4.896   5.376   4.792 -0.1813 -0.5331 -0.1051
  113SOL     OW 1181   1.050   8.129   4.358  0.4916 -0.1659 -0.2681
  113SOL    HW1 1182   0.962   8.162   4.378  0.4280  0.2400 -1.1759
  113SOL    HW2 1183   1.098   8.137   4.441  0.0826  0.9548 -0.1130
  114SOL     OW 1184   0.800   6.709   0.715  0.8015  0.4063 -0.2304
  114SOL    HW1 1185   0.714   6.719   0.755 -0.3532 -0.5245 -2.2941
  114SOL    HW2 1186   0.810   6.788   0.662  1.9401  1.2339  1.1558
  115SOL     OW 1187   3.516   1.237   0.467  0.2837  0.0241 -0.2918
  115SOL    HW1 1188   3.469   1.218   0.385  0.3449 -0.2967 -0.2543
  115SOL    HW2 1189   3.542   1.329   0.458 -1.2471  0.5387  0.1349
  116SOL     OW 1190   4.722   3.261   4.627 -0.3213  0.4815  0.3461
  116SOL    HW1 1191   4.690   3.276   4.539 -0.4964  0.8024  0.4629
  116SOL    HW2 1192   4.809   3.222   4.615 -0.7760 -0.4490  0.0291
  117SOL     OW 1193   4.931   7.237   0.724  0.4872  0.2285 -0.5488
  117SOL    HW1 1194   4.838   7.247   0.740 -0.2143  0.8620 -4.1984
  117SOL    HW2 1195   4.945   7.142   0.719  0.2644  0.1042  0.9082
  118SOL     OW 1196   7.549   3.636   0.721 -0.0713 -0.6654 -0.2067
  118SOL    HW1 1197   7.596   3.603   0.645  0.3487  1.1796 -0.8016
  118SOL    HW2 1198   7.618   3.667   0.780 -0.4570  0.2076 -0.1967
  119SOL     OW 1199   1.462   2.285   5.747  0.0834 -0.1650 -0.3114
  119SOL    HW1 1200   1.437   2.285   5.840 -0.3612  0.0158 -0.4264
  119SOL    HW2 1201   1.489   2.375   5.730  0.7403 -0.3423 -0.2088
  120SOL     OW 1202   5.143   7.809   4.974  0.1083  0.6118  0.1929
  120SOL    HW1 1203   5.150   7.735   5.034 -1.1187  0.3686  0.0701
  120SOL    HW2 1204   5.060   7.794   4.927  1.6338  0.0571 -2.5315
  121SOL     OW 1205   1.568   0.359   0.515  0.0402 -0.4909  0.2896
  121SOL    HW1 1206   1.610   0.342   0.600 -0.2635  1.2783  0.8425
  121SOL    HW2 1207   1.636   0.342   0.450  0.5770 -0.9166  0.9565
  122SOL     OW 1208   2.270   5.030   2.856 -0.1475 -0.1733  0.4301
  122SOL    HW1 1209   2.175   5.041   2.860 -0.2642 -0.2253 -1.2433
  122SOL    HW2 1210   2.305   5.093   2.918 -1.2757 -0.2708  1.1861
  123SOL     OW 1211   4.951   3.166   3.912 -0.2894 -0.1733  0.3830
  123SOL    HW1 1212   5.006   3.094   3.879  1.1678  1.1738 -0.2354
  123SOL    HW2 1213   4.871   3.161   3.858  1.1468  0.6366 -1.9814
  124SOL     OW 1214   4.812   4.699   3.023  0.2245  0.4205 -0.0242
  124SOL    HW1 1215   4.771   4.694   3.109 -1.5257 -0.0627 -0.8532
  124SOL    HW2 1216   4.899   4.660   3.036  0.4224  1.3098  1.7346
  125SOL     OW 1217   0.974   5.175   6.994 -0.4622 -0.0341 -0.1597
  125SOL    HW1 1218   0.963   5.260   7.037 -0.4682 -0.5895  0.9631
  125SOL    HW2 1219   1.004   5.197   6.905 -1.4964  1.1692 -0.2396
  126SOL     OW 1220   4.387   6.950   3.432 -0.0880  0.2529 -0.4716
  126SOL    HW1 1221   4.467   6.908   3.463 -0.4355 -0.5702 -0.6445
  126SOL    HW2 1222   4.325   6.877   3.421 -0.5037  0.7269 -1.4199
  127SOL     OW 1223   7.419   1.476   1.250  0.1384 -0.0131 -0.2591
  127SOL    HW1 1224   7.444   1.468   1.158  2.1447  0.9418  0.1537
  127SOL    HW2 1225   7.456   1.398   1.292 -2.3666 -1.4461 -0.4903
  128SOL     OW 1226   1.199   4.108   5.276 -0.1273  0.1168 -1.0622
  128SOL    HW1 1227   1.132   4.177   5.282  1.5189  1.7471 -0.5563
  128SOL    HW2 1228   1.172   4.055   5.201 -2.0560  0.6107 -0.7905
  129SOL     OW 1229   1.538   1.789   8.206  0.2421  0.4418  1.1246
  129SOL    HW1 1230   1.469   1.847   8.237 -0.8118 -0.9789  1.5461
  129SOL    HW2 1231   1.493   1.724   8.153  1.4943  0.4451 -0.0028
  130SOL     OW 1232   0.991   2.249   2.056  0.3997  0.1940  0.2881
  130SOL    HW1 1233   1.080   2.254   2.021  0.9094 -0.7371  1.3844
  130SOL    HW2 1234   0.981   2.158   2.083 -0.9329  0.2621  0.0984
  131SOL     OW 1235   3.809   4.820   1.240 -0.1342  0.0666  0.6095
  131SOL    HW1 1236   3.750   4.893   1.256  0.3914  0.0751  2.8123
  131SOL    HW2 1237   3.759   4.760   1.185 -0.4214  2.2054 -1.6205
  132SOL     OW 1238   5.869   0.953   3.605  0.7831 -0.1358  0.4640
  132SOL    HW1 1239   5.819   0.989   3.679 -0.2046 -1.6503  0.5678
  132SOL    HW2 1240   5.911   1.030   3.566 -1.1155  1.1488  0.7580
  133SOL     OW 1241   5.005   3.144   7.244  0.0779 -0.2045 -0.7484
  133SOL    HW1 1242   4.993   3.052   7.220 -0.2191 -0.3857  0.0504
  133SOL    HW2 1243   5.057   3.181   7.173 -1.2606 -0.5487 -1.9501
  134SOL     OW 1244   2.631   1.143   6.568 -0.3884  0.0487  0.4945
  134SOL    HW1 1245   2.560   1.102   6.618 -0.7381 -0.2990 -0.2710
  134SOL    HW2 1246   2.707   1.137   6.626 -0.4211 -1.6955  0.4262
  135SOL     OW 1247   1.844   7.128   6.576  0.5464  0.0447  0.3213
  135SOL    HW1 1248   1.808   7.058   6.631  0.7389  0.4415  0.9722
  135SOL    HW2 1249   1.878   7.191   6.639  1.1996  0.2915 -0.2724
  136SOL     OW 1250   6.101   2.563   6.214  0.0242  0.1206 -0.5602
  136SOL    HW1 1251   6.154   2.623   6.162  0.7371 -0.7845 -0.8920
  136SOL    HW2 1252   6.044   2.620   6.266 -0.0537  1.0622 -1.6440
  137SOL     OW 1253   4.069   3.224   7.171  0.1338 -0.6070 -0.2508
  137SOL    HW1 1254   4.109   3.175   7.098  0.9666  1.9062 -1.6197
  137SOL    HW2 1255   4.137   3.286   7.198 -2.1339  2.7234 -1.5380
  138SOL     OW 1256   4.711   5.860   5.393  0.0093  0.7415 -0.2326
  138SOL    HW1 1257   4.657   5.922   5.442  0.8517  0.1776  1.4870
  138SOL    HW2 1258   4.764   5.817   5.459 -0.0111 -1.3100 -1.4624
  139SOL     OW 1259   2.958   3.936   5.276  0.0141  0.1201 -0.6974
  139SOL    HW1 1260   2.882   3.930   5.333  0.8097 -0.9981  0.2899
  139SOL    HW2 1261   3.023   3.983   5.327  1.3095 -2.3063  0.0673
  140SOL     OW 1262   7.893   1.485   2.897 -0.1745  0.1868  0.2043
  140SOL    HW1 1263   7.902   1.424   2.824 -3.0834 -0.0664 -0.0450
  140SOL    HW2 1264   7.874   1.569   2.856 -2.3894 -0.0715  0.6137
  141SOL     OW 1265   0.473   3.670   3.675  0.0553 -0.0873 -0.0179
  141SOL    HW1 1266   0.518   3.747   3.640  0.2994  0.3154  1.1442
  141SOL    HW2 1267   0.381   3.698   3.682  0.0323 -0.1178 -0.1933
  142SOL     OW 1268   0.851   0.229   1.839 -0.0579  0.2860  0.2627
  142SOL    HW1 1269   0.921   0.170   1.865  0.6420  0.9463 -0.0610
  142SOL    HW2 1270   0.801   0.245   1.919 -0.6845 -1.2814  0.2059
  143SOL     OW 1271   6.548   2.625   0.366  0.3983  0.0342 -0.5849
  143SOL    HW1 1272   6.533   2.573   0.445 -0.0189  0.5089 -0.3485
  143SOL    HW2 1273   6.602   2.698   0.395 -0.6629  0.8069 -0.5075
  144SOL     OW 1274   6.104   3.646   6.639 -0.1369  0.1456  0.1700
  144SOL    HW1 1275   6.177   3.637   6.700 -0.3442 -2.6862  0.1413
  144SOL    HW2 1276   6.145   3.662   6.554  0.5715 -1.9443  0.0610
  145SOL     OW 1277   6.539   3.046   1.059  0.5562  0.6302  0.1432
  145SOL    HW1 1278   6.495   3.131   1.070  1.3896  1.1143 -0.1377
  145SOL    HW2 1279   6.520   3.022   0.968 -0.9615 -0.2493  0.6582
  146SOL     OW 1280   5.964   7.873   4.588 -0.2934  0.5100 -0.1353
  146SOL    HW1 1281   5.919   7.789   4.594  0.0260  0.2125 -1.5755
  146SOL    HW2 1282   6.017   7.867   4.509 -0.4836  2.1720 -0.4362
  147SOL     OW 1283   7.319   6.946   5.043 -0.4302 -0.4088 -0.5706
  147SOL    HW1 1284   7.332   6.909   4.956 -0.7488 -1.8761 -0.0363
  147SOL    HW2 1285   7.381   6.897   5.099 -0.3371  0.3986  0.0547
  148SOL     OW 1286   3.781   5.104   2.605 -0.3050  0.1294 -0.0233
  148SOL    HW1 1287   3.748   5.019   2.634 -0.9512  0.1254 -0.7233
  148SOL    HW2 1288   3.784   5.158   2.685  1.0874 -0.8321  0.6098
  149SOL     OW 1289   1.803   3.711   2.057  0.1052  0.2725  0.1164
  149SOL    HW1 1290   1.819   3.805   2.053 -0.9341  0.4366 -0.3504
  149SOL    HW2 1291   1.876   3.677   2.110  0.6112  1.2977  0.1082
  150SOL     OW 1292   3.240   7.240   6.726 -0.0624  0.3475  0.2191
  150SOL    HW1 1293   3.242   7.163   6.783  0.7397  0.6221  0.5751
  150SOL    HW2 1294   3.194   7.307   6.778 -0.9818  0.0453 -0.1864
  151SOL     OW 1295   0.696   2.223   1.220  0.2842 -0.5060  0.3013
  151SOL    HW1 1296   0.677   2.207   1.313 -1.4179  0.5205  0.1642
  151SOL    HW2 1297   0.612   2.212   1.176  0.3788  2.0172 -0.6840
  152SOL     OW 1298   2.459   4.438   4.225  0.2309 -0.5210  0.1385
  152SOL    HW1 1299   2.510   4.509   4.262 -1.9580  2.3302 -1.8217
  152SOL    HW2 1300   2.510   4.409   4.150  0.8987 -0.6350  0.6335
  153SOL     OW 1301   2.945   0.930   4.496 -0.1705 -0.2767 -0.5897
  153SOL    HW1 1302   2.903   0.861   4.546  1.0556  0.0830  1.0292
  153SOL    HW2 1303   2.890   1.007   4.510 -0.0927 -0.2952 -0.1525
  154SOL     OW 1304   6.229   6.921   4.862  0.4001 -0.3861  0.1001
  154SOL    HW1 1305   6.175   6.848   4.891 -1.1468  1.2495  1.5297
  154SOL    HW2 1306   6.317   6.899   4.892 -0.4257 -0.6481  2.5662
  155SOL     OW 1307   6.792   0.331   2.593 -0.0153  0.1092  0.1554
  155SOL    HW1 1308   6.840   0.249   2.588  0.2720  0.2020  1.2130
  155SOL    HW2 1309   6.707   0.312   2.553  0.6736 -0.2071 -1.2141
  156SOL     OW 1310   4.167   2.683   4.367  0.2702 -0.2219  0.6673
  156SOL    HW1 1311   4.260   2.704   4.376  0.1164 -0.2341  2.6467
  156SOL    HW2 1312   4.146   2.633   4.445 -1.4984  0.0762  0.4192
  157SOL     OW 1313   3.408   1.851   3.978 -0.2450  0.1670 -0.6439
  157SOL    HW1 1314   3.330   1.866   4.032 -1.6193 -1.8030 -1.9571
  157SOL    HW2 1315   3.481   1.862   4.039 -1.7348 -2.3126  1.8246
  158SOL     OW 1316   3.902   4.941   3.943  0.3866 -0.1814  0.0471
  158SOL    HW1 1317   3.933   5.029   3.963  1.1866 -0.5655  0.5071
  158SOL    HW2 1318   3.873   4.906   4.027  1.0870 -0.7569  0.0493
  159SOL     OW 1319   3.664   2.868   3.073  0.3882  0.1383 -0.2043
  159SOL    HW1 1320   3.616   2.845   3.152 -1.0257  2.0389 -0.4414
  159SOL    HW2 1321   3.623   2.816   3.004  0.4251 -0.1802  0.0117
  160SOL     OW 1322   3.667   8.181   1.528 -0.1262 -0.6014 -0.0048
  160SOL    HW1 1323   3.647   8.122   1.455  2.4293 -1.4680 -0.1284
  160SOL    HW2 1324   3.763   8.176   1.537 -0.2515  0.2186  2.7840
  161SOL     OW 1325   3.085   7.858   0.971  0.2887  0.3642 -0.5011
  161SOL    HW1 1326   3.123   7.776   0.941 -1.4942 -0.3923 -0.8453
  161SOL    HW2 1327   3.018   7.832   1.034 -1.4588  1.3717 -1.8224
  162SOL     OW 1328   0.491   0.376   5.497 -0.0710 -0.1271  0.1240
  162SOL    HW1 1329   0.398   0.389   5.480  0.0646 -1.1562 -1.7237
  162SOL    HW2 1330   0.523   0.329   5.420  1.7886 -0.6618  1.1506
  163SOL     OW 1331   6.879   0.206   2.173  0.3368  0.0525  0.3265
  163SOL    HW1 1332   6.880   0.287   2.123 -0.9788  0.7393  1.3627
  163SOL    HW2 1333   6.969   0.173   2.166  0.7481  1.2872 -0.5866
  164SOL     OW 1334   6.642   4.916   6.692  0.3186  0.2300 -0.2098
  164SOL    HW1 1335   6.716   4.864   6.724  0.7084  0.4094 -0.8063
  164SOL    HW2 1336   6.583   4.853   6.651 -0.3480 -0.0542  1.1057
  165SOL     OW 1337   2.014   4.982   4.036 -0.3609  0.0971  0.2075
  165SOL    HW1 1338   2.000   4.912   3.972 -1.8279 -0.0345  0.6496
  165SOL    HW2 1339   1.933   4.986   4.087 -0.1280  1.8046  0.5118
  166SOL     OW 1340   2.853   6.795   8.206 -0.6638  0.1367 -0.3054
  166SOL    HW1 1341   2.774   6.793   8.152  0.1231  0.8046 -1.5242
  166SOL    HW2 1342   2.921   6.830   8.148  0.1380  1.2221  1.2331
  167SOL     OW 1343   3.972   7.357   1.370 -0.5358 -0.1304 -0.1807
  167SOL    HW1 1344   3.905   7.362   1.302 -0.6576 -2.7159 -0.3580
  167SOL    HW2 1345   4.054   7.368   1.323 -0.7222  2.1380 -0.0921
  168SOL     OW 1346   1.184   4.954   6.665 -0.5453 -0.0832 -0.4670
  168SOL    HW1 1347   1.208   4.936   6.574 -2.5388  1.0870 -1.2885
  168SOL    HW2 1348   1.237   5.031   6.689 -0.3107 -0.1486 -0.7688
  169SOL     OW 1349   0.818   3.151   1.824 -0.1290  0.0256  0.4444
  169SOL    HW1 1350   0.726   3.135   1.800 -0.3490  1.6011  0.1662
  169SOL    HW2 1351   0.826   3.113   1.912 -0.5224 -1.7693 -0.2384
  170SOL     OW 1352   4.760   0.050   1.537  0.4293  0.5265 -0.2544
  170SOL    HW1 1353   4.735   0.082   1.450 -1.5052  0.6884  0.3012
  170SOL    HW2 1354   4.776  -0.043   1.525 -0.6371  0.3823 -0.6566
  171SOL     OW 1355   5.834   7.616   3.474 -0.4223  0.0421 -0.1723
  171SOL    HW1 1356   5.901   7.564   3.430 -0.0467  1.1957 -1.0078
  171SOL    HW2 1357   5.787   7.553   3.529  0.9866 -0.8807  0.0203
  172SOL     OW 1358   5.546   7.417   1.272  0.0379  0.1545 -0.5509
  172SOL    HW1 1359   5.560   7.334   1.227  0.5828  0.2022 -0.4774
  172SOL    HW2 1360   5.536   7.393   1.364  1.9804  0.2987 -0.2614
  173SOL     OW 1361   4.881   3.554   0.669 -0.5078 -0.2873  0.7925
  173SOL    HW1 1362   4.971   3.550   0.638 -0.6322 -1.0258  0.4875
  173SOL    HW2 1363   4.874   3.483   0.733 -1.3892 -1.6148 -0.6825
  174SOL     OW 1364   6.935   4.940   7.582 -0.6741  0.2000  0.0649
  174SOL    HW1 1365   7.028   4.961   7.565 -0.9248  0.1463 -1.5771
  174SOL    HW2 1366   6.908   5.005   7.647  0.2168  0.9746 -0.3052
  175SOL     OW 1367   4.705   5.671   5.862 -0.2658  0.3703 -0.7284
  175SOL    HW1 1368   4.694   5.597   5.802 -2.6886 -0.0396  0.1189
  175SOL    HW2 1369   4.637   5.733   5.835 -0.3184  0.8902  0.5584
  176SOL     OW 1370   4.380   3.431   4.011  0.3783  0.1253  0.2597
  176SOL    HW1 1371   4.363   3.496   4.079  0.0734 -0.9421  1.2354
  176SOL    HW2 1372   4.299   3.381   4.004 -0.5970  1.9313 -2.8915
  177SOL     OW 1373   2.853   6.228   3.172 -0.0932 -0.4002 -0.5709
  177SOL    HW1 1374   2.770   6.185   3.190 -0.3734 -0.5171 -1.9944
  177SOL    HW2 1375   2.902   6.223   3.254 -1.6126 -0.0414  0.3908
  178SOL     OW 1376   4.607   2.010   6.251 -0.5047  0.2998  0.1339
  178SOL    HW1 1377   4.541   2.048   6.193  0.5732  1.7809 -0.1639
  178SOL    HW2 1378   4.595   2.056   6.334 -0.7702 -0.4549  0.5268
  179SOL     OW 1379   4.594   5.021   1.706  0.2874  0.2680  0.3662
  179SOL    HW1 1380   4.550   5.086   1.651  0.4430 -0.8666 -1.1662
  179SOL    HW2 1381   4.686   5.045   1.703  0.7578 -1.4514 -2.4184
  180SOL     OW 1382   1.663   5.711   5.193 -0.3854  0.2673 -0.2560
  180SOL    HW1 1383   1.629   5.660   5.267 -0.4968 -0.0691 -0.5374
  180SOL    HW2 1384   1.750   5.740   5.222  0.4185 -1.5335 -0.7390
  181SOL     OW 1385   1.923   4.133   5.237 -0.1685 -0.2473 -0.1706
  181SOL    HW1 1386   1.968   4.121   5.154  2.7732  0.0165  1.2552
  181SOL    HW2 1387   1.947   4.221   5.266 -3.8509  1.0359 -0.4566
  182SOL     OW 1388   7.936   0.188   2.970 -0.0254  0.0627 -0.2268
  182SOL    HW1 1389   7.966   0.126   2.904 -1.3141 -1.8080  0.8760
  182SOL    HW2 1390   8.017   0.225   3.006  0.7393 -0.3068 -1.4915
  183SOL     OW 1391   5.389   2.000   1.414  0.2827 -0.0574 -0.1975
  183SOL    HW1 1392   5.379   1.979   1.507 -2.3017  1.1691 -0.1090
  183SOL    HW2 1393   5.410   1.916   1.373 -3.5230 -1.8223  0.9215
  184SOL     OW 1394   0.548   4.462   4.547  1.0639  0.4503  0.0367
  184SOL    HW1 1395   0.601   4.398   4.499  0.7992 -0.3328  0.7481
  184SOL    HW2 1396   0.539   4.536   4.488  0.8809 -0.4156 -1.0454
  185SOL     OW 1397   0.557   5.390   2.989  0.1483  0.0936 -0.1773
  185SOL    HW1 1398   0.511   5.466   3.026 -0.3709  0.0032 -0.6267
  185SOL    HW2 1399   0.615   5.428   2.923 -1.0412  0.0051 -1.3138
  186SOL     OW 1400   5.853   3.167   5.746 -0.2412 -0.4320  0.4936
  186SOL    HW1 1401   5.839   3.072   5.756  0.4135 -0.5568  0.3025
  186SOL    HW2 1402   5.807   3.189   5.665  2.1146 -1.2051 -1.1852
  187SOL     OW 1403   0.669   1.520   5.487  0.2745 -0.1853 -0.2393
  187SOL    HW1 1404   0.629   1.601   5.457  1.8507  0.2833 -1.1852
  187SOL    HW2 1405   0.615   1.451   5.448 -1.3251  0.3447  0.8987
  188SOL     OW 1406   4.261   1.930   2.304  0.3719 -0.0341 -0.3224
  188SOL    HW1 1407   4.355   1.947   2.301  0.3643 -0.1002 -1.7989
  188SOL    HW2 1408   4.255   1.834   2.298  0.2282 -0.1419  1.1800
  189SOL     OW 1409   4.685   4.422   8.210 -0.5138 -0.3158  0.1623
  189SOL    HW1 1410   4.744   4.464   8.273 -0.2597  0.9091 -0.8478
  189SOL    HW2 1411   4.724   4.337   8.193  1.1212  0.5576 -0.6519
  190SOL     OW 1412   8.204   2.793   7.737 -0.3614  0.0845  0.1114
  190SOL    HW1 1413   8.256   2.764   7.812  1.0370  0.9225 -0.4975
  190SOL    HW2 1414   8.190   2.887   7.753 -2.1874 -0.2279  0.5303
  191SOL     OW 1415   7.160   7.237   2.639  0.4756 -0.1436  0.3420
  191SOL    HW1 1416   7.176   7.144   2.648 -0.4204 -0.4862 -1.2263
  191SOL    HW2 1417   7.068   7.248   2.662  0.4796  0.2878  0.1695
  192SOL     OW 1418   0.913   2.241   4.201  0.6435 -0.2976 -0.3584
  192SOL    HW1 1419   0.916   2.193   4.284  0.6949  0.2020 -0.0686
  192SOL    HW2 1420   0.940   2.330   4.224 -0.9168  0.2735 -0.6102
  193SOL     OW 1421   6.941   4.361   3.618  0.2453  0.2665 -0.1958
  193SOL    HW1 1422   6.943   4.446   3.574  1.4758 -0.0014 -0.7031
  193SOL    HW2 1423   6.912   4.382   3.707 -1.8887  0.8582 -0.9734
  194SOL     OW 1424   6.321   3.764   5.779 -0.3402 -0.0028 -0.0811
  194SOL    HW1 1425   6.288   3.831   5.720  1.8625  2.3840  1.1720
  194SOL    HW2 1426   6.247   3.743   5.836 -1.4843  0.2043 -1.4347
  195SOL     OW 1427   6.194   6.680   2.595 -0.1682  0.3912  0.0758
  195SOL    HW1 1428   6.162   6.692   2.684 -0.1849  1.2527 -0.0368
  195SOL    HW2 1429   6.211   6.769   2.563 -0.3942  0.1100 -0.8616
  196SOL     OW 1430   3.965   1.846   3.030 -0.3408 -0.1679  0.3197
  196SOL    HW1 1431   4.008   1.799   3.101  0.7208  2.1761  1.3327
  196SOL    HW2 1432   3.976   1.938   3.052 -0.7567  0.6392 -2.4319
  197SOL     OW 1433   6.852   2.564   0.152  0.2238 -0.3369 -0.4007
  197SOL    HW1 1434   6.795   2.488   0.147 -1.4613  0.8906 -0.9945
  197SOL    HW2 1435   6.905   2.561   0.073 -0.3824 -0.4935 -0.8053
  198SOL     OW 1436   3.554   2.344   5.116  0.6406 -0.2476  0.3659
  198SOL    HW1 1437   3.483   2.302   5.164 -0.2521 -0.5528 -1.1455
  198SOL    HW2 1438   3.607   2.387   5.184 -1.0918  0.1620  1.5323
  199SOL     OW 1439   2.279   3.127   4.486  0.5078 -0.5261  0.0583
  199SOL    HW1 1440   2.193   3.120   4.528  0.7756 -2.3702  0.4058
  199SOL    HW2 1441   2.326   3.049   4.515  1.4203 -0.8658 -2.1059
  200SOL     OW 1442   5.158   0.911   2.025 -0.0078  0.0823  0.1473
  200SOL    HW1 1443   5.138   0.929   2.117 -0.3924  2.3202 -0.3263
  200SOL    HW2 1444   5.226   0.844   2.028  0.5992  0.7267  2.0948
  201SOL     OW 1445   5.131   2.909   2.007 -0.5378 -0.0309  0.0656
  201SOL    HW1 1446   5.154   2.834   1.952 -1.5939 -0.4098  0.1197
  201SOL    HW2 1447   5.036   2.914   2.002 -0.4312  1.9436 -0.7644
  202SOL     OW 1448   2.273   8.088   6.972  0.0757  0.2419 -0.3102
  202SOL    HW1 1449   2.197   8.116   6.921 -0.9435  1.0101  1.5262
  202SOL    HW2 1450   2.242   8.013   7.022  1.3516 -1.1399 -1.4876
  203SOL     OW 1451   2.989   5.314   2.260 -0.0332 -0.1513 -0.1960
  203SOL    HW1 1452   3.061   5.329   2.199  0.3706 -0.1339  0.2826
  203SOL    HW2 1453   2.938   5.395   2.258 -0.3634 -0.3609 -0.9515
  204SOL     OW 1454   7.961   5.848   1.021  0.1844 -0.4275 -0.2793
  204SOL    HW1 1455   7.913   5.775   1.060  1.0491 -0.9418 -0.1631
  204SOL    HW2 1456   8.053   5.822   1.025  0.4936  0.5930 -0.3951
  205SOL     OW 1457   1.169   1.791   6.887  0.0556 -0.0354  0.4258
  205SOL    HW1 1458   1.185   1.831   6.801 -0.2973  2.9740  1.6376
  205SOL    HW2 1459   1.221   1.844   6.948 -0.0625 -1.8039  2.1419
  206SOL     OW 1460   8.061   5.285   2.430 -0.0190 -0.0590 -0.4203
  206SOL    HW1 1461   8.065   5.249   2.518 -1.3070 -2.0336 -1.1114
  206SOL    HW2 1462   7.975   5.259   2.397 -0.4999  2.5471 -1.4915
  207SOL     OW 1463   5.253   4.055   6.278 -0.1387 -0.0511  0.1409
  207SOL    HW1 1464   5.332   4.048   6.333 -1.0261 -0.2316  1.4366
  207SOL    HW2 1465   5.230   3.964   6.259  0.6377  0.0256 -1.2701
  208SOL     OW 1466   1.252   7.735   5.209  0.6754  0.2685 -0.2024
  208SOL    HW1 1467   1.296   7.763   5.129  0.0731  2.1440  0.0772
  208SOL    HW2 1468   1.323   7.709   5.268  1.1927  0.0661 -0.9040
  209SOL     OW 1469   1.005   0.148   5.754 -0.3513 -0.3141 -0.4516
  209SOL    HW1 1470   0.915   0.122   5.769 -0.6802  1.1775  0.2995
  209SOL    HW2 1471   1.002   0.201   5.674 -0.1969  0.0502 -0.2159
  210SOL     OW 1472   2.751   0.814   5.716  0.4584  0.1477  0.1082
  210SOL    HW1 1473   2.752   0.778   5.627  2.0730 -0.0422  0.1915
  210SOL    HW2 1474   2.665   0.788   5.750  0.5579 -1.4094 -0.7285
  211SOL     OW 1475   1.200   4.108   1.505 -0.0808  0.1831  0.2620
  211SOL    HW1 1476   1.146   4.029   1.496 -0.0033  0.2080 -0.4611
  211SOL    HW2 1477   1.245   4.116   1.421  0.4259  0.6244  0.5688
  212SOL     OW 1478   5.494   5.416   7.849 -0.2586 -0.0591 -0.2978
  212SOL    HW1 1479   5.473   5.426   7.757 -1.3804 -1.3869 -0.2197
  212SOL    HW2 1480   5.583   5.383   7.850 -0.4990 -0.7495 -0.9461
  213SOL     OW 1481   5.212   1.183   1.470 -0.0959  0.2849  0.4847
  213SOL    HW1 1482   5.193   1.115   1.535 -2.4520  1.2520  0.9355
  213SOL    HW2 1483   5.126   1.220   1.449  0.2310 -1.0812 -4.5069
  214SOL     OW 1484   3.634   3.557   7.638  0.1108 -0.3308 -0.3122
  214SOL    HW1 1485   3.654   3.640   7.681 -1.4539  0.7579 -1.5565
  214SOL    HW2 1486   3.687   3.558   7.558 -0.6067 -0.0914 -0.7895
  215SOL     OW 1487   1.319   3.035   6.853 -0.3224 -0.1504 -0.7813
  215SOL    HW1 1488   1.248   2.982   6.890  0.6612 -1.2516 -0.4352
  215SOL    HW2 1489   1.399   2.990   6.879  0.5858  1.7941 -0.0263
  216SOL     OW 1490   3.793   7.794   3.574 -0.5954  0.6197 -0.4969
  216SOL    HW1 1491   3.760   7.853   3.506 -0.5714  1.2967  0.0598
  216SOL    HW2 1492   3.882   7.773   3.547 -1.3307 -0.9154 -1.8169
  217SOL     OW 1493   1.785   0.175   3.959  0.0652  0.1138  0.2710
  217SOL    HW1 1494   1.717   0.149   4.021 -0.5637 -1.6126 -1.0497
  217SOL    HW2 1495   1.768   0.268   3.941 -1.4489 -0.0792  0.5875
  218SOL     OW 1496   2.805   1.314   0.699 -0.3902 -0.2400 -0.1586
  218SOL    HW1 1497   2.895   1.334   0.672  0.1141 -1.2214  0.7215
  218SOL    HW2 1498   2.801   1.218   0.699 -0.7917 -0.2487  1.8354
  219SOL     OW 1499   2.382   1.723   5.297  0.1041  0.0916  0.3768
  219SOL    HW1 1500   2.344   1.636   5.294  0.5002 -0.0923  0.5392
  219SOL    HW2 1501   2.311   1.782   5.272  0.2427 -0.4017 -1.3097
  220SOL     OW 1502   1.664   6.052   4.106  0.4698 -0.1005 -0.5290
  220SOL    HW1 1503   1.590   6.010   4.063 -1.2318  3.0616 -1.0400
  220SOL    HW2 1504   1.659   6.023   4.197 -0.1059 -1.5339 -0.9979
  221SOL     OW 1505   3.722   5.722   4.131 -0.7755  0.7812  0.8477
  221SOL    HW1 1506   3.759   5.810   4.125  0.6329  0.5831  4.3058
  221SOL    HW2 1507   3.797   5.663   4.121 -1.2070  0.1040  1.4539
  222SOL     OW 1508   3.889   4.594   1.548  0.6916 -0.0452 -0.5948
  222SOL    HW1 1509   3.883   4.522   1.485  0.5021  1.4084 -2.2990
  222SOL    HW2 1510   3.950   4.562   1.614  0.1386 -2.0016 -0.9639
  223SOL     OW 1511   2.498   6.975   2.051 -0.7789  0.2295  0.7073
  223SOL    HW1 1512   2.503   6.881   2.035 -0.9361  0.2410  0.5846
  223SOL    HW2 1513   2.415   7.002   2.011  0.7711  1.0314 -2.2618
  224SOL     OW 1514   6.290   4.454   7.984  0.1105 -0.6224 -0.7742
  224SOL    HW1 1515   6.373   4.494   7.956 -1.4884  1.4475 -2.9955
  224SOL    HW2 1516   6.308   4.423   8.073  2.4904  2.2996 -0.0334
  225SOL     OW 1517   4.526   5.010   2.653 -0.9648  0.5722 -0.7734
  225SOL    HW1 1518   4.613   5.049   2.664 -0.5017 -0.6291 -0.0414
  225SOL    HW2 1519   4.469   5.066   2.706  0.1374 -1.1893  2.5833
  226SOL     OW 1520   3.390   6.437   0.331 -0.2797 -0.1207  0.3283
  226SOL    HW1 1521   3.343   6.431   0.414 -2.1527 -0.2448 -0.6816
  226SOL    HW2 1522   3.325   6.470   0.269  1.0767  0.0143 -1.0911
  227SOL     OW 1523   4.818   6.759   0.930  0.2193  0.0364  0.1346
  227SOL    HW1 1524   4.777   6.674   0.941  0.9626 -0.2724  0.6372
  227SOL    HW2 1525   4.876   6.749   0.854  1.3423 -0.3405  1.0094
  228SOL     OW 1526   2.751   4.826   3.742  0.8453  0.7036 -0.6826
  228SOL    HW1 1527   2.837   4.832   3.784  0.6183  1.0532 -0.2588
  228SOL    HW2 1528   2.714   4.914   3.751 -0.1393  0.2146  0.3919
  229SOL     OW 1529   6.381   3.580   3.167  0.3735  0.0221  0.3364
  229SOL    HW1 1530   6.355   3.601   3.256 -1.0190  0.2922 -0.1024
  229SOL    HW2 1531   6.320   3.512   3.139 -1.0759  1.8603 -1.3077
  230SOL     OW 1532   3.804   2.020   3.869  0.0125  0.7077 -0.1001
  230SOL    HW1 1533   3.796   1.944   3.927  0.4460 -0.2956 -1.3050
  230SOL    HW2 1534   3.727   2.015   3.812  0.8004  0.3056 -1.1530
  231SOL     OW 1535   7.917   6.128   0.070  0.3716 -0.3145  0.0679
  231SOL    HW1 1536   7.983   6.135   0.138 -0.1028  0.4146  0.4737
  231SOL    HW2 1537   7.835   6.151   0.114 -0.0470 -0.5485 -0.5775
  232SOL     OW 1538   5.002   4.025   1.076  0.3300  0.0605  0.2875
  232SOL    HW1 1539   5.024   3.933   1.058  1.5738 -0.0354  2.0605
  232SOL    HW2 1540   5.004   4.032   1.172  0.5799  2.0283  0.1734
  233SOL     OW 1541   3.682   1.060   2.055  0.4136  0.9945 -0.1083
  233SOL    HW1 1542   3.777   1.066   2.049  0.5446 -0.0287  0.5912
  233SOL    HW2 1543   3.650   1.106   1.978  1.5615 -0.6752 -1.6736
  234SOL     OW 1544   5.032   0.625   7.837  0.1452 -0.2693  0.2882
  234SOL    HW1 1545   5.008   0.648   7.927  0.7334  0.4594  0.2664
  234SOL    HW2 1546   5.092   0.552   7.846  1.5812  0.8909  0.6127
  235SOL     OW 1547   0.363   6.011   6.280  0.3977 -0.0047  0.3033
  235SOL    HW1 1548   0.415   5.944   6.236  2.4026  1.6670 -0.0496
  235SOL    HW2 1549   0.282   5.967   6.304  0.7390 -1.9525 -1.8159
  236SOL     OW 1550   8.090   3.017   8.053 -0.1675 -0.0943 -0.4912
  236SOL    HW1 1551   8.014   2.963   8.031 -0.2598  0.1505 -0.7863
  236SOL    HW2 1552   8.115   3.057   7.969  0.2329 -0.1069 -0.3764
  237SOL     OW 1553   5.693   1.050   5.621 -0.2092 -0.1047 -0.9434
  237SOL    HW1 1554   5.604   1.026   5.596 -0.7125  1.6963 -1.0359
  237SOL    HW2 1555   5.731   1.087   5.541  0.1955  0.2438 -0.5951
  238SOL     OW 1556   1.898   5.444   1.485 -0.1841  0.0056  0.4337
  238SOL    HW1 1557   1.869   5.457   1.575 -1.7703  0.1251 -0.0547
  238SOL    HW2 1558   1.817   5.431   1.435  0.6585 -0.1822 -0.9568
  239SOL     OW 1559   3.290   7.149   1.845 -0.0306 -0.4187  0.5655
  239SOL    HW1 1560   3.342   7.200   1.907  0.5930 -0.0468 -0.2463
  239SOL    HW2 1561   3.280   7.206   1.769  1.2270 -1.7097 -0.6226
  240SOL     OW 1562   6.051   6.200   3.289  0.2284  0.5073 -0.3790
  240SOL    HW1 1563   6.071   6.164   3.203 -2.8970  0.9352 -1.4177
  240SOL    HW2 1564   6.011   6.285   3.271 -1.4316  0.1773  1.3651
  241SOL     OW 1565   3.012   0.973   5.056 -0.1410 -0.4142 -0.2370
  241SOL    HW1 1566   2.986   1.064   5.043 -2.2824 -0.3913  2.9669
  241SOL    HW2 1567   2.929   0.925   5.053  0.5666 -1.7923  1.0805
  242SOL     OW 1568   5.145   7.297   3.973  0.4500  0.3764  0.2584
  242SOL    HW1 1569   5.163   7.365   3.908 -0.1223 -0.7746 -1.1875
  242SOL    HW2 1570   5.231   7.263   3.997  0.6504  0.5203 -0.2432
  243SOL     OW 1571   1.454   7.644   6.280 -0.0459 -0.3375  0.0053
  243SOL    HW1 1572   1.378   7.587   6.282  0.5655 -1.1922 -0.3963
  243SOL    HW2 1573   1.423   7.727   6.317 -0.6176 -1.3268  1.8533
  244SOL     OW 1574   6.143   6.677   1.798  0.3196 -0.2263  0.4694
  244SOL    HW1 1575   6.064   6.728   1.813 -1.5280 -3.1514  1.7471
  244SOL    HW2 1576   6.131   6.598   1.851  2.7393 -2.1667 -1.5615
  245SOL     OW 1577   7.339   4.998   5.781 -0.1171  0.6676  0.0753
  245SOL    HW1 1578   7.321   4.905   5.790 -2.2793  1.2217  2.5311
  245SOL    HW2 1579   7.412   5.014   5.840  2.2300  0.1751 -2.4566
  246SOL     OW 1580   7.739   5.883   5.398 -0.2100 -0.1516 -0.6251
  246SOL    HW1 1581   7.696   5.803   5.368  1.7835 -1.0398 -1.2836
  246SOL    HW2 1582   7.762   5.865   5.489  1.0427 -0.7259 -1.0339
  247SOL     OW 1583   1.708   0.810   8.096  0.1197 -0.6483  0.0139
  247SOL    HW1 1584   1.634   0.775   8.045 -0.0963  1.7211 -1.4129
  247SOL    HW2 1585   1.775   0.829   8.031  1.2051 -0.8056  1.0686
  248SOL     OW 1586   7.572   5.287   3.329 -0.0297 -0.0261  0.3016
  248SOL    HW1 1587   7.576   5.213   3.269  1.3704  1.9376 -2.2324
  248SOL    HW2 1588   7.510   5.348   3.287 -0.8548  0.4518  2.1116
  249SOL     OW 1589   2.516   1.645   0.889 -0.0582 -0.0916 -0.0218
  249SOL    HW1 1590   2.422   1.660   0.877 -0.0566  1.4660  1.4937
  249SOL    HW2 1591   2.522   1.575   0.954 -0.1757  0.1900  0.2914
  250SOL     OW 1592   5.296   4.471   7.845  0.5741 -0.3382 -0.0183
  250SOL    HW1 1593   5.376   4.436   7.805  0.9899 -0.9543  1.2810
  250SOL    HW2 1594   5.288   4.423   7.927 -0.5331  0.5089  0.3930
  251SOL     OW 1595   7.960   3.898   5.471 -0.0011  0.3850  0.3577
  251SOL    HW1 1596   7.920   3.872   5.555 -1.6015 -0.0677 -0.4902
  251SOL    HW2 1597   7.885   3.911   5.413  1.1055 -0.1640 -1.2506
  252SOL     OW 1598   5.905   6.712   7.790  0.0114 -0.1179 -0.4750
  252SOL    HW1 1599   5.958   6.672   7.859  0.2118 -1.0418 -1.1451
  252SOL    HW2 1600   5.834   6.650   7.776 -0.9908  0.8751  0.0679
  253SOL     OW 1601   3.968   6.005   6.059 -0.1258 -0.5086  0.2292
  253SOL    HW1 1602   3.889   6.004   6.114 -0.9891  0.5659 -0.9145
  253SOL    HW2 1603   3.974   6.095   6.028  0.3360 -1.0685 -1.4147
  254SOL     OW 1604   3.543   7.534   8.038  0.0625  0.5027 -0.4195
  254SOL    HW1 1605   3.537   7.440   8.022 -0.6598  0.4963 -0.1221
  254SOL    HW2 1606   3.480   7.573   7.977  0.5694  0.8224 -0.7484
  255SOL     OW 1607   0.223   7.592   2.070  0.1266  0.1305 -0.5501
  255SOL    HW1 1608   0.206   7.533   1.997  0.4960  0.8443 -1.2359
  255SOL    HW2 1609   0.299   7.555   2.114  0.3391  0.0751 -0.9587
  256SOL     OW 1610   1.285   6.575   7.108  0.9508  0.1257  0.3203
  256SOL    HW1 1611   1.263   6.610   7.195  1.9221 -0.3348  0.7653
  256SOL    HW2 1612   1.360   6.518   7.124  0.1569 -1.2173 -0.5749
  257SOL     OW 1613   7.139   4.882   4.963  0.6151  0.1695  0.0887
  257SOL    HW1 1614   7.233   4.899   4.964  0.3634  2.4585 -2.4817
  257SOL    HW2 1615   7.102   4.950   5.020  0.4625 -0.2679  0.5126
  258SOL     OW 1616   5.063   3.523   7.346  1.1292 -0.1089 -0.0154
  258SOL    HW1 1617   5.153   3.544   7.372  1.1975  0.2435 -0.5041
  258SOL    HW2 1618   5.071   3.492   7.255  0.9541 -1.7185  0.4906
  259SOL     OW 1619   5.655   0.491   3.924  0.3983 -0.0127 -0.0653
  259SOL    HW1 1620   5.583   0.485   3.862 -1.1293  0.4259  1.5674
  259SOL    HW2 1621   5.730   0.520   3.872 -1.1326  1.6130 -1.4728
  260SOL     OW 1622   0.144   5.794   3.240  0.1397  0.7341 -0.2981
  260SOL    HW1 1623   0.065   5.832   3.280  0.0009  1.6191 -1.3606
  260SOL    HW2 1624   0.190   5.869   3.204  0.5387  0.0242 -1.2969
  261SOL     OW 1625   7.932   7.516   1.880  0.2530  0.1594  0.0399
  261SOL    HW1 1626   7.993   7.549   1.814 -0.4342 -0.2908 -0.8372
  261SOL    HW2 1627   7.849   7.560   1.861 -0.3770 -1.1623 -0.4324
  262SOL     OW 1628   4.834   6.040   2.676 -0.1595  0.6870 -0.1195
  262SOL    HW1 1629   4.738   6.033   2.670 -0.2276  1.5712 -0.2415
  262SOL    HW2 1630   4.851   6.058   2.769 -0.0237 -0.5373  0.1063
  263SOL     OW 1631   7.068   1.649   0.865  0.1342 -0.4900 -0.0692
  263SOL    HW1 1632   6.976   1.634   0.841  0.4253  0.0253 -1.6019
  263SOL    HW2 1633   7.097   1.566   0.903 -0.9118 -0.7211  0.2588
  264SOL     OW 1634   4.514   2.425   0.275 -0.0990 -0.8164  0.2138
  264SOL    HW1 1635   4.442   2.487   0.291  0.1702 -0.4069 -0.1577
  264SOL    HW2 1636   4.471   2.339   0.273 -0.9073 -0.4174 -2.0342
  265SOL     OW 1637   4.715   1.779   0.153  0.6108 -0.3078  0.0076
  265SOL    HW1 1638   4.661   1.761   0.077 -0.1351 -1.8348  0.8562
  265SOL    HW2 1639   4.738   1.872   0.145 -3.3741  0.8981  0.3728
  266SOL     OW 1640   4.914   3.003   7.648  0.5284  0.2049  0.6844
  266SOL    HW1 1641   4.976   3.057   7.599  0.1468  0.8871  0.9505
  266SOL    HW2 1642   4.842   2.988   7.587  0.3608  0.4901  0.8151
  267SOL     OW 1643   7.181   2.963   6.101 -0.2170 -0.3872 -0.0888
  267SOL    HW1 1644   7.247   2.976   6.169 -1.9540  0.8853  1.4635
  267SOL    HW2 1645   7.195   2.873   6.070  0.8040 -0.9175  1.7655
  268SOL     OW 1646   1.007   0.295   3.909 -0.2766 -0.3990  0.0952
  268SOL    HW1 1647   0.934   0.278   3.968 -0.6389  0.3403 -0.1160
  268SOL    HW2 1648   0.977   0.264   3.824 -0.2972 -0.2171  0.0346
  269SOL     OW 1649   7.122   2.000   5.150 -0.2799 -0.2158 -0.6597
  269SOL    HW1 1650   7.118   1.914   5.193  1.0036  0.0463  0.0590
  269SOL    HW2 1651   7.038   2.040   5.170 -0.7949 -1.1932 -0.7722
  270SOL     OW 1652   0.720   7.665   4.275  0.0595 -0.0749 -0.2012
  270SOL    HW1 1653   0.633   7.663   4.236 -0.9443  0.6352  1.8413
  270SOL    HW2 1654   0.742   7.573   4.290  0.4982 -0.3753 -2.3239
  271SOL     OW 1655   3.981   0.206   5.554 -0.5715 -0.6678 -0.7681
  271SOL    HW1 1656   3.953   0.288   5.596 -0.6054 -1.6618  1.2637
  271SOL    HW2 1657   4.071   0.223   5.526 -0.1705 -0.2610  0.6773
  272SOL     OW 1658   5.364   6.687   5.259  0.5022  1.4730  0.4738
  272SOL    HW1 1659   5.359   6.615   5.321  1.4112  1.0149  0.0248
  272SOL    HW2 1660   5.309   6.660   5.185  2.8532  0.0419 -0.8571
  273SOL     OW 1661   0.271   0.100   2.521  1.1735 -0.1014 -0.4890
  273SOL    HW1 1662   0.326   0.154   2.578 -1.0430  1.4793  0.2822
  273SOL    HW2 1663   0.330   0.071   2.452  2.7658  2.3206 -0.2708
  274SOL     OW 1664   0.276   5.011   1.152  0.2939 -0.0779 -0.2489
  274SOL    HW1 1665   0.337   5.084   1.160 -0.4971  0.5396  0.3582
  274SOL    HW2 1666   0.212   5.041   1.087  0.3041 -0.4790 -0.4454
  275SOL     OW 1667   7.505   6.235   2.084 -0.2872 -0.2379  0.9354
  275SOL    HW1 1668   7.421   6.209   2.121 -0.6622  0.5759  0.6717
  275SOL    HW2 1669   7.496   6.222   1.990 -0.7618  1.5627  0.7092
  276SOL     OW 1670   7.372   3.178   2.741  0.2750  1.0382 -0.0812
  276SOL    HW1 1671   7.376   3.084   2.722  0.9403  0.8852  0.7458
  276SOL    HW2 1672   7.296   3.188   2.798 -0.5847  1.2135 -1.2268
  277SOL     OW 1673   6.224   6.484   0.626 -0.3139  0.2646 -0.2298
  277SOL    HW1 1674   6.131   6.486   0.648 -0.3172 -1.5881  0.0665
  277SOL    HW2 1675   6.255   6.399   0.658  1.1429  0.1957 -1.6752
  278SOL     OW 1676   7.005   5.283   0.684  0.0186 -0.5831 -0.8926
  278SOL    HW1 1677   7.076   5.223   0.658  1.0253  1.1334 -2.3244
  278SOL    HW2 1678   6.929   5.254   0.633  0.0800 -1.5013 -0.4862
  279SOL     OW 1679   4.846   3.784   0.831  0.2698  0.3769  0.0225
  279SOL    HW1 1680   4.923   3.785   0.887  0.4601  0.7539 -0.2419
  279SOL    HW2 1681   4.857   3.707   0.775  0.3542  0.3163  0.1242
  280SOL     OW 1682   3.996   1.120   5.494  0.1915  0.4422  0.2244
  280SOL    HW1 1683   3.945   1.044   5.519 -1.9847  2.1843  1.4677
  280SOL    HW2 1684   3.943   1.164   5.428  2.2275  0.0582 -1.7991
  281SOL     OW 1685   1.377   0.965   1.805 -0.4321  0.4368  0.1873
  281SOL    HW1 1686   1.360   1.014   1.885 -1.6198  0.1389  0.1414
  281SOL    HW2 1687   1.290   0.948   1.768  0.1083  0.9868 -1.4247
  282SOL     OW 1688   2.123   6.823   1.240  0.8930 -0.3201  0.0775
  282SOL    HW1 1689   2.124   6.788   1.151 -0.6127 -0.1387 -0.0261
  282SOL    HW2 1690   2.082   6.909   1.232  0.9618 -0.1990  0.9151
  283SOL     OW 1691   4.014   2.582   0.566  0.4793 -0.5982 -0.0909
  283SOL    HW1 1692   3.960   2.644   0.518  0.6605 -0.2955  0.0962
  283SOL    HW2 1693   4.081   2.555   0.502  0.1311 -0.9489 -0.3123
  284SOL     OW 1694   5.639   7.035   2.742  0.2305  0.3159  0.3513
  284SOL    HW1 1695   5.663   7.122   2.708  0.9535  0.2466  0.6676
  284SOL    HW2 1696   5.693   6.974   2.691  0.4166  0.1236  0.7765
  285SOL     OW 1697   4.518   1.840   7.780  0.3591 -0.4178 -0.6190
  285SOL    HW1 1698   4.424   1.821   7.775  0.3692 -0.3885 -0.9585
  285SOL    HW2 1699   4.560   1.753   7.777  0.3686 -0.3996 -1.2244
  286SOL     OW 1700   7.682   2.366   1.486  0.0652  0.1150  0.1194
  286SOL    HW1 1701   7.751   2.302   1.473  0.6568  1.0845 -1.9894
  286SOL    HW2 1702   7.726   2.451   1.479 -1.2263  0.7529 -0.8409
  287SOL     OW 1703   2.061   5.428   6.899 -0.1706 -0.3844  0.3816
  287SOL    HW1 1704   2.058   5.344   6.946  1.1344 -1.4471 -1.3500
  287SOL    HW2 1705   2.088   5.492   6.966 -0.0822 -1.5284  1.4765
  288SOL     OW 1706   7.401   5.593   7.444  0.1748 -0.1182  0.0811
  288SOL    HW1 1707   7.420   5.686   7.449  4.1487 -0.7401 -0.4195
  288SOL    HW2 1708   7.379   5.568   7.534 -1.4456  1.2950  0.1249
  289SOL     OW 1709   2.737   0.664   2.289  0.1753  0.3947 -0.6865
  289SOL    HW1 1710   2.771   0.607   2.221  0.4139  0.7327 -0.8483
  289SOL    HW2 1711   2.789   0.744   2.283 -0.9331  1.0935 -1.2377
  290SOL     OW 1712   4.226   2.832   5.271  0.6176  0.3456 -0.0663
  290SOL    HW1 1713   4.213   2.887   5.194 -1.9430 -0.2479 -0.1679
  290SOL    HW2 1714   4.191   2.884   5.344 -2.2656 -1.1392 -0.2273
  291SOL     OW 1715   5.614   0.316   5.289  0.0428  0.0032  0.6886
  291SOL    HW1 1716   5.660   0.328   5.206 -2.7722  0.4781 -0.9071
  291SOL    HW2 1717   5.649   0.386   5.345  1.3503  0.2429 -0.3698
  292SOL     OW 1718   3.177   5.840   4.565 -0.2724 -0.7021  0.1893
  292SOL    HW1 1719   3.249   5.787   4.531 -0.3699 -0.9541  0.3747
  292SOL    HW2 1720   3.128   5.866   4.487  0.3900  0.0163  0.0026
  293SOL     OW 1721   5.891   1.891   1.934 -0.4085 -0.3105  0.2218
  293SOL    HW1 1722   5.832   1.945   1.986  1.2967 -0.1225  2.0463
  293SOL    HW2 1723   5.882   1.803   1.971  0.0832 -0.3791  0.1815
  294SOL     OW 1724   5.900   1.236   3.586 -0.0828  0.6457 -0.6560
  294SOL    HW1 1725   5.988   1.267   3.609 -0.1414  0.4610 -0.1858
  294SOL    HW2 1726   5.905   1.221   3.491  0.3330  0.8295 -0.6675
  295SOL     OW 1727   1.035   7.222   4.069  0.3424  0.1823  0.2281
  295SOL    HW1 1728   1.072   7.133   4.069  0.2105  0.0961  2.1044
  295SOL    HW2 1729   0.945   7.210   4.098  0.3708  0.9490  0.6365
  296SOL     OW 1730   0.914   2.415   7.630 -0.0026  0.1081  0.2416
  296SOL    HW1 1731   0.870   2.416   7.715  0.1274 -0.1175  0.3120
  296SOL    HW2 1732   0.851   2.373   7.571 -0.3137  0.7457  0.1007
  297SOL     OW 1733   0.927   5.296   0.573  0.6561 -0.2086  0.5477
  297SOL    HW1 1734   0.902   5.280   0.664  1.8898  0.1761  0.9787
  297SOL    HW2 1735   0.858   5.254   0.521 -1.5334  1.7826  1.6261
  298SOL     OW 1736   4.838   6.390   3.873 -0.0016 -0.0226  0.4751
  298SOL    HW1 1737   4.799   6.394   3.786 -0.2990 -0.1300  0.6052
  298SOL    HW2 1738   4.877   6.302   3.878 -0.1343 -0.0782  0.5175
  299SOL     OW 1739   3.516   3.039   7.410 -0.3383 -0.5069 -0.4594
  299SOL    HW1 1740   3.477   2.956   7.440 -0.6967 -0.4922 -0.8797
  299SOL    HW2 1741   3.442   3.098   7.401  0.0136  0.1277  0.6684
  300SOL     OW 1742   5.590   1.471   8.076  0.1733 -0.2158  0.0999
  300SOL    HW1 1743   5.648   1.542   8.047 -0.0375  0.2924  0.8920
  300SOL    HW2 1744   5.502   1.504   8.059  0.0931 -0.6898 -0.4224
  301SOL     OW 1745   6.783   5.484   6.941  1.0195 -0.0171  0.2248
  301SOL    HW1 1746   6.804   5.446   7.026  0.7497 -1.9612 -0.5236
  301SOL    HW2 1747   6.771   5.577   6.958  0.6142 -0.4153  2.3750
  302SOL     OW 1748   7.182   5.462   5.797 -0.0613 -0.1225 -0.9041
  302SOL    HW1 1749   7.165   5.526   5.727 -0.7231  0.0894 -0.5616
  302SOL    HW2 1750   7.218   5.386   5.752  1.5440  0.7801 -1.2395
  303SOL     OW 1751   0.810   7.378   1.510 -0.3709 -0.3763 -0.2324
  303SOL    HW1 1752   0.780   7.424   1.432 -2.3689 -1.2705 -0.0537
  303SOL    HW2 1753   0.776   7.289   1.501 -0.3547 -0.6003  1.4721
  304SOL     OW 1754   4.314   5.017   7.941  0.5620  0.0020 -0.1915
  304SOL    HW1 1755   4.274   5.069   8.011 -0.4867 -3.5732  2.1404
  304SOL    HW2 1756   4.244   5.006   7.877  0.4363  0.4627 -0.1407
  305SOL     OW 1757   2.501   8.055   6.309 -0.4389 -0.0000 -0.3561
  305SOL    HW1 1758   2.533   8.131   6.357  0.3983  0.1757 -1.1677
  305SOL    HW2 1759   2.410   8.047   6.335 -0.0595  0.2141  1.0959
  306SOL     OW 1760   0.025   4.638   3.134 -1.0773 -0.0248 -0.5335
  306SOL    HW1 1761   0.096   4.652   3.196 -1.2536 -0.5980 -0.2033
  306SOL    HW2 1762  -0.048   4.690   3.169 -0.6621  1.0235 -1.1735
  307SOL     OW 1763   2.983   5.269   4.058  0.3273 -0.2955  0.3804
  307SOL    HW1 1764   3.012   5.276   4.149  0.1075  1.5978  0.3351
  307SOL    HW2 1765   2.916   5.200   4.060  0.0765 -0.0437  1.7113
  308SOL     OW 1766   3.458   3.943   1.541 -0.0029  0.2258 -0.9961
  308SOL    HW1 1767   3.543   3.986   1.528  0.5352 -0.2427  0.7491
  308SOL    HW2 1768   3.397   4.014   1.557  0.3334  0.4895 -0.8817
  309SOL     OW 1769   5.447   7.812   1.306  0.1307 -0.2398  0.0377
  309SOL    HW1 1770   5.413   7.754   1.375 -0.6864 -0.8444 -0.8464
  309SOL    HW2 1771   5.407   7.897   1.325  0.1881 -0.3142  0.5086
  310SOL     OW 1772   1.018   6.459   6.416  0.1572  0.2828 -0.1393
  310SOL    HW1 1773   1.043   6.533   6.471 -1.1733  0.3620  0.3806
  310SOL    HW2 1774   0.953   6.411   6.467 -0.0111 -0.4779 -1.0305
  311SOL     OW 1775   7.011   3.911   2.050  0.0370  0.2034 -0.0558
  311SOL    HW1 1776   7.104   3.891   2.053 -0.1046 -0.6790 -1.0286
  311SOL    HW2 1777   6.987   3.903   1.958 -1.2188 -0.6719  0.3170
  312SOL     OW 1778   3.877   1.963   2.696  0.2595  0.2618  0.7040
  312SOL    HW1 1779   3.804   2.018   2.669 -0.2857 -0.7852 -0.0491
  312SOL    HW2 1780   3.902   1.995   2.782 -1.9996 -0.2338  1.6041
  313SOL     OW 1781   2.132   0.802   6.438  0.3679 -0.2490  0.1320
  313SOL    HW1 1782   2.064   0.735   6.436  0.2857 -0.1623 -1.4542
  313SOL    HW2 1783   2.180   0.785   6.519 -0.0267 -1.8391  0.0676
  314SOL     OW 1784   2.175   2.405   7.778 -0.3769  0.1636  1.0564
  314SOL    HW1 1785   2.240   2.373   7.715  0.7425  1.5986  1.4445
  314SOL    HW2 1786   2.112   2.333   7.786  0.2755 -0.6313 -0.5519
  315SOL     OW 1787   6.163   7.552   5.376  0.3056 -0.2703  0.3393
  315SOL    HW1 1788   6.125   7.630   5.416 -1.1338 -1.2243  0.8942
  315SOL    HW2 1789   6.123   7.478   5.423  2.5974 -1.3706  0.7291
  316SOL     OW 1790   4.929   7.364   7.722 -0.3332 -0.1945 -0.0495
  316SOL    HW1 1791   4.845   7.320   7.734  0.8902 -2.5050  0.8383
  316SOL    HW2 1792   4.929   7.435   7.785 -1.8864  0.3434 -0.6066
  317SOL     OW 1793   6.948   0.735   3.833 -0.1333  0.6170  0.5867
  317SOL    HW1 1794   7.004   0.699   3.902  0.3912  0.8876  0.3076
  317SOL    HW2 1795   6.974   0.827   3.826 -0.4344  0.6797  0.2753
  318SOL     OW 1796   4.481   6.745   2.879 -0.2032 -0.2732  0.0809
  318SOL    HW1 1797   4.424   6.668   2.888 -1.7201  0.6520 -1.1663
  318SOL    HW2 1798   4.428   6.808   2.830  1.0913  1.4869  0.8573
  319SOL     OW 1799   1.262   7.688   2.094 -0.4376  0.2145  0.0173
  319SOL    HW1 1800   1.314   7.672   2.015 -1.1994 -1.5866 -0.1613
  319SOL    HW2 1801   1.173   7.665   2.069 -1.0717  1.7219  0.7932
  320SOL     OW 1802   5.740   2.584   2.934 -0.1458  0.1411  0.5465
  320SOL    HW1 1803   5.656   2.558   2.971 -1.2216 -1.7418 -2.7211
  320SOL    HW2 1804   5.732   2.678   2.919 -1.2364  0.1818  1.2607
  321SOL     OW 1805   3.238   4.323   3.453  0.2182  0.1787 -0.1104
  321SOL    HW1 1806   3.288   4.296   3.531 -0.2664  0.4264  0.2910
  321SOL    HW2 1807   3.175   4.252   3.439  1.0699 -0.4305 -0.9829
  322SOL     OW 1808   2.045   1.406   4.405  0.4628  0.3100 -0.4606
  322SOL    HW1 1809   1.966   1.362   4.438  0.3697  0.5702 -0.3347
  322SOL    HW2 1810   2.035   1.404   4.310  1.9087 -2.6637 -0.6629
  323SOL     OW 1811   6.567   0.772   2.716  0.1870 -0.1642 -0.1583
  323SOL    HW1 1812   6.653   0.785   2.676  0.2916 -0.7368 -0.1287
  323SOL    HW2 1813   6.547   0.679   2.701 -0.0003 -0.2628  0.6538
  324SOL     OW 1814   2.943   5.221   6.228 -0.1444  0.2546 -0.2318
  324SOL    HW1 1815   2.891   5.226   6.308  2.1570  1.6655  1.3042
  324SOL    HW2 1816   2.948   5.311   6.197  0.7715  0.0440 -0.7298
  325SOL     OW 1817   6.334   7.599   0.485 -0.2698 -0.1620  0.3084
  325SOL    HW1 1818   6.324   7.656   0.561  0.2621 -1.0183  1.0367
  325SOL    HW2 1819   6.405   7.639   0.434  0.2257 -0.2738  0.9061
  326SOL     OW 1820   6.005   7.241   7.376 -0.6637  0.1413 -0.6092
  326SOL    HW1 1821   6.099   7.229   7.360 -0.2365  0.5724  1.2951
  326SOL    HW2 1822   5.977   7.158   7.415 -0.5904  0.7290  0.7256
  327SOL     OW 1823   4.283   8.139   4.730 -0.1288 -0.2609  0.1884
  327SOL    HW1 1824   4.335   8.065   4.760 -1.5908 -1.2486  0.4308
  327SOL    HW2 1825   4.197   8.100   4.709 -0.6084  1.1951 -0.6917
  328SOL     OW 1826   3.573   7.245   6.878 -0.0473  0.2323 -0.4908
  328SOL    HW1 1827   3.595   7.262   6.969  0.0334 -1.5117 -0.1511
  328SOL    HW2 1828   3.512   7.315   6.854 -2.0424 -0.6301  1.6733
  329SOL     OW 1829   0.475   2.502   6.173  0.2007  0.7178  0.4435
  329SOL    HW1 1830   0.455   2.429   6.230  0.5419  0.6393  0.4664
  329SOL    HW2 1831   0.541   2.467   6.112 -0.6659  0.5866 -0.4467
  330SOL     OW 1832   4.218   7.436   2.361  0.1180 -0.1339 -0.2119
  330SOL    HW1 1833   4.256   7.380   2.294  1.0415  0.1134  0.0906
  330SOL    HW2 1834   4.194   7.377   2.432 -3.1633 -0.7709 -1.6648
  331SOL     OW 1835   0.958   4.852   6.750  0.1875  0.1933 -0.2307
  331SOL    HW1 1836   1.043   4.877   6.713  0.3082  0.9571  0.5306
  331SOL    HW2 1837   0.897   4.858   6.676  0.3591  2.0390 -0.2603
  332SOL     OW 1838   1.146   2.368   4.314  0.0090 -0.2413  0.2941
  332SOL    HW1 1839   1.205   2.293   4.316 -0.8918 -0.9677  0.2797
  332SOL    HW2 1840   1.090   2.357   4.391  0.9905  1.3725  1.2997
  333SOL     OW 1841   1.535   3.869   4.666 -0.1652 -0.2089 -0.1139
  333SOL    HW1 1842   1.530   3.809   4.740 -2.9024 -1.8073 -1.4432
  333SOL    HW2 1843   1.575   3.817   4.596  1.3914  0.9432 -0.1436
  334SOL     OW 1844   3.952   0.508   4.930 -0.3790  0.0277  0.4928
  334SOL    HW1 1845   3.857   0.505   4.916 -0.3671  0.7484  0.2002
  334SOL    HW2 1846   3.984   0.422   4.904 -0.8583  0.0369 -0.1465
  335SOL     OW 1847   0.964   6.105   0.417  0.3806 -0.5316 -0.5062
  335SOL    HW1 1848   0.994   6.108   0.326  0.4041 -2.7343 -0.6248
  335SOL    HW2 1849   0.869   6.094   0.411  0.1518  1.1096 -0.2116
  336SOL     OW 1850   0.145   5.044   4.122  0.3171  0.1670  0.5180
  336SOL    HW1 1851   0.102   5.021   4.204  0.6703  2.6711  1.4886
  336SOL    HW2 1852   0.238   5.030   4.140  0.4115  0.9174  0.6306
  337SOL     OW 1853   5.893   5.031   5.742 -0.4015  0.1696  0.1714
  337SOL    HW1 1854   5.856   4.996   5.823 -1.9345 -0.8022 -0.8861
  337SOL    HW2 1855   5.955   4.964   5.712 -1.7746 -0.7351 -0.7643
  338SOL     OW 1856   5.305   0.006   6.867 -0.1891 -0.2284 -0.2684
  338SOL    HW1 1857   5.286  -0.046   6.790  1.5084  1.4381 -1.9079
  338SOL    HW2 1858   5.219   0.036   6.897 -0.9617 -1.7693 -0.8314
  339SOL     OW 1859   3.585   0.594   5.547 -0.6022  0.0599 -0.0077
  339SOL    HW1 1860   3.598   0.503   5.574  0.2885 -0.2491 -1.3477
  339SOL    HW2 1861   3.490   0.605   5.548 -0.7027 -0.7153  0.6796
  340SOL     OW 1862   0.154   5.333   3.511  0.3027  0.1151 -0.5195
  340SOL    HW1 1863   0.132   5.408   3.455  0.8444 -0.3215 -1.3505
  340SOL    HW2 1864   0.073   5.282   3.517  0.0043  0.6237 -0.1696
  341SOL     OW 1865   2.862   2.255   3.919 -0.2412  0.2924 -0.1087
  341SOL    HW1 1866   2.853   2.160   3.917  0.2481  0.2500 -0.6996
  341SOL    HW2 1867   2.803   2.286   3.850  0.3311  0.3428 -0.5883
  342SOL     OW 1868   0.420   4.933   6.689  0.4290 -0.0510  0.1306
  342SOL    HW1 1869   0.427   4.842   6.659 -0.3651  0.4271 -1.6104
  342SOL    HW2 1870   0.495   4.977   6.649  0.2923  0.2519  0.2115
  343SOL     OW 1871   6.975   1.825   3.924  0.4071 -0.3134  0.1422
  343SOL    HW1 1872   7.049   1.806   3.982  0.5125  0.8635  0.4237
  343SOL    HW2 1873   6.948   1.913   3.949  1.2244  0.7446 -2.4192
  344SOL     OW 1874   3.851   1.516   2.370  0.6650 -0.6873 -0.7640
  344SOL    HW1 1875   3.796   1.594   2.369  0.2394 -0.9367  0.6414
  344SOL    HW2 1876   3.934   1.545   2.334  0.0973  0.0721 -1.5154
  345SOL     OW 1877   2.599   1.220   2.930  0.0650  0.1319 -0.2589
  345SOL    HW1 1878   2.660   1.293   2.924 -0.9507  1.2147  1.7261
  345SOL    HW2 1879   2.513   1.259   2.917 -0.3760 -1.0406 -1.0125
  346SOL     OW 1880   3.119   0.740   3.016 -0.5974 -0.2233  0.1150
  346SOL    HW1 1881   3.183   0.807   2.992 -1.5665  0.3594 -0.9890
  346SOL    HW2 1882   3.162   0.688   3.083  0.8795  0.3831 -0.3186
  347SOL     OW 1883   1.000   3.148   5.812 -0.1389 -0.3005  0.4326
  347SOL    HW1 1884   0.968   3.090   5.743 -0.2317  1.1435 -0.8065
  347SOL    HW2 1885   0.996   3.235   5.772 -0.6878  0.6491  2.4700
  348SOL     OW 1886   4.164   1.970   1.042 -0.3447  0.1242  0.1480
  348SOL    HW1 1887   4.213   1.972   0.960  1.3532 -1.1169  1.0439
  348SOL    HW2 1888   4.130   1.880   1.047  1.9134 -0.7480  1.9744
  349SOL     OW 1889   6.484   0.673   1.699  0.0119 -0.1807 -0.2215
  349SOL    HW1 1890   6.492   0.583   1.732  1.3538 -1.4728 -3.6566
  349SOL    HW2 1891   6.573   0.708   1.703 -0.4043  0.8539  0.5505
  350SOL     OW 1892   2.973   7.560   1.992  0.2320  0.7276 -0.0998
  350SOL    HW1 1893   3.051   7.515   2.024 -0.9339  0.4594  2.5346
  350SOL    HW2 1894   2.991   7.653   2.008  0.9206  0.9016 -1.6844
  351SOL     OW 1895   0.399   0.587   3.460  0.0055  0.4067  0.3547
  351SOL    HW1 1896   0.443   0.539   3.530 -0.4502 -0.5181  0.0207
  351SOL    HW2 1897   0.468   0.609   3.398 -0.0381 -1.5412 -0.4599
  352SOL     OW 1898   1.319   3.855   5.530 -0.1796  0.2321 -0.1575
  352SOL    HW1 1899   1.387   3.787   5.532 -1.7657 -1.6209 -2.3487
  352SOL    HW2 1900   1.237   3.806   5.540 -1.3263  2.0183 -0.4677
  353SOL     OW 1901   5.032   1.196   2.302 -0.4976  0.2139  0.0463
  353SOL    HW1 1902   5.064   1.222   2.216  0.3877  1.5566  0.7558
  353SOL    HW2 1903   5.049   1.101   2.306  1.1777  0.4612 -0.5534
  354SOL     OW 1904   1.894   3.064   5.121 -0.4054  0.2743 -0.0881
  354SOL    HW1 1905   1.804   3.073   5.154 -0.4405  0.5176 -0.2511
  354SOL    HW2 1906   1.887   2.997   5.053  0.0603 -1.9437  1.9096
  355SOL     OW 1907   8.218   1.977   6.675 -0.0151 -0.2245 -0.0949
  355SOL    HW1 1908   8.302   2.018   6.694 -0.2522  0.2935 -0.1214
  355SOL    HW2 1909   8.180   2.033   6.606 -0.2270 -0.6534 -0.3289
  356SOL     OW 1910   7.146   6.949   7.308 -0.0412 -0.0169  0.3792
  356SOL    HW1 1911   7.133   7.006   7.232  1.2677 -1.3795 -0.9216
  356SOL    HW2 1912   7.059   6.910   7.324  0.0603 -1.2849 -1.7724
  357SOL     OW 1913   4.900   3.141   1.809  0.4143  0.1939 -0.2550
  357SOL    HW1 1914   4.875   3.226   1.771 -0.6346  0.2002  0.3999
  357SOL    HW2 1915   4.985   3.157   1.848 -0.5397  1.4808  1.4375
  358SOL     OW 1916   6.259   6.998   2.352  0.1564  0.0335 -0.1071
  358SOL    HW1 1917   6.299   7.065   2.296  1.7570 -1.2428 -0.5752
  358SOL    HW2 1918   6.203   6.947   2.294  2.1655 -1.5743 -0.7571
  359SOL     OW 1919   6.781   4.470   5.039 -0.3386 -0.0472  0.2360
  359SOL    HW1 1920   6.688   4.444   5.041 -0.6183  0.1560 -3.4940
  359SOL    HW2 1921   6.781   4.553   4.990  1.7042  0.9491  1.7913
  360SOL     OW 1922   5.701   0.265   0.844  0.1420 -0.0055  0.1432
  360SOL    HW1 1923   5.773   0.299   0.791  0.4541  0.6930  0.9860
  360SOL    HW2 1924   5.743   0.207   0.907  0.3123  2.0010  2.0107
  361SOL     OW 1925   1.085   3.283   1.752  0.3458 -0.2057 -0.2056
  361SOL    HW1 1926   1.093   3.188   1.765  1.4777 -0.6983 -3.5999
  361SOL    HW2 1927   0.995   3.295   1.720  0.6889 -0.3945 -1.2798
  362SOL     OW 1928   3.446   7.619   0.119 -0.4180 -0.3415 -0.3093
  362SOL    HW1 1929   3.493   7.691   0.161 -1.6667 -0.2855  1.0734
  362SOL    HW2 1930   3.431   7.650   0.030  1.9285 -0.2883 -0.7543
  363SOL     OW 1931   0.757   5.070   6.194 -0.3804 -0.2536  0.1756
  363SOL    HW1 1932   0.749   4.974   6.195  1.4839 -0.4465  1.2475
  363SOL    HW2 1933   0.848   5.086   6.170 -0.2427  1.1816  1.4833
  364SOL     OW 1934   1.751   7.919   3.508  0.5328 -0.5519 -0.5358
  364SOL    HW1 1935   1.667   7.921   3.554 -0.7149 -1.9675 -2.5919
  364SOL    HW2 1936   1.753   7.833   3.467  2.3865 -0.0153 -1.6525
  365SOL     OW 1937   2.179   5.444   1.412 -0.0314 -0.2607 -0.0951
  365SOL    HW1 1938   2.203   5.440   1.319  0.1640  3.7796 -0.3585
  365SOL    HW2 1939   2.085   5.461   1.413  0.1345  0.6811  0.3973
  366SOL     OW 1940   3.938   0.526   1.145 -0.3106 -0.3538 -0.0639
  366SOL    HW1 1941   3.943   0.432   1.163  0.6500 -0.0476  1.4689
  366SOL    HW2 1942   3.914   0.532   1.052 -0.4645 -2.0977 -0.1634
  367SOL     OW 1943   1.604   3.767   8.022  0.6938  0.3519  0.0076
  367SOL    HW1 1944   1.682   3.792   7.972  1.9807 -0.8824  1.3101
  367SOL    HW2 1945   1.600   3.672   8.015 -1.2961  0.4358 -0.8094
  368SOL     OW 1946   0.959   6.339   2.672  0.4040  0.1117 -0.5485
  368SOL    HW1 1947   0.872   6.379   2.668  0.8040  1.0328 -0.2412
  368SOL    HW2 1948   0.963   6.282   2.595 -0.2597  0.5005 -0.8758
  369SOL     OW 1949   6.792   3.034   1.143  0.0931 -0.1145 -0.0361
  369SOL    HW1 1950   6.706   3.038   1.100 -0.6159 -0.4069  1.3019
  369SOL    HW2 1951   6.829   2.951   1.113 -0.2994 -0.2208 -0.2362
  370SOL     OW 1952   0.603   6.828   0.946 -0.5582  0.4963  0.1648
  370SOL    HW1 1953   0.549   6.750   0.940 -0.5297  0.4480  0.5144
  370SOL    HW2 1954   0.670   6.806   1.011 -0.2922  0.6576 -0.0519
  371SOL     OW 1955   7.695   6.013   5.932 -0.7684 -0.0289 -0.6040
  371SOL    HW1 1956   7.642   6.062   5.869  0.4942 -0.5515 -2.1671
  371SOL    HW2 1957   7.662   5.923   5.925 -1.8177  0.2133  0.8535
  372SOL     OW 1958   6.042   3.028   4.473  1.0573 -0.3958 -0.1124
  372SOL    HW1 1959   6.013   3.118   4.486 -0.0528 -0.7756  0.1986
  372SOL    HW2 1960   6.064   3.024   4.380 -3.9039 -1.0382 -1.5604
  373SOL     OW 1961   7.616   6.752   7.900 -0.5152  0.4036 -0.3657
  373SOL    HW1 1962   7.616   6.725   7.992 -0.2601  0.0116 -0.4791
  373SOL    HW2 1963   7.557   6.690   7.857  0.7221 -0.5443 -0.7818
  374SOL     OW 1964   2.579   2.491   2.145 -0.1290  0.3531  0.6632
  374SOL    HW1 1965   2.559   2.453   2.230 -2.5456  2.1953  1.0320
  374SOL    HW2 1966   2.619   2.576   2.166  2.7692 -0.6801 -0.1324
  375SOL     OW 1967   5.601   6.835   8.093 -0.1786  0.1209 -0.5819
  375SOL    HW1 1968   5.516   6.792   8.093  0.5594 -1.4087 -1.3819
  375SOL    HW2 1969   5.589   6.912   8.149 -2.8380  1.4979 -2.8205
  376SOL     OW 1970   5.277   0.886   7.662  0.3906 -0.4280  0.3814
  376SOL    HW1 1971   5.273   0.905   7.568 -2.5058 -2.7353 -0.1128
  376SOL    HW2 1972   5.359   0.840   7.674  1.6953  1.4995 -0.5840
  377SOL     OW 1973   0.279   5.710   4.764 -0.0139 -0.0207 -0.3072
  377SOL    HW1 1974   0.300   5.685   4.674  2.5821  1.9995 -0.3805
  377SOL    HW2 1975   0.280   5.806   4.763 -2.4253  0.1045  1.4004
  378SOL     OW 1976   0.980   2.213   4.706 -0.5047  0.1411 -0.7099
  378SOL    HW1 1977   0.943   2.171   4.783 -0.1539 -0.5475 -0.9090
  378SOL    HW2 1978   0.988   2.305   4.730 -3.3110  0.5581 -1.0079
  379SOL     OW 1979   1.234   7.027   6.565  0.5568  0.3099 -0.0955
  379SOL    HW1 1980   1.157   7.038   6.508  1.0442 -1.6090 -1.2190
  379SOL    HW2 1981   1.210   7.073   6.645 -1.2601  0.8199 -0.8573
  380SOL     OW 1982   5.880   7.013   5.963  0.1662  0.0845  0.4807
  380SOL    HW1 1983   5.794   7.054   5.971 -0.1184 -0.7247  1.8662
  380SOL    HW2 1984   5.938   7.068   6.016  0.3669  0.2528  0.0900
  381SOL     OW 1985   7.224   1.837   6.256  0.7785 -0.4334  0.0113
  381SOL    HW1 1986   7.132   1.828   6.228  1.3429 -0.5935 -1.9219
  381SOL    HW2 1987   7.232   1.777   6.330 -0.9058  0.2816  0.8351
  382SOL     OW 1988   3.059   0.029   0.742  0.4483  0.6800 -0.0859
  382SOL    HW1 1989   3.065   0.079   0.660  0.6109 -1.4005 -1.4212
  382SOL    HW2 1990   3.148   0.030   0.778  0.8630 -0.1169 -1.0484
  383SOL     OW 1991   1.352   6.172   6.179  0.3403 -0.3504 -0.0058
  383SOL    HW1 1992   1.390   6.086   6.201 -0.0529 -1.0379 -1.8026
  383SOL    HW2 1993   1.277   6.181   6.238 -0.6597 -2.0856 -0.9045
  384SOL     OW 1994   1.529   5.504   0.934 -0.1872 -0.2634 -0.2423
  384SOL    HW1 1995   1.491   5.587   0.904  0.9980  0.5963  0.5681
  384SOL    HW2 1996   1.461   5.465   0.989 -0.6028  0.3566 -0.3113
  385SOL     OW 1997   1.820   5.384   6.775  0.0345 -0.5849 -0.6198
  385SOL    HW1 1998   1.912   5.385   6.801  0.4688 -2.4182 -1.8611
  385SOL    HW2 1999   1.772   5.369   6.857  0.8259  0.3041  0.0251
  386SOL     OW 2000   4.736   3.050   8.211 -0.2401 -0.5037  0.1636
  386SOL    HW1 2001   4.799   3.075   8.278  0.7273  0.8753 -1.1655
  386SOL    HW2 2002   4.677   2.988   8.254  0.7671 -0.2286  2.0404
  387SOL     OW 2003   2.268   7.834   6.494 -0.2964 -0.8558 -0.3793
  387SOL    HW1 2004   2.272   7.910   6.552  0.4381 -1.2134  0.0553
  387SOL    HW2 2005   2.194   7.852   6.436 -0.2229  0.1262 -0.1939
  388SOL     OW 2006   5.392   2.204   4.747  0.1877 -0.1420 -0.2904
  388SOL    HW1 2007   5.422   2.225   4.835  0.3270  2.1279 -0.8204
  388SOL    HW2 2008   5.459   2.146   4.711  0.5799 -0.3605  0.7666
  389SOL     OW 2009   3.797   7.520   8.142  0.0618  0.4239 -0.1016
  389SOL    HW1 2010   3.821   7.435   8.180  0.8316 -1.1516 -3.7079
  389SOL    HW2 2011   3.703   7.513   8.126  0.2096  0.0043 -0.8427
  390SOL     OW 2012   4.439   2.624   5.279 -0.1869  0.1488  0.1587
  390SOL    HW1 2013   4.373   2.693   5.285  0.2387  0.5925 -0.2074
  390SOL    HW2 2014   4.408   2.556   5.340 -0.4326  0.8032  0.7754
  391SOL     OW 2015   5.141   5.301   2.271 -0.0323 -0.4812 -0.1311
  391SOL    HW1 2016   5.216   5.324   2.325 -1.4490 -2.2120  2.7933
  391SOL    HW2 2017   5.120   5.211   2.296 -1.6961 -0.8783 -2.5682
  392SOL     OW 2018   7.121   4.115   4.698 -0.5501 -1.0237 -0.0436
  392SOL    HW1 2019   7.090   4.026   4.716 -0.2179 -1.5546 -1.8286
  392SOL    HW2 2020   7.087   4.134   4.610  1.9301 -0.6051 -0.9721
  393SOL     OW 2021   2.983   2.711   4.811 -0.0308 -0.1774 -0.0495
  393SOL    HW1 2022   2.935   2.664   4.879  0.1431 -0.0251  0.1824
  393SOL    HW2 2023   2.942   2.798   4.808  0.4242  0.0579  0.3675
  394SOL     OW 2024   1.479   2.149   0.475  0.1743 -0.4301  0.4357
  394SOL    HW1 2025   1.457   2.099   0.553  2.1873 -1.0215  0.6550
  394SOL    HW2 2026   1.420   2.225   0.479 -1.7781 -1.8738  0.9588
  395SOL     OW 2027   7.291   0.489   1.562 -0.5538  0.1035 -0.2944
  395SOL    HW1 2028   7.286   0.447   1.477  0.4162 -1.0633  0.1994
  395SOL    HW2 2029   7.384   0.487   1.584 -0.7363  0.7950  0.6070
  396SOL     OW 2030   7.427   6.432   8.185 -0.1785  0.2788  0.1990
  396SOL    HW1 2031   7.389   6.382   8.113  0.9826 -1.0671  0.4896
  396SOL    HW2 2032   7.387   6.519   8.177 -0.7298 -0.0918 -1.5246
  397SOL     OW 2033   1.292   7.463   4.165  0.8924  0.2188 -0.2380
  397SOL    HW1 2034   1.255   7.429   4.247  1.1161 -0.2042 -0.3122
  397SOL    HW2 2035   1.305   7.556   4.182 -0.1767  0.3690 -0.1974
  398SOL     OW 2036   0.010   5.495   5.496 -0.0771  0.2330  0.3376
  398SOL    HW1 2037  -0.026   5.502   5.585  0.7009  0.3382  0.6542
  398SOL    HW2 2038  -0.041   5.425   5.455  1.0769 -1.4678  1.6403
  399SOL     OW 2039   7.650   1.270   6.545 -0.9114  0.3268 -0.2423
  399SOL    HW1 2040   7.744   1.269   6.564 -0.9930 -1.3320  0.1655
  399SOL    HW2 2041   7.608   1.278   6.631 -1.1681  1.4356 -0.4492
  400SOL     OW 2042   5.162   8.061   1.556  0.0766  0.3431  0.3345
  400SOL    HW1 2043   5.255   8.042   1.545 -0.5877 -1.8500 -2.7911
  400SOL    HW2 2044   5.132   8.088   1.468 -2.2434  0.9602  1.2252
  401SOL     OW 2045   0.924   0.081   0.441  0.4006  0.1249  0.3534
  401SOL    HW1 2046   0.883   0.015   0.385 -0.0632  1.2365 -0.6499
  401SOL    HW2 2047   1.016   0.080   0.415  0.7522 -1.2532  1.5005
  402SOL     OW 2048   2.645   5.264   2.527 -0.8049  0.3360 -0.4299
  402SOL    HW1 2049   2.601   5.245   2.610 -2.3637  0.6958 -1.1435
  402SOL    HW2 2050   2.608   5.203   2.464  1.7873 -1.2979 -0.5245
  403SOL     OW 2051   6.448   5.866   2.943 -0.3882 -0.5675 -0.0902
  403SOL    HW1 2052   6.526   5.854   2.997 -1.3200 -0.9887  1.2187
  403SOL    HW2 2053   6.481   5.890   2.856  1.2141 -1.4806  0.2377
  404SOL     OW 2054   5.339   0.539   3.541 -0.5207  0.3045  0.2258
  404SOL    HW1 2055   5.354   0.520   3.634  0.2743  1.1285  0.2819
  404SOL    HW2 2056   5.419   0.583   3.512 -0.1432 -1.2592 -1.2480
  405SOL     OW 2057   4.374   6.793   5.987  0.0258 -0.6630  0.1426
  405SOL    HW1 2058   4.341   6.715   5.942  1.1158 -1.5003  0.7377
  405SOL    HW2 2059   4.466   6.799   5.959 -0.1921  0.7786 -0.3739
  406SOL     OW 2060   2.207   3.932   0.243  0.7315 -0.3766  0.4895
  406SOL    HW1 2061   2.235   3.967   0.328  0.6086 -1.4585  1.0038
  406SOL    HW2 2062   2.258   3.852   0.233  1.0103 -0.0595 -0.6424
  407SOL     OW 2063   6.221   3.562   0.183  0.5006 -0.1899 -0.3662
  407SOL    HW1 2064   6.236   3.651   0.214  0.4873  0.0707 -1.0895
  407SOL    HW2 2065   6.136   3.538   0.219 -0.7076  1.0485 -2.2076
  408SOL     OW 2066   5.374   6.046   4.800 -0.2782  0.1129 -0.3640
  408SOL    HW1 2067   5.308   5.983   4.773  1.8337 -1.7390 -1.4897
  408SOL    HW2 2068   5.410   6.011   4.881  0.2128  0.3861 -0.4555
  409SOL     OW 2069   7.739   3.874   5.300  0.1434 -0.4891 -0.7645
  409SOL    HW1 2070   7.675   3.804   5.299  0.7512 -1.0537 -0.9839
  409SOL    HW2 2071   7.698   3.946   5.251 -0.8583 -0.3352  0.2747
  410SOL     OW 2072   3.790   6.276   8.128 -0.3222 -0.2571  0.4909
  410SOL    HW1 2073   3.694   6.275   8.130 -0.3241  0.6396  1.5120
  410SOL    HW2 2074   3.816   6.307   8.215  0.8667  0.6390 -0.1477
  411SOL     OW 2075   6.003   6.703   0.922 -0.5751  0.6180 -0.2511
  411SOL    HW1 2076   6.047   6.786   0.907 -0.9099  0.8899  0.2706
  411SOL    HW2 2077   6.043   6.667   1.001 -0.6582  0.4356 -0.2898
  412SOL     OW 2078   2.298   1.890   1.592  0.1461 -0.0146 -0.2638
  412SOL    HW1 2079   2.336   1.851   1.513 -0.6693 -0.1623 -0.5922
  412SOL    HW2 2080   2.295   1.818   1.655  0.8275  0.1112 -0.0750
  413SOL     OW 2081   4.455   2.273   6.900  0.3339 -0.2003 -0.0109
  413SOL    HW1 2082   4.488   2.361   6.881  1.6774 -0.6103  0.3173
  413SOL    HW2 2083   4.503   2.247   6.979 -0.5243 -0.9843  0.2650
  414SOL     OW 2084   0.709   5.452   0.827  0.4336 -0.6726 -0.0176
  414SOL    HW1 2085   0.664   5.370   0.845 -0.8544  0.3343  1.6920
  414SOL    HW2 2086   0.766   5.466   0.903 -0.4725  0.6865  0.4631
  415SOL     OW 2087   3.126   5.076   5.776 -0.5027  0.1460 -0.9375
  415SOL    HW1 2088   3.137   5.016   5.702 -2.3603  0.6738 -1.6947
  415SOL    HW2 2089   3.196   5.141   5.765  0.8488 -1.2423 -0.7217
  416SOL     OW 2090   5.988   1.143   8.034 -0.2848 -0.1075 -0.1686
  416SOL    HW1 2091   5.968   1.094   7.955 -0.3330 -0.6943  0.1976
  416SOL    HW2 2092   5.903   1.166   8.071 -0.2627  0.4475 -0.4519
  417SOL     OW 2093   4.230   4.594   0.095  0.5713  0.7500  0.2439
  417SOL    HW1 2094   4.193   4.612   0.009  1.3091 -0.0693 -0.2665
  417SOL    HW2 2095   4.295   4.525   0.080  2.2448  2.0406  1.0879
  418SOL     OW 2096   8.208   6.257   6.381 -0.0020  0.7484  0.0960
  418SOL    HW1 2097   8.135   6.200   6.357  0.2842  0.3949  0.0495
  418SOL    HW2 2098   8.253   6.209   6.451  0.3719  0.8169 -0.1001
  419SOL     OW 2099   6.778   1.481   5.196  0.3000  0.1555 -0.2413
  419SOL    HW1 2100   6.714   1.498   5.265  0.5433 -0.0859  0.0486
  419SOL    HW2 2101   6.735   1.509   5.116  0.5790  1.9180  0.1779
  420SOL     OW 2102   7.110   5.209   7.398  0.7028 -0.4644 -0.1758
  420SOL    HW1 2103   7.117   5.159   7.317  0.8269 -1.3419  0.3570
  420SOL    HW2 2104   7.026   5.254   7.392  1.2489  0.4563 -1.3166
  421SOL     OW 2105   6.379   4.746   2.818  0.1661  0.4561  0.1706
  421SOL    HW1 2106   6.363   4.683   2.748  3.2483 -0.4039  0.0920
  421SOL    HW2 2107   6.324   4.715   2.891 -0.9270 -0.2971 -0.9367
  422SOL     OW 2108   2.695   5.981   5.440 -0.4195  0.9555  0.3219
  422SOL    HW1 2109   2.649   5.972   5.524  1.3974  0.8645  1.3385
  422SOL    HW2 2110   2.742   6.064   5.447 -1.0552  1.4706 -1.0588
  423SOL     OW 2111   1.404   0.817   6.220 -0.5440 -0.3630  0.3936
  423SOL    HW1 2112   1.381   0.757   6.149  1.2174  0.8631 -1.3004
  423SOL    HW2 2113   1.459   0.765   6.278 -0.0861 -0.7391 -0.3695
  424SOL     OW 2114   0.116   3.147   3.398 -1.1401 -0.5828 -0.1444
  424SOL    HW1 2115   0.134   3.108   3.484 -0.0724  0.3679  0.0851
  424SOL    HW2 2116   0.047   3.211   3.414  0.0245  0.6096  0.3167
  425SOL     OW 2117   1.285   2.580   4.542  0.5370 -0.0230  0.1823
  425SOL    HW1 2118   1.198   2.551   4.514  0.0246  0.9483  0.7005
  425SOL    HW2 2119   1.268   2.647   4.609  1.6722  0.5749 -0.0942
  426SOL     OW 2120   5.832   3.903   1.451 -0.7114  0.5490  0.1123
  426SOL    HW1 2121   5.928   3.900   1.454 -0.7273 -0.0804  0.1375
  426SOL    HW2 2122   5.807   3.939   1.536 -0.5532 -1.1240  0.9107
  427SOL     OW 2123   7.865   4.559   0.864 -0.2867 -0.4124 -0.6003
  427SOL    HW1 2124   7.901   4.628   0.920  0.0077 -2.5215  1.9688
  427SOL    HW2 2125   7.815   4.607   0.797  1.4187  2.3249 -0.0720
  428SOL     OW 2126   0.417   4.259   2.316 -0.3297 -0.0325  0.0932
  428SOL    HW1 2127   0.363   4.190   2.356  1.2769 -0.2566  2.0572
  428SOL    HW2 2128   0.470   4.214   2.251 -1.1694 -0.1430 -0.5255
  429SOL     OW 2129   5.817   5.225   4.240 -0.2992 -0.3664  0.1466
  429SOL    HW1 2130   5.761   5.241   4.164  0.2877  0.2130 -0.1699
  429SOL    HW2 2131   5.791   5.138   4.270 -2.2053  0.3687  0.7501
  430SOL     OW 2132   0.377   2.473   2.060  0.3312  0.5274  0.4635
  430SOL    HW1 2133   0.289   2.482   2.025  0.1698 -0.4117  0.5995
  430SOL    HW2 2134   0.366   2.423   2.141  1.1733 -1.3911 -0.5347
  431SOL     OW 2135   5.319   8.005   5.068  0.0608 -0.2850  0.3839
  431SOL    HW1 2136   5.346   8.084   5.020 -0.7834 -0.7687 -0.9369
  431SOL    HW2 2137   5.257   7.962   5.009  0.7931 -2.1427  0.9311
  432SOL     OW 2138   4.065   0.647   5.309  0.0511  0.2980 -0.5008
  432SOL    HW1 2139   3.973   0.638   5.334 -0.0101  0.8465 -0.5144
  432SOL    HW2 2140   4.088   0.736   5.335  1.2013 -0.5270  1.5327
  433SOL     OW 2141   6.724   8.102   1.967  0.1315 -0.1078  0.2282
  433SOL    HW1 2142   6.689   8.045   1.899  1.2103 -2.0753  1.2411
  433SOL    HW2 2143   6.646   8.141   2.008 -0.5634  0.3453 -1.4219
  434SOL     OW 2144   0.917   0.560   3.811  0.0143  0.1247 -0.1272
  434SOL    HW1 2145   0.970   0.491   3.852 -1.0336 -0.5459  0.1295
  434SOL    HW2 2146   0.878   0.607   3.884  0.5003  0.8339 -0.3097
  435SOL     OW 2147   1.554   3.551   1.314 -0.2034  0.4539  0.3263
  435SOL    HW1 2148   1.625   3.511   1.363 -0.2794  1.7875  1.5975
  435SOL    HW2 2149   1.482   3.558   1.376 -1.5999 -1.1669 -1.0228
  436SOL     OW 2150   0.868   0.780   4.334 -0.2365  0.1473 -0.1985
  436SOL    HW1 2151   0.823   0.749   4.413  0.6583  1.7764  1.0042
  436SOL    HW2 2152   0.806   0.841   4.294 -0.3106  0.0545 -0.2252
  437SOL     OW 2153   1.599   3.659   4.477  0.4610  0.5542 -0.5225
  437SOL    HW1 2154   1.665   3.622   4.418 -0.2103 -0.8733 -0.4158
  437SOL    HW2 2155   1.533   3.590   4.485 -0.3409  1.4145  0.4973
  438SOL     OW 2156   7.550   2.379   6.660  0.4691 -0.0789 -0.4100
  438SOL    HW1 2157   7.548   2.386   6.756 -1.1712  0.8344 -0.4526
  438SOL    HW2 2158   7.550   2.285   6.642 -1.2985 -0.3161  0.5446
  439SOL     OW 2159   0.689   2.995   5.623  0.1608 -0.2376 -0.3195
  439SOL    HW1 2160   0.707   3.077   5.578  0.1932 -0.2135 -0.2617
  439SOL    HW2 2161   0.604   3.007   5.664 -0.1606 -0.4757 -0.8918
  440SOL     OW 2162   7.699   5.121   3.134  0.1910  0.4967  0.3898
  440SOL    HW1 2163   7.791   5.095   3.135 -0.1050 -0.6194 -0.2336
  440SOL    HW2 2164   7.652   5.043   3.105 -0.8263  1.4394 -0.5860
  441SOL     OW 2165   2.353   6.261   0.071 -0.4423  0.1585  0.1906
  441SOL    HW1 2166   2.415   6.333   0.057  0.3996 -0.1889  1.8326
  441SOL    HW2 2167   2.305   6.254  -0.011 -1.2605  3.2515  0.2837
  442SOL     OW 2168   5.298   1.994   6.858 -0.0444  0.6538  0.2505
  442SOL    HW1 2169   5.289   1.911   6.812  0.8157  0.3237  0.6582
  442SOL    HW2 2170   5.355   2.047   6.802 -0.1333  0.7640  0.2638
  443SOL     OW 2171   1.129   3.532   0.680 -0.0989 -0.1046 -0.2235
  443SOL    HW1 2172   1.146   3.504   0.770  0.9989 -1.9423 -0.9532
  443SOL    HW2 2173   1.071   3.465   0.644 -0.6283  0.6769 -0.8619
  444SOL     OW 2174   0.981   5.271   1.408  0.7457 -0.0865  0.1200
  444SOL    HW1 2175   1.006   5.274   1.500 -0.0421  0.1837  0.3319
  444SOL    HW2 2176   1.064   5.258   1.361  1.4691  1.9499  0.7081
  445SOL     OW 2177   6.541   1.801   2.493 -0.3274 -0.4553  0.0628
  445SOL    HW1 2178   6.524   1.751   2.573  2.6112 -0.7699  0.6221
  445SOL    HW2 2179   6.628   1.771   2.465  0.1333  2.0228 -1.4032
  446SOL     OW 2180   7.511   6.840   3.850  0.4285  0.0504  0.3421
  446SOL    HW1 2181   7.545   6.829   3.939  0.9354  0.5474  0.2193
  446SOL    HW2 2182   7.521   6.754   3.810  1.0704  0.0522  0.4791
  447SOL     OW 2183   0.811   0.097   3.281 -0.2976  0.1839 -0.0057
  447SOL    HW1 2184   0.897   0.139   3.283 -0.6740  0.9501  2.5904
  447SOL    HW2 2185   0.750   0.165   3.308 -1.5781 -0.7205 -0.5320
  448SOL     OW 2186   1.889   6.997   2.438  0.4227 -0.5278  0.2245
  448SOL    HW1 2187   1.802   7.000   2.398  0.0562 -1.4431  0.9005
  448SOL    HW2 2188   1.872   6.989   2.532  1.2558  0.6652  0.4930
  449SOL     OW 2189   8.160   0.748   0.322  0.0072 -0.2329  0.0625
  449SOL    HW1 2190   8.103   0.674   0.301  1.0956 -0.8489 -0.8344
  449SOL    HW2 2191   8.163   0.801   0.242  0.8179 -0.3108  0.0272
  450SOL     OW 2192   7.184   3.815   7.370  0.4462  0.4199 -0.2523
  450SOL    HW1 2193   7.265   3.774   7.338  1.2753  2.4358 -0.9046
  450SOL    HW2 2194   7.134   3.833   7.291 -0.7700 -0.9495  0.1616
  451SOL     OW 2195   2.295   2.548   0.037 -0.0530 -0.4286  0.0703
  451SOL    HW1 2196   2.236   2.552   0.113 -0.1435 -0.1675 -0.0124
  451SOL    HW2 2197   2.251   2.490  -0.025 -0.4822  0.1810 -0.2088
  452SOL     OW 2198   5.790   1.253   5.967  0.7546 -0.6202  0.1523
  452SOL    HW1 2199   5.795   1.329   6.024 -0.0635  0.0255 -0.6140
  452SOL    HW2 2200   5.776   1.288   5.879 -0.3342 -1.6461 -0.1274
  453SOL     OW 2201   2.175   4.507   6.183  0.1128  0.2700 -0.0278
  453SOL    HW1 2202   2.155   4.597   6.159 -1.2285 -0.3575 -1.3995
  453SOL    HW2 2203   2.091   4.462   6.183  0.6552 -0.8302  1.4114
  454SOL     OW 2204   3.992   0.713   6.697 -0.3295 -0.1915  0.9924
  454SOL    HW1 2205   4.035   0.693   6.780 -0.1125  0.7601  1.1198
  454SOL    HW2 2206   3.963   0.804   6.706 -2.0327 -0.6735  0.7620
  455SOL     OW 2207   8.164   5.835   0.694  0.5141 -0.4393 -0.4396
  455SOL    HW1 2208   8.068   5.829   0.690  0.5253 -0.1784 -1.5619
  455SOL    HW2 2209   8.181   5.918   0.739  0.2447 -1.2689  1.2553
  456SOL     OW 2210   7.259   5.826   7.830  0.3176 -0.2390 -0.3922
  456SOL    HW1 2211   7.320   5.835   7.904 -1.4714 -0.3038  1.1788
  456SOL    HW2 2212   7.279   5.741   7.792  0.8178 -0.5193  0.4695
  457SOL     OW 2213   7.012   3.125   2.532 -0.0647  0.4857 -0.0464
  457SOL    HW1 2214   6.931   3.112   2.582  1.3133  0.3124  2.3059
  457SOL    HW2 2215   7.054   3.200   2.573  1.6840 -0.3568 -0.1891
  458SOL     OW 2216   5.763   6.723   4.053 -0.2351 -0.1248 -0.4333
  458SOL    HW1 2217   5.669   6.709   4.042 -0.1772 -0.7405 -0.1450
  458SOL    HW2 2218   5.777   6.811   4.018 -1.6340  1.8665  3.4810
  459SOL     OW 2219   5.265   7.307   4.405  0.3071 -0.1828 -0.3234
  459SOL    HW1 2220   5.316   7.369   4.457  0.1650  0.1530 -0.5837
  459SOL    HW2 2221   5.316   7.297   4.325  0.5826 -0.7835 -0.0784
  460SOL     OW 2222   2.201   5.184   1.475  0.3851  0.2595  0.1842
  460SOL    HW1 2223   2.291   5.167   1.447  1.0013  0.0822  2.1166
  460SOL    HW2 2224   2.189   5.278   1.459  0.5724  0.0981 -0.9580
  461SOL     OW 2225   5.810   2.246   6.541 -0.1038 -0.4693 -0.2301
  461SOL    HW1 2226   5.887   2.272   6.592 -0.5912 -0.2344  0.4106
  461SOL    HW2 2227   5.745   2.313   6.562 -1.0522 -1.6085  0.6266
  462SOL     OW 2228   0.151   3.496   0.871 -0.0069 -0.1459 -0.5537
  462SOL    HW1 2229   0.073   3.464   0.916 -0.6095  0.6484 -0.9970
  462SOL    HW2 2230   0.118   3.527   0.787  0.4882  1.7862 -0.0868
  463SOL     OW 2231   2.723   7.709   1.572 -0.0020  0.3505 -1.0240
  463SOL    HW1 2232   2.788   7.779   1.575 -0.9112  1.1793  0.2974
  463SOL    HW2 2233   2.774   7.629   1.574  0.9889  0.9799 -0.1380
  464SOL     OW 2234   4.849   7.203   3.880  0.1589 -0.0340  0.3532
  464SOL    HW1 2235   4.868   7.255   3.801  0.6967 -0.0655  0.4564
  464SOL    HW2 2236   4.755   7.212   3.892  0.3127  1.4559  0.7386
  465SOL     OW 2237   4.336   4.019   4.331  0.3384 -0.1359 -0.2639
  465SOL    HW1 2238   4.291   4.048   4.251  1.7992  1.6049 -0.5163
  465SOL    HW2 2239   4.294   4.068   4.401  0.8976  0.4525 -0.3311
  466SOL     OW 2240   7.656   4.304   4.724 -0.2761  0.5952  0.1639
  466SOL    HW1 2241   7.590   4.237   4.742  0.4746 -0.5788 -1.1940
  466SOL    HW2 2242   7.671   4.346   4.809 -1.0634 -0.7029  0.9856
  467SOL     OW 2243   7.966   6.362   2.175 -0.4607 -0.1298  0.1649
  467SOL    HW1 2244   7.957   6.373   2.080 -0.8285 -2.1839 -0.0841
  467SOL    HW2 2245   7.877   6.367   2.208 -0.3979 -0.0896  0.3300
  468SOL     OW 2246   5.567   0.624   2.935  0.4588 -0.1385  0.7959
  468SOL    HW1 2247   5.595   0.685   3.003  1.4534 -1.3078  1.4908
  468SOL    HW2 2248   5.558   0.540   2.981  0.8770 -0.8961 -0.4456
  469SOL     OW 2249   2.890   3.390   7.528 -0.2611  0.0762 -0.1532
  469SOL    HW1 2250   2.864   3.479   7.549  0.7967  0.0267  1.5780
  469SOL    HW2 2251   2.808   3.340   7.524 -0.7393  0.7949  0.5705
  470SOL     OW 2252   2.781   3.994   8.054 -0.4159  0.3219 -0.5665
  470SOL    HW1 2253   2.801   3.918   8.108 -1.3706  1.4212  1.4575
  470SOL    HW2 2254   2.861   4.047   8.057 -0.5143  0.4503 -0.0728
  471SOL     OW 2255   5.140   7.589   5.150 -0.5373  0.2533 -0.0302
  471SOL    HW1 2256   5.115   7.498   5.165  2.1547 -0.6747 -0.5647
  471SOL    HW2 2257   5.150   7.625   5.239  0.1112 -0.5245  0.2266
  472SOL     OW 2258   7.747   4.154   4.371 -0.3518 -0.4393  0.4743
  472SOL    HW1 2259   7.734   4.129   4.463 -2.4029  0.7485  0.5723
  472SOL    HW2 2260   7.678   4.108   4.324  0.5469 -0.8583 -0.4835
  473SOL     OW 2261   5.971   0.917   1.436  0.5380  0.1125 -0.7201
  473SOL    HW1 2262   5.878   0.916   1.460  0.7482 -1.5957  0.1364
  473SOL    HW2 2263   5.971   0.940   1.343 -0.6855  0.8019 -0.5691
  474SOL     OW 2264   5.164   5.789   5.101  0.3818 -0.0961 -0.1578
  474SOL    HW1 2265   5.236   5.781   5.039  0.5629  1.8321 -0.2686
  474SOL    HW2 2266   5.086   5.766   5.051  0.6857  0.0588 -0.7070
  475SOL     OW 2267   5.756   8.121   1.173 -0.2501 -0.2545  0.6527
  475SOL    HW1 2268   5.789   8.179   1.242  2.3321  1.6916 -1.9748
  475SOL    HW2 2269   5.790   8.034   1.197 -2.1246 -0.3633  3.3758
  476SOL     OW 2270   2.161   1.448   2.967 -0.0785  0.2979 -0.4667
  476SOL    HW1 2271   2.117   1.478   3.047  0.9389  1.7499 -0.4185
  476SOL    HW2 2272   2.115   1.492   2.896  0.4801  0.8250 -0.5059
  477SOL     OW 2273   1.485   3.142   2.470 -1.0241  0.4986  0.0788
  477SOL    HW1 2274   1.522   3.230   2.468  1.2983 -0.4112 -1.2053
  477SOL    HW2 2275   1.465   3.122   2.379 -1.6298 -0.2620  0.3695
  478SOL     OW 2276   7.393   8.098   7.581 -0.4092  0.3534 -0.2317
  478SOL    HW1 2277   7.444   8.179   7.579 -1.0090  0.7780  0.7495
  478SOL    HW2 2278   7.457   8.029   7.596  0.2574  0.4784 -2.1188
  479SOL     OW 2279   8.014   1.110   8.055 -0.0614 -0.2077 -0.1813
  479SOL    HW1 2280   7.950   1.047   8.087 -0.5904  0.0107 -0.7784
  479SOL    HW2 2281   8.006   1.184   8.115  0.7497 -0.7982  0.6789
  480SOL     OW 2282   7.006   3.544   6.018  0.3861  0.3878 -0.4012
  480SOL    HW1 2283   7.069   3.570   5.951  0.5958  2.4333  0.4775
  480SOL    HW2 2284   6.935   3.607   6.010 -0.4889 -0.5148  0.0617
  481SOL     OW 2285   5.202   2.719   1.827  0.0973  0.8477 -0.1461
  481SOL    HW1 2286   5.222   2.635   1.785  0.4727  0.8836 -0.0400
  481SOL    HW2 2287   5.239   2.785   1.769  2.0234  0.8372  0.9995
  482SOL     OW 2288   3.936   5.498   6.413  0.1711  0.1539  0.3485
  482SOL    HW1 2289   3.844   5.516   6.394  0.2990  1.8271  1.0958
  482SOL    HW2 2290   3.934   5.446   6.494 -0.1234  0.0814  0.2951
  483SOL     OW 2291   4.791   2.888   5.916 -0.1180 -0.3961  0.5177
  483SOL    HW1 2292   4.729   2.910   5.985 -0.5309  0.6322 -0.1440
  483SOL    HW2 2293   4.738   2.882   5.836  0.5269 -0.0996  0.0479
  484SOL     OW 2294   4.416   2.164   2.604  0.1166  0.0614 -0.0766
  484SOL    HW1 2295   4.417   2.097   2.536  0.2654  1.2602 -1.2974
  484SOL    HW2 2296   4.327   2.160   2.640  0.0166 -0.5279 -0.3778
  485SOL     OW 2297   5.442   7.268   4.151  0.6559  0.2454  0.3405
  485SOL    HW1 2298   5.488   7.347   4.124  0.7261  0.2533  0.4767
  485SOL    HW2 2299   5.471   7.201   4.090  2.1898 -0.1627  1.4386
  486SOL     OW 2300   4.056   3.239   3.232  0.1932  0.5082 -0.4059
  486SOL    HW1 2301   3.993   3.225   3.303 -0.4208  0.7724 -0.8859
  486SOL    HW2 2302   4.108   3.159   3.231 -0.0759  0.3169  0.0601
  487SOL     OW 2303   5.362   6.531   7.534 -0.0450  0.0972  0.1569
  487SOL    HW1 2304   5.285   6.486   7.568 -0.5929 -1.1003 -2.4111
  487SOL    HW2 2305   5.389   6.479   7.458  2.0737  1.6207 -0.2449
  488SOL     OW 2306   6.484   7.933   5.261  0.8481 -0.3848  0.1349
  488SOL    HW1 2307   6.533   7.945   5.343  1.9303 -0.8106 -0.4246
  488SOL    HW2 2308   6.543   7.966   5.193 -1.1568  2.6449 -0.2902
  489SOL     OW 2309   4.883   5.238   5.265  0.5413  0.6593 -0.0277
  489SOL    HW1 2310   4.940   5.253   5.189 -0.8042 -0.3815 -1.3085
  489SOL    HW2 2311   4.928   5.171   5.316  1.2023  0.9756 -0.1851
  490SOL     OW 2312   1.448   4.416   5.966 -0.1899  0.3177  0.1679
  490SOL    HW1 2313   1.450   4.484   6.034  1.6395  1.6789 -1.1490
  490SOL    HW2 2314   1.538   4.385   5.961 -0.5363 -0.5723 -0.8640
  491SOL     OW 2315   7.995   7.764   4.118  0.5249  0.7417  0.1676
  491SOL    HW1 2316   8.045   7.845   4.122  0.1584  0.9567  0.5775
  491SOL    HW2 2317   8.044   7.702   4.172  0.9094  0.6307 -0.3097
  492SOL     OW 2318   7.672   4.683   5.654 -0.0599 -0.1612 -0.1417
  492SOL    HW1 2319   7.768   4.674   5.658 -0.1672 -0.8209  1.8331
  492SOL    HW2 2320   7.644   4.606   5.604  0.4975  0.8375 -2.1015
  493SOL     OW 2321   2.736   6.366   0.008  0.0850  0.2751  0.9240
  493SOL    HW1 2322   2.803   6.311   0.049 -0.0325 -1.8841 -1.5448
  493SOL    HW2 2323   2.783   6.417  -0.057 -0.4077  0.0524  0.3909
  494SOL     OW 2324   1.139   1.986   1.122  0.2795  0.2300  0.9209
  494SOL    HW1 2325   1.139   1.943   1.208  0.8775  0.3462  0.9829
  494SOL    HW2 2326   1.135   1.913   1.059 -0.5372  0.1599  1.0473
  495SOL     OW 2327   1.728   0.328   6.323  0.1969 -0.1008 -0.2021
  495SOL    HW1 2328   1.775   0.302   6.402 -0.1582 -2.0485 -0.5858
  495SOL    HW2 2329   1.797   0.355   6.262  0.6020 -0.3811  0.1278
  496SOL     OW 2330   3.534   4.627   1.891 -0.9987 -0.0838 -0.3334
  496SOL    HW1 2331   3.496   4.660   1.973  0.1679 -0.1306  0.2622
  496SOL    HW2 2332   3.519   4.697   1.828  0.5269  1.2389  0.6537
  497SOL     OW 2333   2.354   6.070   7.017  0.4845  0.3441  0.0615
  497SOL    HW1 2334   2.402   5.997   6.980 -0.5720 -0.1445 -0.3718
  497SOL    HW2 2335   2.415   6.109   7.080  1.3684 -0.3648 -0.3323
  498SOL     OW 2336   4.947   4.114   0.438 -0.0182  0.3078 -0.3682
  498SOL    HW1 2337   4.887   4.163   0.495  0.9487 -0.7491  1.6343
  498SOL    HW2 2338   4.915   4.024   0.440  0.8310 -0.0071 -0.3715
  499SOL     OW 2339   1.090   2.294   5.025  0.2834 -0.3482  0.2586
  499SOL    HW1 2340   0.994   2.290   5.033  0.1643  2.8104  1.7318
  499SOL    HW2 2341   1.106   2.355   4.954  1.1839  0.1612  0.8780
  500SOL     OW 2342   7.090   2.244   5.493  0.2763 -0.2999 -0.5610
  500SOL    HW1 2343   7.081   2.194   5.574 -0.0041  0.7151  0.0379
  500SOL    HW2 2344   7.182   2.231   5.467  0.6812  0.3121  0.5382
  501SOL     OW 2345   1.736   7.449   0.359 -0.2961 -0.5338  0.8892
  501SOL    HW1 2346   1.742   7.530   0.409  1.1203  0.0448 -0.1311
  501SOL    HW2 2347   1.827   7.425   0.341 -0.7230 -1.5381 -0.1097
  502SOL     OW 2348   4.548   4.890   3.597  0.3122  0.2478  0.5139
  502SOL    HW1 2349   4.453   4.882   3.596  0.2276  0.1146  2.9290
  502SOL    HW2 2350   4.571   4.919   3.509 -1.7713 -1.5543 -0.7276
  503SOL     OW 2351   3.365   5.074   7.496  0.4490 -0.3981  0.1593
  503SOL    HW1 2352   3.380   5.082   7.402 -0.1739 -0.7487  0.0196
  503SOL    HW2 2353   3.304   5.000   7.504 -1.8047  1.4035  0.5933
  504SOL     OW 2354   2.402   4.072   6.200  0.0898  0.1181  0.4071
  504SOL    HW1 2355   2.386   4.133   6.128  1.2471  1.1536  0.9984
  504SOL    HW2 2356   2.317   4.032   6.217 -0.3304  0.3205 -1.1084
  505SOL     OW 2357   0.829   0.452   3.593  0.0570  0.6998  0.0214
  505SOL    HW1 2358   0.860   0.516   3.658  1.8632  0.3850 -0.4663
  505SOL    HW2 2359   0.799   0.506   3.520 -2.1883  1.0627  1.1331
  506SOL     OW 2360   7.082   5.679   5.578 -0.0472  0.8638  0.4137
  506SOL    HW1 2361   7.071   5.723   5.494  1.4151  1.4182  0.4741
  506SOL    HW2 2362   7.001   5.696   5.625 -1.6064 -0.9094 -1.4847
  507SOL     OW 2363   6.139   5.714   7.292 -0.2623  0.1003  0.2159
  507SOL    HW1 2364   6.163   5.784   7.232 -1.6980  0.6857  0.2677
  507SOL    HW2 2365   6.051   5.738   7.323 -0.6503 -1.5321  0.5113
  508SOL     OW 2366   5.524   2.558   4.604 -0.4639  0.4136 -0.0121
  508SOL    HW1 2367   5.563   2.473   4.623 -0.1428  0.9568  1.9326
  508SOL    HW2 2368   5.538   2.570   4.510  1.2903 -0.7934  0.0476
  509SOL     OW 2369   4.825   6.110   2.956  0.2877  0.6559 -0.2139
  509SOL    HW1 2370   4.848   6.172   3.025 -0.3604 -0.5368  1.1404
  509SOL    HW2 2371   4.846   6.024   2.993  0.7154  0.0280 -1.8481
  510SOL     OW 2372   4.780   6.752   0.184  0.0766  0.2259 -0.0373
  510SOL    HW1 2373   4.790   6.746   0.279 -0.1408  1.2622  0.0614
  510SOL    HW2 2374   4.703   6.700   0.164 -0.5651  0.9439  0.5044
  511SOL     OW 2375   1.439   2.254   4.522 -0.1622 -0.0689 -0.9193
  511SOL    HW1 2376   1.512   2.315   4.528 -1.3198  1.2871  0.2542
  511SOL    HW2 2377   1.427   2.238   4.429  0.7692  0.7662 -1.1888
  512SOL     OW 2378   0.379   2.607   0.389 -0.3146  0.1174  0.2333
  512SOL    HW1 2379   0.466   2.591   0.424 -0.1290 -0.4809 -0.4668
  512SOL    HW2 2380   0.335   2.660   0.456  0.4124 -0.0006  0.8166
  513SOL     OW 2381   3.153   0.427   4.185 -1.0175  0.0898 -0.0726
  513SOL    HW1 2382   3.063   0.451   4.161 -0.2672  1.5179 -1.6464
  513SOL    HW2 2383   3.208   0.475   4.123  0.8691 -0.3423  1.1885
  514SOL     OW 2384   0.809   0.060   7.716 -0.0337 -0.1604  0.0951
  514SOL    HW1 2385   0.714   0.053   7.705 -0.0231 -1.8998  0.7340
  514SOL    HW2 2386   0.840  -0.031   7.711  1.4709  0.2703  1.0494
  515SOL     OW 2387   5.874   5.634   6.504 -0.0263 -0.0724 -0.2600
  515SOL    HW1 2388   5.859   5.631   6.599 -0.7155 -0.6338 -0.3816
  515SOL    HW2 2389   5.793   5.668   6.468  0.2415  0.1577 -0.6543
  516SOL     OW 2390   5.654   0.082   8.160 -0.2452  0.1406  0.4840
  516SOL    HW1 2391   5.654   0.009   8.099 -0.1930  1.5756 -1.3337
  516SOL    HW2 2392   5.742   0.084   8.196 -0.4939 -1.1806  1.2373
  517SOL     OW 2393   4.504   5.274   1.215 -0.5347  0.0876  0.3663
  517SOL    HW1 2394   4.543   5.355   1.182 -0.3436 -0.9651 -2.2931
  517SOL    HW2 2395   4.418   5.300   1.248  0.4151  1.6847  1.7425
  518SOL     OW 2396   2.834   7.508   4.867 -0.1379 -0.0561  0.3021
  518SOL    HW1 2397   2.776   7.582   4.886 -1.9193 -1.4261  0.3631
  518SOL    HW2 2398   2.805   7.438   4.924  2.3247 -0.5143  1.1370
  519SOL     OW 2399   4.665   4.665   1.952 -0.5202  0.6204  0.5616
  519SOL    HW1 2400   4.634   4.756   1.952 -2.3639  0.0287  0.7717
  519SOL    HW2 2401   4.646   4.633   2.040  1.2150  0.3452  0.8727
  520SOL     OW 2402   3.121   6.881   7.586  0.1130 -0.5500 -0.3902
  520SOL    HW1 2403   3.126   6.944   7.658  0.8233 -1.3010  0.2343
  520SOL    HW2 2404   3.043   6.829   7.604 -1.0648  0.7502 -1.4464
  521SOL     OW 2405   1.907   1.336   6.425  0.0365  0.2823  0.1238
  521SOL    HW1 2406   1.949   1.256   6.454  0.2530  1.1452  2.3771
  521SOL    HW2 2407   1.973   1.380   6.371  0.4264 -0.3942  0.0476
  522SOL     OW 2408   7.105   6.807   4.053 -0.3652 -0.0411  0.1062
  522SOL    HW1 2409   7.144   6.857   3.982 -0.1568 -0.5865 -0.1661
  522SOL    HW2 2410   7.042   6.749   4.010 -0.4005 -0.2161  0.3936
  523SOL     OW 2411   4.415   4.248   1.424 -0.4122 -0.3141 -0.0537
  523SOL    HW1 2412   4.370   4.332   1.417 -1.1926 -0.6614  0.6895
  523SOL    HW2 2413   4.455   4.249   1.510  0.9696 -0.0457 -0.6689
  524SOL     OW 2414   4.157   0.356   3.212 -0.1546  0.4066 -0.6766
  524SOL    HW1 2415   4.186   0.313   3.292 -1.4026  2.1240  0.7674
  524SOL    HW2 2416   4.093   0.295   3.174  1.0001 -0.7592 -0.8289
  525SOL     OW 2417   5.847   1.748   4.839  0.3934  0.5774  0.3330
  525SOL    HW1 2418   5.779   1.815   4.834 -0.9494 -0.8068 -1.2676
  525SOL    HW2 2419   5.813   1.684   4.903  1.2765  0.9762  1.2254
  526SOL     OW 2420   4.632   6.294   7.442  0.5082 -0.3935  0.2342
  526SOL    HW1 2421   4.707   6.267   7.389  1.5187  1.1697  0.8054
  526SOL    HW2 2422   4.588   6.361   7.389 -0.0711 -0.7889  0.2097
  527SOL     OW 2423   7.787   7.527   7.246  0.5101  0.1007  0.0387
  527SOL    HW1 2424   7.749   7.480   7.320 -0.5948 -0.6059 -0.9449
  527SOL    HW2 2425   7.803   7.459   7.180 -0.3760  0.9704 -1.1074
  528SOL     OW 2426   7.726   4.242   3.475  0.3246 -0.2610  0.2045
  528SOL    HW1 2427   7.668   4.305   3.517 -0.7314 -1.0931  0.0344
  528SOL    HW2 2428   7.792   4.296   3.431 -0.3251  0.7099  0.3915
  529SOL     OW 2429   6.458   1.328   7.928  0.3233 -0.5533  0.0103
  529SOL    HW1 2430   6.367   1.355   7.918  0.1999 -1.3554 -1.2160
  529SOL    HW2 2431   6.453   1.248   7.980  0.0503 -2.0165 -2.1174
  530SOL     OW 2432   3.515   5.340   1.052 -0.3657  0.3798  0.9313
  530SOL    HW1 2433   3.513   5.424   1.006  2.9806 -0.1525 -0.4493
  530SOL    HW2 2434   3.449   5.287   1.006 -0.8814  1.5332  0.2926
  531SOL     OW 2435   7.900   7.005   6.330 -0.0037 -0.1892  0.1932
  531SOL    HW1 2436   7.896   7.099   6.345 -1.5764 -0.3635  1.1983
  531SOL    HW2 2437   7.824   6.986   6.276 -0.6884 -1.0694  1.4036
  532SOL     OW 2438   1.990   2.899   7.174 -0.2648  0.6525  0.1420
  532SOL    HW1 2439   1.914   2.944   7.137  0.0513  0.4311 -0.8108
  532SOL    HW2 2440   1.965   2.806   7.173 -0.2272  0.6386  0.4273
  533SOL     OW 2441   1.624   7.981   5.774  0.2350  0.1959 -0.1067
  533SOL    HW1 2442   1.628   7.925   5.852 -0.9577 -1.1883 -0.9679
  533SOL    HW2 2443   1.628   7.919   5.701 -0.6410  1.2957 -1.1198
  534SOL     OW 2444   1.779   6.477   1.128  0.2396 -0.3723 -0.1010
  534SOL    HW1 2445   1.765   6.524   1.045  0.8051 -1.6109 -0.9147
  534SOL    HW2 2446   1.715   6.406   1.126 -1.2336  0.8038  1.5377
  535SOL     OW 2447   5.529   5.080   1.297 -0.2253  0.1849 -0.6219
  535SOL    HW1 2448   5.486   5.011   1.346  0.2802 -0.0298 -0.4757
  535SOL    HW2 2449   5.515   5.159   1.349  0.9435 -0.1657  0.2689
  536SOL     OW 2450   0.238   6.655   3.908  0.5754  0.1131 -0.0079
  536SOL    HW1 2451   0.220   6.563   3.892  0.1103  0.3307 -0.7996
  536SOL    HW2 2452   0.153   6.693   3.929  1.2451 -0.4084  4.7058
  537SOL     OW 2453   1.164   2.312   5.521  1.5384  0.3290  0.6266
  537SOL    HW1 2454   1.202   2.390   5.560 -1.9461  1.7297  1.6860
  537SOL    HW2 2455   1.154   2.333   5.429 -1.1166  2.1085  1.2077
  538SOL     OW 2456   1.637   0.133   3.281  0.1361  0.2689 -0.2420
  538SOL    HW1 2457   1.634   0.202   3.215  0.6424  2.0079  1.4677
  538SOL    HW2 2458   1.551   0.136   3.323  0.5473  0.6778  0.5993
  539SOL     OW 2459   1.990   6.281   5.635 -0.3190  0.3007  0.6868
  539SOL    HW1 2460   1.921   6.252   5.575  0.7550 -3.9969  1.2371
  539SOL    HW2 2461   1.949   6.274   5.722  0.0725  0.1701  0.8598
  540SOL     OW 2462   6.091   0.869   3.228 -0.5641 -0.0874 -0.2599
  540SOL    HW1 2463   6.034   0.921   3.284 -1.3754  0.3738 -1.4631
  540SOL    HW2 2464   6.032   0.832   3.162  0.3778 -0.4722 -0.9034
  541SOL     OW 2465   6.122   3.177   6.092 -0.3471 -0.0024 -0.0619
  541SOL    HW1 2466   6.174   3.130   6.026 -1.1947  1.3655 -1.7907
  541SOL    HW2 2467   6.091   3.109   6.151  2.5753 -0.9890  0.5245
  542SOL     OW 2468   5.346   1.956   1.674 -0.4835 -0.6440  0.9375
  542SOL    HW1 2469   5.255   1.927   1.671 -0.5470 -0.3780  0.0082
  542SOL    HW2 2470   5.380   1.920   1.756 -1.1400 -1.5906  0.8086
  543SOL     OW 2471   5.764   5.261   3.946  0.5959  0.1331 -1.3844
  543SOL    HW1 2472   5.729   5.330   3.890  0.6195 -0.5631 -2.2782
  543SOL    HW2 2473   5.856   5.253   3.920  0.6855  0.0074 -1.0360
  544SOL     OW 2474   2.395   3.235   1.668 -0.1513  0.0572 -0.1701
  544SOL    HW1 2475   2.304   3.260   1.651 -0.3297 -0.7138 -0.3966
  544SOL    HW2 2476   2.434   3.223   1.581 -0.2900 -1.1649 -0.0890
  545SOL     OW 2477   6.766   1.709   2.387 -0.3430 -0.3770  0.1186
  545SOL    HW1 2478   6.760   1.783   2.326 -0.8825 -0.6037 -0.1049
  545SOL    HW2 2479   6.815   1.744   2.462 -1.5273  0.5446  0.5019
  546SOL     OW 2480   4.851   5.428   7.270 -0.4744  0.4427  0.4873
  546SOL    HW1 2481   4.789   5.368   7.230 -2.2119  0.9420  2.2952
  546SOL    HW2 2482   4.937   5.387   7.254 -1.2742 -0.6175 -1.4522
  547SOL     OW 2483   1.572   7.255   2.544  0.3212 -0.7589  0.0783
  547SOL    HW1 2484   1.503   7.316   2.569  0.5089 -0.1984 -0.6942
  547SOL    HW2 2485   1.646   7.312   2.522 -0.1479 -1.0713 -2.7235
  548SOL     OW 2486   0.375   6.720   1.593 -0.7617  0.2498 -0.3548
  548SOL    HW1 2487   0.293   6.693   1.634 -0.0496  0.0990  1.0388
  548SOL    HW2 2488   0.385   6.663   1.517 -1.5245 -0.3085 -0.0385
  549SOL     OW 2489   4.282   1.990   0.787 -0.1974 -0.1783 -0.0063
  549SOL    HW1 2490   4.346   1.925   0.757  0.4736  0.1084  0.7690
  549SOL    HW2 2491   4.215   1.992   0.718  1.2952  0.4995 -1.4918
  550SOL     OW 2492   1.186   4.954   1.680 -0.8136  0.0334 -0.2722
  550SOL    HW1 2493   1.251   4.897   1.638 -2.2946 -2.7262  0.9165
  550SOL    HW2 2494   1.102   4.920   1.651 -1.8607  3.1567 -1.3073
  551SOL     OW 2495   6.787   1.581   6.429  0.1387  0.2094 -0.4432
  551SOL    HW1 2496   6.761   1.659   6.478  0.5195 -0.3217  0.6404
  551SOL    HW2 2497   6.851   1.537   6.486  1.3642  0.0775 -1.8352
  552SOL     OW 2498   6.745   6.615   7.247  0.2257  0.1873  0.1978
  552SOL    HW1 2499   6.716   6.524   7.256  0.9284  0.1649  3.4290
  552SOL    HW2 2500   6.664   6.666   7.247 -0.2162 -0.3832 -2.3379
  553SOL     OW 2501   1.278   3.119   7.836  0.2960 -0.1675  0.1355
  553SOL    HW1 2502   1.351   3.134   7.895 -1.0497  1.9741  1.3818
  553SOL    HW2 2503   1.318   3.100   7.751  2.3054  1.5678  0.6229
  554SOL     OW 2504   2.117   5.750   0.441 -0.4116  0.2331  0.0913
  554SOL    HW1 2505   2.127   5.780   0.531 -1.3410  0.2644  0.1898
  554SOL    HW2 2506   2.163   5.816   0.389 -1.8968  1.5464  0.3593
  555SOL     OW 2507   2.753   6.128   2.750 -0.1519  0.2712  0.0050
  555SOL    HW1 2508   2.663   6.140   2.720 -0.9826  1.0926  2.6175
  555SOL    HW2 2509   2.787   6.058   2.695 -1.3979  1.8151 -2.9789
  556SOL     OW 2510   7.282   4.162   7.489  0.1677  0.6525 -0.0471
  556SOL    HW1 2511   7.361   4.196   7.446 -0.4308  1.5948 -0.4335
  556SOL    HW2 2512   7.313   4.130   7.574  0.8709  1.5996  0.0746
  557SOL     OW 2513   5.401   3.004   4.191 -0.4148  0.3504 -0.5039
  557SOL    HW1 2514   5.363   2.988   4.277  1.3283  1.7238  0.5744
  557SOL    HW2 2515   5.382   2.924   4.141 -1.9441 -0.2364  0.9398
  558SOL     OW 2516   6.067   5.985   7.435  0.1022  0.9375  0.4161
  558SOL    HW1 2517   5.998   5.981   7.369  0.0979  2.8902  0.2529
  558SOL    HW2 2518   6.047   5.912   7.494 -0.8388  0.1570 -0.8206
  559SOL     OW 2519   8.006   8.185   2.790  0.7727  0.7285  0.5636
  559SOL    HW1 2520   7.919   8.163   2.759  0.7982 -0.5134  1.3173
  559SOL    HW2 2521   8.064   8.166   2.716  1.2468 -5.1264  1.9381
  560SOL     OW 2522   1.314   4.547   7.169 -0.7943 -0.1066 -0.4165
  560SOL    HW1 2523   1.256   4.597   7.226 -0.7569 -1.4244  0.8250
  560SOL    HW2 2524   1.396   4.597   7.170 -1.8296  1.7935 -2.2295
  561SOL     OW 2525   1.140   0.294   2.430  0.0477  0.1556  0.2882
  561SOL    HW1 2526   1.091   0.235   2.374 -0.1517 -0.2050  0.8288
  561SOL    HW2 2527   1.189   0.236   2.489 -1.2575  0.4878  1.7926
  562SOL     OW 2528   4.315   6.589   6.516  0.3697 -0.0115  0.0493
  562SOL    HW1 2529   4.330   6.604   6.423 -0.1642 -1.6931 -0.3465
  562SOL    HW2 2530   4.222   6.569   6.523  0.7593 -1.8308  0.6236
  563SOL     OW 2531   3.009   5.612   1.063 -0.3998 -0.7137  0.6773
  563SOL    HW1 2532   3.101   5.602   1.089  0.1306  1.9605  0.0924
  563SOL    HW2 2533   2.997   5.548   0.993  0.7943 -1.6042  1.2388
  564SOL     OW 2534   2.288   6.101   1.784  0.4989  0.0496 -0.5433
  564SOL    HW1 2535   2.353   6.148   1.731  0.0372  0.6001 -0.6322
  564SOL    HW2 2536   2.237   6.170   1.826  0.0009 -0.3766 -0.4370
  565SOL     OW 2537   1.352   8.138   1.624 -0.2588  0.6844  0.8777
  565SOL    HW1 2538   1.443   8.137   1.656  0.3618  0.4721 -0.7658
  565SOL    HW2 2539   1.307   8.073   1.678  0.5476  0.8601  1.7882
  566SOL     OW 2540   7.335   4.838   0.052 -0.0101 -0.0633 -0.6594
  566SOL    HW1 2541   7.362   4.826   0.143  1.1097  0.0490 -0.9693
  566SOL    HW2 2542   7.286   4.920   0.051 -1.0386 -0.6457  0.0447
  567SOL     OW 2543   1.010   3.746   3.378  0.5241  0.6089  0.3347
  567SOL    HW1 2544   0.942   3.770   3.440  0.7147  0.7261  0.4992
  567SOL    HW2 2545   0.997   3.806   3.304 -0.3559 -0.2103 -0.2066
  568SOL     OW 2546   3.251   4.505   2.940 -0.6407  0.3089 -0.7309
  568SOL    HW1 2547   3.201   4.575   2.898 -0.4281  1.6543  1.1189
  568SOL    HW2 2548   3.222   4.506   3.031  0.3422 -1.1486 -0.3599
  569SOL     OW 2549   3.501   7.595   5.248  0.0649  0.2479 -0.0588
  569SOL    HW1 2550   3.507   7.512   5.200 -0.5690 -0.1163  0.4710
  569SOL    HW2 2551   3.581   7.598   5.301  0.4541  0.3421 -0.6482
  570SOL     OW 2552   1.413   3.031   6.328  0.0948  0.0958  0.2760
  570SOL    HW1 2553   1.474   3.095   6.289 -1.1256  1.5632  0.6989
  570SOL    HW2 2554   1.427   2.951   6.277  1.5599  0.7250 -0.3743
  571SOL     OW 2555   6.324   7.335   3.135  0.0100  0.0306 -0.0772
  571SOL    HW1 2556   6.327   7.430   3.124 -0.3207  0.0337 -0.1337
  571SOL    HW2 2557   6.409   7.305   3.104 -0.4601  0.1520 -1.5533
  572SOL     OW 2558   5.013   0.723   3.022  0.7962  0.0972  0.2735
  572SOL    HW1 2559   5.083   0.731   2.957  0.0587 -0.3722 -0.6056
  572SOL    HW2 2560   5.059   0.719   3.106  1.7378  1.3326 -0.1502
  573SOL     OW 2561   1.616   0.673   4.635  0.0805  0.2760 -0.5072
  573SOL    HW1 2562   1.609   0.737   4.705 -1.0339  0.4565 -0.7690
  573SOL    HW2 2563   1.709   0.673   4.612  0.2540  1.0832  0.1508
  574SOL     OW 2564   3.647   5.121   1.139  0.5277  0.3428 -0.0494
  574SOL    HW1 2565   3.656   5.070   1.058  2.3081  1.5131 -0.6426
  574SOL    HW2 2566   3.629   5.210   1.110  1.1591  0.7781  0.8318
  575SOL     OW 2567   2.998   3.274   7.254  0.1666 -0.0698  0.3495
  575SOL    HW1 2568   3.026   3.321   7.333  0.1342 -0.5618  0.6583
  575SOL    HW2 2569   2.902   3.283   7.253  0.3497  2.7687 -1.4330
  576SOL     OW 2570   3.896   1.457   8.005  0.2509  0.2654 -0.1166
  576SOL    HW1 2571   3.979   1.496   8.031  1.2345 -0.0105 -2.5462
  576SOL    HW2 2572   3.845   1.529   7.968  0.8622 -0.1251 -1.8252
  577SOL     OW 2573   4.334   4.321   7.684 -0.2431  0.0614  0.3238
  577SOL    HW1 2574   4.391   4.351   7.754 -2.9603  1.3619  2.1743
  577SOL    HW2 2575   4.314   4.400   7.634  0.4101 -0.5727 -0.9885
  578SOL     OW 2576   4.215   4.209   7.159 -0.4831 -0.4634  0.4612
  578SOL    HW1 2577   4.129   4.238   7.191 -0.2213 -0.2518  0.9815
  578SOL    HW2 2578   4.195   4.131   7.107 -0.8191 -1.5089  2.0727
  579SOL     OW 2579   6.615   7.548   0.640  0.9177  0.5388 -0.3272
  579SOL    HW1 2580   6.521   7.528   0.636  0.3433  2.9214 -0.0473
  579SOL    HW2 2581   6.648   7.496   0.713 -0.3343  0.2410  0.0480
  580SOL     OW 2582   3.862   1.787   4.330  0.2413  0.2166 -0.6617
  580SOL    HW1 2583   3.860   1.700   4.371 -1.3626 -0.2709 -1.7134
  580SOL    HW2 2584   3.954   1.813   4.337  0.1588  0.1688  3.1548
  581SOL     OW 2585   7.012   6.654   5.699 -0.2850 -0.1394 -0.3589
  581SOL    HW1 2586   7.030   6.651   5.793  0.3029  1.6771 -0.3769
  581SOL    HW2 2587   7.082   6.603   5.659 -0.8009 -1.3186  0.1960
  582SOL     OW 2588   1.401   1.780   6.380  0.0995 -0.0881 -0.1240
  582SOL    HW1 2589   1.482   1.815   6.416  0.9517 -1.5579 -0.5522
  582SOL    HW2 2590   1.413   1.783   6.285 -0.7276  0.5088 -0.2286
  583SOL     OW 2591   4.037   3.357   7.916 -0.1510 -0.2192  0.6426
  583SOL    HW1 2592   4.053   3.267   7.888  0.3425 -0.0118  0.2516
  583SOL    HW2 2593   4.110   3.377   7.975 -0.4087 -0.1640  0.9486
  584SOL     OW 2594   6.787   7.680   1.140 -0.2994 -0.0475 -0.0188
  584SOL    HW1 2595   6.766   7.770   1.163  1.7243  0.5219 -0.2426
  584SOL    HW2 2596   6.843   7.649   1.212  2.4500  0.3102 -1.8343
  585SOL     OW 2597   6.045   7.687   2.019  0.2947  0.6794 -0.1219
  585SOL    HW1 2598   6.034   7.614   1.958  1.0328 -0.5707  1.1936
  585SOL    HW2 2599   5.969   7.680   2.078  1.3640 -0.2821  1.2150
  586SOL     OW 2600   4.926   0.340   5.388  0.1230  0.2983 -0.2317
  586SOL    HW1 2601   4.952   0.403   5.455 -0.9612  1.7348 -1.1172
  586SOL    HW2 2602   5.006   0.293   5.366  0.4107 -0.7052  2.5144
  587SOL     OW 2603   6.424   7.436   1.376 -0.5346 -0.0098  0.3500
  587SOL    HW1 2604   6.444   7.356   1.424  0.8587  0.5714  0.7873
  587SOL    HW2 2605   6.352   7.476   1.424 -0.7970 -0.6591  0.5067
  588SOL     OW 2606   1.919   7.323   4.025 -0.1590 -0.1164  0.9240
  588SOL    HW1 2607   1.967   7.313   4.108  0.2305  0.1890  0.7363
  588SOL    HW2 2608   1.969   7.273   3.962  0.2083  0.6318  0.6132
  589SOL     OW 2609   5.303   2.989   2.192  0.2241  0.4338 -0.0084
  589SOL    HW1 2610   5.237   2.961   2.127 -1.5910  0.8286  1.5865
  589SOL    HW2 2611   5.270   3.072   2.225  0.2612 -0.4792  2.5000
  590SOL     OW 2612   7.490   6.552   7.190 -0.4150  0.0631  0.1007
  590SOL    HW1 2613   7.558   6.484   7.187 -0.6035 -0.1819  0.9577
  590SOL    HW2 2614   7.467   6.568   7.099  0.7393  0.0921 -0.1959
  591SOL     OW 2615   2.490   3.799   6.439 -0.1401  0.1192 -0.4453
  591SOL    HW1 2616   2.437   3.741   6.385 -0.6528 -0.2472  0.4231
  591SOL    HW2 2617   2.430   3.870   6.464 -0.1073 -0.0585  0.1643
  592SOL     OW 2618   2.116   5.989   7.139  0.0522 -0.3909 -0.5221
  592SOL    HW1 2619   2.037   6.014   7.092  0.0437 -0.3387 -0.4799
  592SOL    HW2 2620   2.181   6.053   7.112 -0.2004  0.2164  0.2648
  593SOL     OW 2621   7.861   7.555   5.706 -0.2854 -0.1882  0.1849
  593SOL    HW1 2622   7.792   7.573   5.643 -1.1127  0.6581  1.2910
  593SOL    HW2 2623   7.868   7.460   5.708 -1.5962 -0.2965  0.2397
  594SOL     OW 2624   2.654   3.722   0.886  0.3579 -0.4130  0.1582
  594SOL    HW1 2625   2.593   3.709   0.958 -1.7342  1.1919 -1.1908
  594SOL    HW2 2626   2.666   3.635   0.848  0.4403 -1.0461  1.5860
  595SOL     OW 2627   5.549   0.758   3.988 -0.5290 -0.1973 -0.3771
  595SOL    HW1 2628   5.573   0.668   4.012 -0.5954 -0.9508 -2.8514
  595SOL    HW2 2629   5.459   0.767   4.019 -0.6668 -1.1619 -0.4434
  596SOL     OW 2630   6.771   3.640   3.821 -0.8776  0.1484  0.5968
  596SOL    HW1 2631   6.848   3.696   3.816 -1.4380  0.8066 -2.0177
  596SOL    HW2 2632   6.794   3.564   3.766 -1.0239 -1.0908  2.1812
  597SOL     OW 2633   6.098   4.181   6.967  0.5062 -0.1429  0.0842
  597SOL    HW1 2634   6.089   4.259   6.911  0.2238 -0.3810 -0.2089
  597SOL    HW2 2635   6.157   4.124   6.918 -0.0582 -0.5193 -0.1591
  598SOL     OW 2636   4.743   1.890   6.036  0.2962 -0.4748  0.2762
  598SOL    HW1 2637   4.703   1.931   6.112  1.0161  2.5445 -0.8640
  598SOL    HW2 2638   4.827   1.857   6.068  0.9545  1.4811  0.6798
  599SOL     OW 2639   2.352   5.234   3.066  0.6986 -0.0357 -0.3789
  599SOL    HW1 2640   2.444   5.227   3.092  0.4228  0.6318  0.8327
  599SOL    HW2 2641   2.303   5.206   3.143 -0.1326  0.0647 -0.8602
  600SOL     OW 2642   4.524   7.937   7.384  0.0937 -0.3025  0.0366
  600SOL    HW1 2643   4.615   7.934   7.414  0.8027 -0.5914 -2.0172
  600SOL    HW2 2644   4.505   7.847   7.358 -1.4388 -0.6659  2.1138
  601SOL     OW 2645   0.394   1.759   0.387 -0.2368 -0.4628 -0.2242
  601SOL    HW1 2646   0.322   1.708   0.349 -1.1645  1.3485 -1.0398
  601SOL    HW2 2647   0.470   1.737   0.332 -0.5286 -1.2205 -0.3354
  602SOL     OW 2648   2.946   4.994   1.896  0.5029 -0.0441 -0.3023
  602SOL    HW1 2649   2.959   4.956   1.983 -1.2963 -1.4618 -0.5824
  602SOL    HW2 2650   2.873   5.055   1.906  0.5661  0.1121 -0.7337
  603SOL     OW 2651   2.531   7.781   4.401 -0.2346 -0.1687  0.2722
  603SOL    HW1 2652   2.570   7.716   4.460  0.5951  1.1040  1.1794
  603SOL    HW2 2653   2.488   7.843   4.459 -1.2232 -0.0120 -0.5937
  604SOL     OW 2654   1.753   7.921   6.921  0.0726  0.9240  0.2497
  604SOL    HW1 2655   1.784   8.007   6.950  3.1734  0.3246 -0.9067
  604SOL    HW2 2656   1.830   7.879   6.882 -1.5221 -2.0700 -0.0117
  605SOL     OW 2657   2.255   5.098   6.550 -0.7642 -0.2937 -0.0185
  605SOL    HW1 2658   2.336   5.145   6.571 -1.2557  0.3833  0.4115
  605SOL    HW2 2659   2.284   5.014   6.514  0.1406  0.3730 -0.8891
  606SOL     OW 2660   4.923   6.073   2.412 -0.0756 -0.0737  0.8380
  606SOL    HW1 2661   4.892   6.043   2.498 -1.7811  1.3509  0.7784
  606SOL    HW2 2662   4.864   6.144   2.389  1.0761  0.3469 -1.0174
  607SOL     OW 2663   7.815   2.378   0.132  0.1961  0.2276 -0.2164
  607SOL    HW1 2664   7.907   2.400   0.142 -0.1483  1.0765  1.4247
  607SOL    HW2 2665   7.768   2.457   0.161 -1.0373 -0.8736  0.9538
  608SOL     OW 2666   6.909   6.411   5.231 -0.1022 -0.0537 -0.3727
  608SOL    HW1 2667   6.963   6.484   5.201  0.2604  0.5972  1.7116
  608SOL    HW2 2668   6.820   6.448   5.234 -0.3427 -0.4699 -1.6775
  609SOL     OW 2669   3.432   0.382   2.833  0.1205  0.4910 -0.0463
  609SOL    HW1 2670   3.374   0.448   2.796 -1.1695 -1.5078 -1.8174
  609SOL    HW2 2671   3.408   0.378   2.925 -1.6296  0.6784 -0.4561
  610SOL     OW 2672   5.650   7.018   5.420  0.4043 -0.2394 -0.0611
  610SOL    HW1 2673   5.632   6.946   5.481 -0.4563  0.4125  0.4845
  610SOL    HW2 2674   5.589   7.004   5.347  1.3412 -0.9442 -0.7253
  611SOL     OW 2675   6.595   1.697   3.563  0.3036 -0.6315 -0.0625
  611SOL    HW1 2676   6.670   1.725   3.511  1.8183 -3.4144  0.4750
  611SOL    HW2 2677   6.603   1.747   3.644  3.0915 -2.5805  1.0031
  612SOL     OW 2678   1.093   3.188   4.968 -0.9659  0.6077 -0.5774
  612SOL    HW1 2679   1.024   3.247   4.997 -2.2495 -1.0073 -0.2390
  612SOL    HW2 2680   1.149   3.243   4.913 -2.8630  1.8235 -1.3965
  613SOL     OW 2681   4.258   6.034   6.388 -0.5708 -1.3276  0.7058
  613SOL    HW1 2682   4.349   6.039   6.417 -0.4929 -0.0150  0.2968
  613SOL    HW2 2683   4.224   6.122   6.401 -2.4412 -2.2559  2.8490
  614SOL     OW 2684   4.744   1.957   1.358 -0.2756  0.1647 -0.7483
  614SOL    HW1 2685   4.817   1.915   1.404 -1.0057 -0.2751  0.0384
  614SOL    HW2 2686   4.736   1.908   1.276  0.1116  0.0123 -0.6998
  615SOL     OW 2687   3.085   4.848   4.718 -0.3706  0.1345  0.1569
  615SOL    HW1 2688   3.011   4.800   4.757  0.9421 -1.7791  0.4212
  615SOL    HW2 2689   3.137   4.875   4.793 -0.5426  1.0620 -0.0532
  616SOL     OW 2690   5.576   1.442   6.582  0.0168  0.1214  0.2490
  616SOL    HW1 2691   5.644   1.508   6.598  1.0557 -1.1214  1.1590
  616SOL    HW2 2692   5.505   1.491   6.540  0.4741  1.9637  1.4731
  617SOL     OW 2693   3.794   6.680   5.797 -0.0552 -0.7435  0.6022
  617SOL    HW1 2694   3.794   6.661   5.890  1.4960 -1.7350  0.4276
  617SOL    HW2 2695   3.886   6.696   5.775 -0.1498 -2.2283 -1.0615
  618SOL     OW 2696   2.901   1.300   3.572  0.5083  0.0557  0.0876
  618SOL    HW1 2697   2.825   1.295   3.515  2.5451  0.8734 -2.9734
  618SOL    HW2 2698   2.959   1.363   3.529  2.9367 -0.5334  2.2318
  619SOL     OW 2699   8.199   3.595   0.648  0.0058  0.3223 -0.5277
  619SOL    HW1 2700   8.119   3.619   0.602  0.3520  0.7784 -0.9106
  619SOL    HW2 2701   8.268   3.643   0.602  0.8507 -2.0082 -1.8745
  620SOL     OW 2702   7.840   4.734   4.031  0.3611  0.1614  0.0374
  620SOL    HW1 2703   7.867   4.771   3.946 -1.9790 -0.0109 -0.8708
  620SOL    HW2 2704   7.877   4.646   4.031  1.0828  0.4522 -0.4380
  621SOL     OW 2705   5.732   2.773   0.144  0.2223  0.2941 -0.1812
  621SOL    HW1 2706   5.736   2.805   0.053 -0.1457  0.7872 -0.0264
  621SOL    HW2 2707   5.639   2.759   0.160  0.4071 -1.2888 -0.3827
  622SOL     OW 2708   6.808   1.568   0.799 -0.1722  0.0513 -0.0551
  622SOL    HW1 2709   6.760   1.559   0.717 -1.6251  1.4821  0.6026
  622SOL    HW2 2710   6.788   1.487   0.847  2.0020 -1.5783 -1.6854
  623SOL     OW 2711   2.691   2.186   7.064  0.2685 -0.4230 -0.5430
  623SOL    HW1 2712   2.658   2.109   7.110 -0.2110  0.5013  0.7327
  623SOL    HW2 2713   2.765   2.216   7.117 -0.9647  1.2957  0.3039
  624SOL     OW 2714   3.399   7.436   4.343  0.5294 -0.6187 -0.3259
  624SOL    HW1 2715   3.439   7.483   4.416  0.0685  1.3027 -1.2331
  624SOL    HW2 2716   3.307   7.428   4.366  0.6044 -1.0743 -0.1796
  625SOL     OW 2717   0.138   6.672   1.709 -0.0159  0.2380  0.3370
  625SOL    HW1 2718   0.081   6.696   1.635 -0.2001  0.0150  0.4037
  625SOL    HW2 2719   0.077   6.641   1.776  0.0896  1.1989  0.8899
  626SOL     OW 2720   5.042   1.835   0.555 -0.1646  0.1692  0.6294
  626SOL    HW1 2721   5.110   1.890   0.594 -0.4730  1.0813 -0.0807
  626SOL    HW2 2722   4.978   1.897   0.520 -0.9901 -0.6638  0.6220
  627SOL     OW 2723   6.586   1.305   6.175  0.1582 -0.2237  0.5332
  627SOL    HW1 2724   6.676   1.314   6.206 -0.4909  1.1942  2.1179
  627SOL    HW2 2725   6.543   1.253   6.243 -0.2333 -0.9590 -0.2552
  628SOL     OW 2726   7.007   7.104   5.829  0.5553 -0.2801 -0.3186
  628SOL    HW1 2727   7.038   7.129   5.742 -0.3819 -1.9131 -1.1596
  628SOL    HW2 2728   7.073   7.141   5.889  1.2732  0.7812 -1.6963
  629SOL     OW 2729   3.526   7.564   6.460 -0.1954  0.0011 -0.6448
  629SOL    HW1 2730   3.483   7.561   6.375 -0.5203  1.8131 -0.5888
  629SOL    HW2 2731   3.483   7.495   6.511  0.5680 -1.6746 -2.1482
  630SOL     OW 2732   4.578   2.423   1.631 -0.2879 -0.1920  0.3901
  630SOL    HW1 2733   4.647   2.359   1.613 -0.3279  0.1185 -0.9270
  630SOL    HW2 2734   4.548   2.400   1.719  0.4029 -1.3377  0.3567
  631SOL     OW 2735   1.377   2.523   2.561 -0.1335 -0.4756 -0.3851
  631SOL    HW1 2736   1.394   2.433   2.532 -1.1154 -1.2967  1.4397
  631SOL    HW2 2737   1.296   2.517   2.611  0.7792  1.0428  1.4102
  632SOL     OW 2738   3.162   0.335   6.900  0.1132 -0.4169  0.2894
  632SOL    HW1 2739   3.112   0.351   6.820 -0.0664 -0.5018  0.3820
  632SOL    HW2 2740   3.196   0.246   6.891  3.8597  1.0129 -1.6933
  633SOL     OW 2741   0.658   2.602   2.026  0.1131  0.2129 -0.5933
  633SOL    HW1 2742   0.675   2.601   1.932 -1.9434 -0.5553 -1.0197
  633SOL    HW2 2743   0.702   2.524   2.059 -1.8092 -1.3780 -1.5355
  634SOL     OW 2744   1.054   4.067   3.252  0.1910 -0.0261  0.3516
  634SOL    HW1 2745   1.112   4.033   3.184  2.0841  1.2580  1.2504
  634SOL    HW2 2746   1.112   4.113   3.313 -1.8031  1.8162  1.0031
  635SOL     OW 2747   1.877   2.599   4.932  0.5286 -0.8055  0.3033
  635SOL    HW1 2748   1.882   2.605   4.837 -3.5671  1.3925 -0.0194
  635SOL    HW2 2749   1.854   2.508   4.949 -2.6923 -0.4511 -1.3375
  636SOL     OW 2750   3.200   5.865   0.873 -0.1874 -0.0920  0.6720
  636SOL    HW1 2751   3.131   5.883   0.937  0.1031  0.7686  0.7559
  636SOL    HW2 2752   3.200   5.942   0.816  0.7391 -0.0691  0.6964
  637SOL     OW 2753   0.128   4.953   0.702 -0.1779 -0.2311  0.1524
  637SOL    HW1 2754   0.107   4.869   0.662 -1.2725 -0.3520  0.9424
  637SOL    HW2 2755   0.127   5.015   0.630 -1.4813 -0.5507 -0.1266
  638SOL     OW 2756   3.153   0.715   3.478  0.2679 -0.1808  0.8829
  638SOL    HW1 2757   3.215   0.673   3.538  0.1888 -0.1133  1.0105
  638SOL    HW2 2758   3.083   0.747   3.534 -1.1462 -2.4272  0.5367
  639SOL     OW 2759   4.517   8.148   7.214 -0.1417 -0.3814 -0.1363
  639SOL    HW1 2760   4.515   8.091   7.291  1.7245  1.1787  1.1422
  639SOL    HW2 2761   4.431   8.191   7.213 -0.2102 -0.4815  1.0196
  640SOL     OW 2762   5.647   5.015   4.049  0.6178  0.5624  0.2161
  640SOL    HW1 2763   5.689   5.092   4.009  0.4370  0.5324 -0.0346
  640SOL    HW2 2764   5.719   4.953   4.062  0.3551 -0.4799 -2.5123
  641SOL     OW 2765   2.790   1.892   2.667 -0.0823  0.2569 -0.5110
  641SOL    HW1 2766   2.837   1.913   2.586  0.8197  0.8239  0.1519
  641SOL    HW2 2767   2.795   1.971   2.719  0.6227 -0.5692  0.7171
  642SOL     OW 2768   6.582   5.076   6.889  0.4653 -0.2092  0.0181
  642SOL    HW1 2769   6.600   5.007   6.826  0.7179 -0.2607  0.1435
  642SOL    HW2 2770   6.536   5.144   6.838  2.2961  0.5702 -0.6932
  643SOL     OW 2771   2.491   1.563   0.186 -0.3405  0.0520  0.2008
  643SOL    HW1 2772   2.537   1.494   0.235  0.8243  0.5210 -0.1874
  643SOL    HW2 2773   2.404   1.527   0.171 -0.4487 -0.4613  1.8376
  644SOL     OW 2774   5.848   0.475   7.414 -0.3426  0.1469 -0.0886
  644SOL    HW1 2775   5.880   0.390   7.442  0.2844  0.3682 -0.1252
  644SOL    HW2 2776   5.806   0.458   7.329 -0.2418 -0.1322 -0.0830
  645SOL     OW 2777   2.504   4.539   6.612  0.0941  0.1582 -0.5458
  645SOL    HW1 2778   2.433   4.513   6.552 -0.5054  0.0254  0.2126
  645SOL    HW2 2779   2.480   4.627   6.640 -4.0273 -2.2965  5.6180
  646SOL     OW 2780   6.933   7.860   5.246 -0.1367 -0.6444  0.1745
  646SOL    HW1 2781   6.850   7.894   5.280  1.7102  2.4572  1.9893
  646SOL    HW2 2782   6.921   7.859   5.151 -1.8036  1.1473  0.2997
  647SOL     OW 2783   2.936   6.379   0.810 -0.0216  0.0617  0.3100
  647SOL    HW1 2784   2.894   6.415   0.732 -0.8271 -1.1750  0.1459
  647SOL    HW2 2785   2.864   6.345   0.863  0.4626  1.3068  1.8556
  648SOL     OW 2786   0.480   0.238   0.693 -0.5729 -0.2500  0.4498
  648SOL    HW1 2787   0.427   0.295   0.639 -1.7441 -0.2697  1.5257
  648SOL    HW2 2788   0.569   0.272   0.685 -1.1377  1.3294  0.5605
  649SOL     OW 2789   6.133   6.300   5.761  0.0559 -0.0450 -0.2496
  649SOL    HW1 2790   6.089   6.215   5.765 -0.3144  0.0123 -2.0178
  649SOL    HW2 2791   6.199   6.289   5.692  0.0583  1.0636 -0.4439
  650SOL     OW 2792   5.259   2.249   6.185  0.0554  1.2356 -0.2887
  650SOL    HW1 2793   5.276   2.229   6.277 -0.2011  0.6943 -0.3579
  650SOL    HW2 2794   5.336   2.217   6.139 -0.0517  1.0256 -0.3222
  651SOL     OW 2795   5.729   7.258   4.070 -0.0280 -0.5703 -0.1930
  651SOL    HW1 2796   5.819   7.229   4.070  0.6809  1.4389 -0.6119
  651SOL    HW2 2797   5.678   7.184   4.038  1.3404 -2.0279  0.8812
  652SOL     OW 2798   7.683   6.239   3.800  0.3814 -0.2795 -0.2536
  652SOL    HW1 2799   7.757   6.294   3.824  0.4844 -1.7373  3.3280
  652SOL    HW2 2800   7.614   6.301   3.775  1.7188  1.2208 -0.3808
  653SOL     OW 2801   1.377   0.075   2.784 -0.0532 -0.1980 -0.1709
  653SOL    HW1 2802   1.316   0.001   2.780 -0.2640 -0.0509  0.3476
  653SOL    HW2 2803   1.368   0.118   2.699  0.1053 -0.7936 -0.5006
  654SOL     OW 2804   5.706   3.191   0.812  0.4504  0.3171 -0.3923
  654SOL    HW1 2805   5.648   3.266   0.819  0.7406  0.3895  1.8543
  654SOL    HW2 2806   5.648   3.115   0.813  0.3169  0.4262  0.6296
  655SOL     OW 2807   0.692   1.051   1.088 -0.0846 -0.1177  0.1142
  655SOL    HW1 2808   0.626   1.056   1.157 -1.3261 -2.1524 -0.8350
  655SOL    HW2 2809   0.646   1.079   1.009  0.2127 -1.3255 -0.5128
  656SOL     OW 2810   0.082   7.494   4.961  0.3152 -0.7507  0.0943
  656SOL    HW1 2811   0.107   7.525   4.874 -1.4309  1.6665  0.3277
  656SOL    HW2 2812  -0.006   7.458   4.950 -1.0085  1.8800  1.1641
  657SOL     OW 2813   0.114   4.679   5.478 -0.2145  0.7348  0.7595
  657SOL    HW1 2814   0.071   4.718   5.554  1.4899  2.0006  1.1167
  657SOL    HW2 2815   0.207   4.680   5.499  0.4119  1.9260 -1.6695
  658SOL     OW 2816   6.800   4.161   6.554  0.4048 -0.6682  0.1504
  658SOL    HW1 2817   6.725   4.183   6.608 -0.9840 -1.7497 -1.2623
  658SOL    HW2 2818   6.863   4.231   6.571 -0.0532 -0.8299  2.9147
  659SOL     OW 2819   0.720   5.137   4.371 -0.2441  0.9184 -0.0342
  659SOL    HW1 2820   0.687   5.086   4.297  1.0632 -0.5267  0.3260
  659SOL    HW2 2821   0.654   5.125   4.439 -0.8594  1.2548 -0.5592
  660SOL     OW 2822   0.645   8.066   5.198  0.2179 -0.2172  0.3980
  660SOL    HW1 2823   0.554   8.061   5.168  0.8705 -1.0791 -1.5937
  660SOL    HW2 2824   0.671   7.975   5.212  0.4742  0.0791  2.0303
  661SOL     OW 2825   5.373   3.235   7.783  0.4613  0.5206  0.0029
  661SOL    HW1 2826   5.335   3.321   7.801 -0.9585 -0.2668  1.0346
  661SOL    HW2 2827   5.309   3.173   7.820  2.5220 -0.9155  1.3579
  662SOL     OW 2828   6.013   1.247   3.322  0.5003  0.2577 -0.0448
  662SOL    HW1 2829   5.955   1.239   3.247 -0.4910  2.1407  0.4542
  662SOL    HW2 2830   6.070   1.321   3.300  1.2568 -0.1634  0.4223
  663SOL     OW 2831   5.649   7.858   7.790  0.3955  0.1890 -0.0905
  663SOL    HW1 2832   5.683   7.850   7.879 -1.7005  0.5647  0.7995
  663SOL    HW2 2833   5.663   7.772   7.751 -1.6476 -1.1137  1.7891
  664SOL     OW 2834   6.625   1.249   7.411 -0.2621  0.8324  0.6135
  664SOL    HW1 2835   6.700   1.192   7.394 -1.6584 -0.7675 -0.3928
  664SOL    HW2 2836   6.644   1.328   7.359  0.3154  0.0885 -0.3461
  665SOL     OW 2837   1.885   5.918   5.563 -0.0647 -0.4346  0.1495
  665SOL    HW1 2838   1.826   5.960   5.501 -0.6189 -0.7902  0.4228
  665SOL    HW2 2839   1.962   5.893   5.511 -0.6210 -0.9361 -0.4447
  666SOL     OW 2840   1.728   5.908   3.431  0.1944  0.1962  0.3807
  666SOL    HW1 2841   1.661   5.947   3.375 -1.3546 -1.9768  0.5893
  666SOL    HW2 2842   1.692   5.823   3.457  2.1512 -0.1715  2.2382
  667SOL     OW 2843   1.190   2.840   1.412 -0.0068  0.3088 -0.1896
  667SOL    HW1 2844   1.161   2.834   1.321 -0.4352 -0.1951 -0.0217
  667SOL    HW2 2845   1.113   2.873   1.459 -0.4924 -1.4797  0.3349
  668SOL     OW 2846   6.434   6.224   7.798  0.4979 -0.4771 -1.0188
  668SOL    HW1 2847   6.457   6.133   7.776  0.7870 -0.5756 -0.3255
  668SOL    HW2 2848   6.341   6.220   7.820  0.7787 -0.8209  0.1398
  669SOL     OW 2849   3.338   4.425   7.374 -0.4395 -0.2038 -0.2025
  669SOL    HW1 2850   3.257   4.392   7.412 -0.7277 -0.1179 -0.7231
  669SOL    HW2 2851   3.309   4.489   7.309  0.0937  0.8266  0.5396
  670SOL     OW 2852   2.687   2.922   4.555  0.4649 -0.6254  0.0342
  670SOL    HW1 2853   2.593   2.933   4.574  0.5254  1.0137 -0.4528
  670SOL    HW2 2854   2.689   2.882   4.468  0.2029 -0.6153  0.0223
  671SOL     OW 2855   8.105   2.771   0.960  0.5201 -0.0822 -0.3727
  671SOL    HW1 2856   8.076   2.805   1.045 -1.3899 -0.8636 -0.6528
  671SOL    HW2 2857   8.157   2.841   0.923  1.2690  0.3453  1.3633
  672SOL     OW 2858   2.895   7.205   6.044 -0.2745  0.1906 -0.1305
  672SOL    HW1 2859   2.902   7.273   6.111 -1.3371  1.0451 -0.8542
  672SOL    HW2 2860   2.808   7.167   6.056  0.1076 -0.6894 -0.0721
  673SOL     OW 2861   4.899   6.982   0.095  0.0396 -0.6132  0.1844
  673SOL    HW1 2862   4.879   6.982   0.001  1.6873 -0.5222 -0.1881
  673SOL    HW2 2863   4.859   6.902   0.128 -0.4581 -0.7076 -0.6084
  674SOL     OW 2864   6.081   2.107   6.734 -0.2142  0.0807 -0.3814
  674SOL    HW1 2865   6.099   2.201   6.745 -3.0639  0.6929 -0.0310
  674SOL    HW2 2866   6.081   2.095   6.639 -0.7251  0.6655 -0.4652
  675SOL     OW 2867   2.977   0.780   3.698 -0.2027  0.0896 -0.1491
  675SOL    HW1 2868   2.918   0.834   3.751  0.3472  0.3160  0.2420
  675SOL    HW2 2869   2.956   0.690   3.723  0.8563  0.2221  1.3675
  676SOL     OW 2870   5.519   5.357   6.343  0.3670 -0.1756 -0.0617
  676SOL    HW1 2871   5.464   5.435   6.333  2.2586  1.1295 -0.7662
  676SOL    HW2 2872   5.608   5.391   6.347  1.2352 -2.3130 -0.1377
  677SOL     OW 2873   2.632   4.896   5.291  0.0614 -0.1720  0.1531
  677SOL    HW1 2874   2.600   4.981   5.321  0.1372 -0.2912  0.5698
  677SOL    HW2 2875   2.652   4.910   5.198  1.4541  0.6687  0.5602
  678SOL     OW 2876   7.053   3.863   4.778 -0.6191  0.0193 -0.1416
  678SOL    HW1 2877   7.123   3.818   4.730  0.6168 -0.7889  2.2172
  678SOL    HW2 2878   7.075   3.848   4.870  0.7524  6.6105  1.1027
  679SOL     OW 2879   1.660   0.672   5.755 -0.5007  0.0392  0.5245
  679SOL    HW1 2880   1.586   0.731   5.750 -0.0855  0.5932  0.8214
  679SOL    HW2 2881   1.734   0.727   5.780  0.3939 -0.1448 -1.5014
  680SOL     OW 2882   4.440   3.042   0.014 -0.7026  0.1309  0.2227
  680SOL    HW1 2883   4.458   2.977  -0.054  2.5293  0.6886  0.3605
  680SOL    HW2 2884   4.490   3.011   0.090 -2.4639  0.6629  1.6599
  681SOL     OW 2885   1.772   1.417   6.705  0.1477  0.1906  0.2282
  681SOL    HW1 2886   1.823   1.491   6.737 -2.4080  2.4040 -0.4173
  681SOL    HW2 2887   1.814   1.391   6.623  1.8873 -0.0529  1.1641
  682SOL     OW 2888   1.645   6.863   0.647 -0.4055  0.7279 -0.0283
  682SOL    HW1 2889   1.732   6.895   0.623  0.1239 -1.2069 -0.8698
  682SOL    HW2 2890   1.604   6.842   0.563 -0.0815 -2.2604  0.4380
  683SOL     OW 2891   2.609   1.926   4.817 -0.2876  0.3710  0.7090
  683SOL    HW1 2892   2.552   1.980   4.872 -1.5539 -0.4498  0.2442
  683SOL    HW2 2893   2.630   1.850   4.872 -0.3021  0.2813  0.5905
  684SOL     OW 2894   1.711   3.751   5.837 -0.2578 -0.2172  0.1375
  684SOL    HW1 2895   1.686   3.693   5.910 -1.0157 -0.7457 -0.5260
  684SOL    HW2 2896   1.745   3.691   5.770  0.4207  0.2671  0.0376
  685SOL     OW 2897   6.302   6.693   8.081 -0.8912  0.6149 -0.0818
  685SOL    HW1 2898   6.296   6.719   7.989 -0.9235 -0.5113 -0.4053
  685SOL    HW2 2899   6.387   6.725   8.110 -0.4917  0.1846 -0.7622
  686SOL     OW 2900   0.968   1.925   5.225  0.3401 -0.0307 -0.0067
  686SOL    HW1 2901   1.050   1.973   5.222 -0.3698  1.2054 -0.7153
  686SOL    HW2 2902   0.909   1.982   5.276 -0.6662  0.1266 -1.2854
  687SOL     OW 2903   3.665   4.110   5.267 -0.4226  0.6815 -0.1703
  687SOL    HW1 2904   3.621   4.140   5.347 -1.1538  1.3536 -0.8009
  687SOL    HW2 2905   3.667   4.015   5.275 -1.6716  0.6509  0.0720
  688SOL     OW 2906   0.546   1.144   0.873 -0.2197  0.2716  0.5790
  688SOL    HW1 2907   0.468   1.090   0.862 -0.5689  1.0394 -0.7914
  688SOL    HW2 2908   0.513   1.231   0.896  0.2745  0.4020  0.8175
  689SOL     OW 2909   5.971   4.880   1.422 -0.2968  0.0363  0.6858
  689SOL    HW1 2910   5.908   4.952   1.426 -0.6032 -0.1920 -0.0069
  689SOL    HW2 2911   6.049   4.918   1.383 -0.4493  0.0030  0.3459
  690SOL     OW 2912   1.359   6.071   1.576  0.0789  0.0039  0.7438
  690SOL    HW1 2913   1.346   5.985   1.536 -2.0294  0.3629  0.5595
  690SOL    HW2 2914   1.450   6.094   1.555 -0.1464 -0.9657 -1.5640
  691SOL     OW 2915   1.196   5.327   1.227  0.1854  0.2470  0.4660
  691SOL    HW1 2916   1.178   5.415   1.194  0.6236  0.4761  0.8289
  691SOL    HW2 2917   1.255   5.289   1.162 -2.4810 -0.9635 -1.3992
  692SOL     OW 2918   0.871   3.056   2.928 -0.0161  0.1627 -0.4940
  692SOL    HW1 2919   0.808   3.106   2.876  1.0895  0.7758 -1.2789
  692SOL    HW2 2920   0.954   3.103   2.918  0.6653 -0.8442  0.1956
  693SOL     OW 2921   4.224   3.061   2.872 -0.4826 -0.6062  0.5753
  693SOL    HW1 2922   4.259   3.133   2.925 -0.7377 -1.0052  1.2958
  693SOL    HW2 2923   4.177   3.105   2.801 -0.7454 -0.0551  1.0792
  694SOL     OW 2924   7.826   2.891   6.284 -0.6213  0.2045 -0.1911
  694SOL    HW1 2925   7.821   2.917   6.376  2.5849 -1.3993  0.5720
  694SOL    HW2 2926   7.769   2.815   6.277  0.3432 -0.6337  0.8891
  695SOL     OW 2927   3.847   4.729   5.939  0.3867 -0.7712  0.0797
  695SOL    HW1 2928   3.837   4.720   5.845  0.3834 -0.8250  0.0849
  695SOL    HW2 2929   3.781   4.794   5.964  0.4700 -0.6663  0.0282
  696SOL     OW 2930   7.406   4.606   2.731 -0.6521 -0.5695 -0.3019
  696SOL    HW1 2931   7.405   4.584   2.824 -2.6949 -0.7131 -0.2960
  696SOL    HW2 2932   7.387   4.700   2.728  0.5285 -0.3274 -0.5568
  697SOL     OW 2933   1.796   0.077   4.857 -0.3787  0.7174  0.2955
  697SOL    HW1 2934   1.824   0.136   4.786 -1.5238  1.5503  0.4994
  697SOL    HW2 2935   1.735   0.017   4.815  0.8455 -0.4027  0.0745
  698SOL     OW 2936   6.267   3.107   7.311  0.3223 -0.4102  0.4128
  698SOL    HW1 2937   6.177   3.089   7.285  0.9649 -0.8926 -1.6384
  698SOL    HW2 2938   6.274   3.202   7.313 -0.8155 -0.2958  2.9467
  699SOL     OW 2939   5.749   7.721   1.317 -0.2209 -0.2517 -0.1010
  699SOL    HW1 2940   5.818   7.658   1.340  0.7012  1.4432  2.2560
  699SOL    HW2 2941   5.667   7.673   1.332  0.4076 -1.7320 -1.1627
  700SOL     OW 2942   5.928   5.610   3.133 -0.4247  0.3687  0.8332
  700SOL    HW1 2943   5.988   5.598   3.060 -0.6139 -0.4186  0.8005
  700SOL    HW2 2944   5.984   5.608   3.211 -0.3119  0.4878  0.7552
  701SOL     OW 2945   5.221   2.205   3.678  0.3432 -0.1269 -0.9128
  701SOL    HW1 2946   5.216   2.109   3.670 -1.4157 -0.1500 -0.0012
  701SOL    HW2 2947   5.308   2.221   3.715  0.2315 -1.4763  0.0403
  702SOL     OW 2948   3.301   1.605   4.853 -0.6579 -0.1155  0.4507
  702SOL    HW1 2949   3.212   1.640   4.853  0.1663  2.1473  0.5083
  702SOL    HW2 2950   3.343   1.647   4.928  1.0827  0.6733 -0.8959
  703SOL     OW 2951   4.485   3.758   4.301 -0.5543 -0.0368  0.8333
  703SOL    HW1 2952   4.433   3.838   4.311 -1.0069 -0.0967 -0.7196
  703SOL    HW2 2953   4.542   3.777   4.227 -0.7221 -1.1681  0.3985
  704SOL     OW 2954   0.815   7.379   3.905 -0.4428 -0.0646 -0.1019
  704SOL    HW1 2955   0.803   7.321   3.980  1.1099 -0.4312 -0.1026
  704SOL    HW2 2956   0.792   7.466   3.939 -1.5047 -0.4741  0.2678
  705SOL     OW 2957   6.260   5.421   2.021 -0.4642 -0.3946  0.1935
  705SOL    HW1 2958   6.314   5.489   2.062 -0.5589  0.0753 -0.4437
  705SOL    HW2 2959   6.318   5.346   2.013 -0.3642 -0.3975  0.9304
  706SOL     OW 2960   3.854   4.427   6.409 -0.2689 -0.2839 -0.1488
  706SOL    HW1 2961   3.791   4.357   6.395 -0.8475  0.2701 -0.3888
  706SOL    HW2 2962   3.823   4.499   6.354 -1.1252  1.0350  1.9011
  707SOL     OW 2963   4.121   3.140   0.642  0.3952 -0.3121 -0.0278
  707SOL    HW1 2964   4.079   3.225   0.660  1.0598 -0.2761  1.5964
  707SOL    HW2 2965   4.210   3.151   0.675  0.6988 -1.4212 -0.4480
  708SOL     OW 2966   4.578   1.068   3.114 -0.2173 -0.1835  0.4390
  708SOL    HW1 2967   4.642   1.124   3.158 -2.0104  2.5369 -0.1022
  708SOL    HW2 2968   4.630   1.015   3.053  1.6193  1.1971  0.7026
  709SOL     OW 2969   1.687   6.986   3.467 -0.2279 -0.1754  0.4975
  709SOL    HW1 2970   1.683   7.081   3.481 -1.2228 -0.0307 -0.6838
  709SOL    HW2 2971   1.607   6.953   3.508  0.4192 -0.5983  1.4571
  710SOL     OW 2972   3.754   3.281   7.977 -0.1194 -0.0112 -0.1870
  710SOL    HW1 2973   3.790   3.193   7.969  1.4372  0.4268  1.3543
  710SOL    HW2 2974   3.830   3.339   7.971 -0.4100  0.9410  3.1687
  711SOL     OW 2975   4.056   5.177   2.239  0.6405  0.2606 -0.0556
  711SOL    HW1 2976   4.013   5.236   2.177  0.5626  0.3958  0.1255
  711SOL    HW2 2977   4.148   5.180   2.214  0.7012  0.7904  0.2185
  712SOL     OW 2978   5.822   7.138   8.143 -0.4100  0.2733  0.0346
  712SOL    HW1 2979   5.758   7.084   8.189  1.0500 -1.2257  0.4273
  712SOL    HW2 2980   5.843   7.088   8.064  1.1677  0.0891  0.5304
  713SOL     OW 2981   7.043   6.801   7.628 -0.3943 -0.1047 -0.5001
  713SOL    HW1 2982   7.018   6.725   7.680 -1.2531 -0.7926 -1.8624
  713SOL    HW2 2983   7.010   6.782   7.540 -0.6312  1.8361 -0.8728
  714SOL     OW 2984   7.053   0.330   3.228 -1.0013  0.1128  0.2781
  714SOL    HW1 2985   6.993   0.318   3.154 -1.4174  1.1428  0.4195
  714SOL    HW2 2986   6.999   0.370   3.296 -0.1122  1.3375  0.3122
  715SOL     OW 2987   1.146   5.571   7.060  0.3863 -0.1811  0.3365
  715SOL    HW1 2988   1.126   5.489   7.015 -1.4446  1.5287 -2.3079
  715SOL    HW2 2989   1.068   5.589   7.113  0.5854  0.0394  0.5582
  716SOL     OW 2990   4.756   4.926   7.934  0.3392 -0.4861  0.0055
  716SOL    HW1 2991   4.689   4.955   7.872  1.1680 -0.7599 -1.0520
  716SOL    HW2 2992   4.713   4.859   7.986 -0.3900 -0.2186 -0.2350
  717SOL     OW 2993   2.927   4.332   1.294 -0.1630  0.2823  0.2887
  717SOL    HW1 2994   2.893   4.250   1.258  0.2186  0.4708 -0.5408
  717SOL    HW2 2995   2.889   4.400   1.239 -0.1813  0.6399  0.7370
  718SOL     OW 2996   5.516   4.443   5.161  0.1425  0.0643  0.1130
  718SOL    HW1 2997   5.458   4.494   5.217 -0.3188 -1.1604  0.7840
  718SOL    HW2 2998   5.604   4.466   5.191 -0.0368  0.7803  0.1075
  719SOL     OW 2999   3.656   6.781   4.946  0.4539  0.3588  0.5637
  719SOL    HW1 3000   3.658   6.872   4.975  0.6738  0.4905  0.1480
  719SOL    HW2 3001   3.661   6.730   5.027 -1.6404  0.6848  0.9719
  720SOL     OW 3002   0.471   2.667   6.650 -0.0168  0.0208 -0.6899
  720SOL    HW1 3003   0.406   2.633   6.588  0.4120 -1.0812 -0.5601
  720SOL    HW2 3004   0.541   2.602   6.649  1.0839  1.1563 -0.7991
  721SOL     OW 3005   1.102   7.412   5.123  0.3126 -0.5173  0.1020
  721SOL    HW1 3006   1.028   7.354   5.142  0.3141 -0.2139  1.0683
  721SOL    HW2 3007   1.144   7.427   5.208  1.9601 -1.2897 -0.5313
  722SOL     OW 3008   8.029   6.243   3.482 -0.3415  0.2542 -0.1008
  722SOL    HW1 3009   8.115   6.271   3.449 -0.7936  2.1500  0.1945
  722SOL    HW2 3010   8.047   6.205   3.568  0.3688 -0.9461 -0.7483
  723SOL     OW 3011   2.449   5.528   6.793  0.5032 -0.0370 -0.3244
  723SOL    HW1 3012   2.412   5.452   6.747  1.7469 -0.2372 -1.0485
  723SOL    HW2 3013   2.426   5.603   6.738  0.0210  0.0031 -0.0672
  724SOL     OW 3014   6.538   4.492   7.890 -0.0285 -0.1409  0.0625
  724SOL    HW1 3015   6.588   4.516   7.812  1.2079  0.0174  0.8694
  724SOL    HW2 3016   6.602   4.496   7.961 -1.3695  0.7716  1.2628
  725SOL     OW 3017   3.206   6.800   3.586  0.5546  0.4583 -0.5941
  725SOL    HW1 3018   3.160   6.875   3.622  1.2742 -0.3096  2.1778
  725SOL    HW2 3019   3.285   6.837   3.546  0.7592  1.2544  0.4894
  726SOL     OW 3020   2.875   6.600   1.179  0.1874  0.4805  0.2825
  726SOL    HW1 3021   2.919   6.643   1.251  2.2126 -0.5542 -0.2589
  726SOL    HW2 3022   2.816   6.667   1.143  0.8711  1.7309  1.4115
  727SOL     OW 3023   5.286   4.863   5.980  0.3406  0.5757 -0.5070
  727SOL    HW1 3024   5.359   4.916   5.949  0.9633 -0.2486 -0.4802
  727SOL    HW2 3025   5.320   4.773   5.981  0.0726  0.4521  1.7224
  728SOL     OW 3026   4.637   0.501   1.964  0.2924 -0.0576 -0.2166
  728SOL    HW1 3027   4.620   0.442   1.891  2.7312 -0.2232 -0.7320
  728SOL    HW2 3028   4.724   0.477   1.995  0.0206  1.1425  1.6780
  729SOL     OW 3029   1.948   0.654   7.438  0.2852 -0.3171  0.2833
  729SOL    HW1 3030   1.857   0.648   7.407  0.0293  0.5276  0.8440
  729SOL    HW2 3031   1.996   0.687   7.362 -0.1356  0.6019  0.3988
  730SOL     OW 3032   7.327   1.954   0.457  0.3446  0.0039  0.6482
  730SOL    HW1 3033   7.322   2.043   0.423 -0.2748 -0.2915 -0.0499
  730SOL    HW2 3034   7.321   1.965   0.552 -0.4065  0.6662  0.5392
  731SOL     OW 3035   2.567   3.194   2.143  0.6036  0.4097 -0.6627
  731SOL    HW1 3036   2.630   3.258   2.111  0.2310  0.4776 -1.2971
  731SOL    HW2 3037   2.512   3.243   2.204 -0.1123  0.8990 -1.6615
  732SOL     OW 3038   5.751   1.568   1.564 -0.6464  0.0725 -0.0410
  732SOL    HW1 3039   5.751   1.632   1.635  1.8217  1.4953 -1.1936
  732SOL    HW2 3040   5.791   1.490   1.603  2.2784  1.3816 -0.1571
  733SOL     OW 3041   5.013   8.070   3.239  0.1553 -0.2110 -1.0418
  733SOL    HW1 3042   4.923   8.081   3.210 -0.8590  0.9992  2.0995
  733SOL    HW2 3043   5.065   8.122   3.177 -1.4534  0.1158 -2.1723
  734SOL     OW 3044   1.312   0.711   2.240 -0.4155  0.2761 -0.4236
  734SOL    HW1 3045   1.326   0.617   2.229 -1.2064 -0.0701  1.1365
  734SOL    HW2 3046   1.253   0.717   2.316 -0.0016  2.0469 -0.2066
  735SOL     OW 3047   3.573   3.576   2.386 -0.9569 -0.6014 -0.1494
  735SOL    HW1 3048   3.642   3.555   2.449 -1.0403 -1.0306 -0.1932
  735SOL    HW2 3049   3.615   3.631   2.321 -0.2590 -2.0591 -0.9898
  736SOL     OW 3050   5.971   6.754   5.984 -0.3843 -0.4796 -0.3496
  736SOL    HW1 3051   5.993   6.716   5.899  0.7228 -0.4314 -0.1102
  736SOL    HW2 3052   5.942   6.843   5.963 -0.1608 -0.4829 -0.6829
  737SOL     OW 3053   0.930   7.883   4.169  0.0520 -0.1275  0.4761
  737SOL    HW1 3054   0.906   7.808   4.224 -0.4096  0.1578  0.6700
  737SOL    HW2 3055   0.963   7.948   4.231 -0.5937  0.2450  0.4380
  738SOL     OW 3056   8.001   1.296   0.777  0.1162 -0.0421  0.0608
  738SOL    HW1 3057   7.931   1.359   0.793 -1.1892 -1.6193  0.8101
  738SOL    HW2 3058   7.988   1.228   0.843  1.1102 -1.4061 -1.0832
  739SOL     OW 3059   8.094   3.783   7.129 -0.2574 -0.5556 -0.0118
  739SOL    HW1 3060   8.090   3.701   7.178  0.4443 -0.2410  0.5789
  739SOL    HW2 3061   8.178   3.822   7.152 -0.2755  0.0037 -0.8246
  740SOL     OW 3062   2.932   7.300   3.486 -0.2578  0.3661  0.2595
  740SOL    HW1 3063   2.998   7.366   3.467 -0.2601  0.1661 -0.5016
  740SOL    HW2 3064   2.852   7.349   3.503  0.0704  0.6078  1.1419
  741SOL     OW 3065   4.024   6.315   3.177  0.3402 -0.1437  0.2111
  741SOL    HW1 3066   3.933   6.345   3.176  0.6091  0.7056  0.0391
  741SOL    HW2 3067   4.033   6.264   3.096 -0.0551 -0.4667  0.3672
  742SOL     OW 3068   0.812   6.454   3.818  0.2372 -0.0637 -0.5825
  742SOL    HW1 3069   0.733   6.430   3.769  0.1075  1.1844 -1.0151
  742SOL    HW2 3070   0.882   6.404   3.776 -0.2996 -1.2066 -0.1757
  743SOL     OW 3071   0.171   3.324   8.012 -0.2722 -0.6737 -0.0969
  743SOL    HW1 3072   0.252   3.316   8.063  0.0423 -3.2864 -0.8414
  743SOL    HW2 3073   0.199   3.307   7.922 -1.6547 -1.8907 -0.3283
  744SOL     OW 3074   3.262   4.588   4.054 -0.3357 -0.2669  0.4117
  744SOL    HW1 3075   3.208   4.596   4.133 -0.4480 -1.8376  0.5197
  744SOL    HW2 3076   3.347   4.558   4.086  0.1649  0.7438  0.0858
  745SOL     OW 3077   2.567   4.231   6.730 -0.1655 -0.0366  0.0308
  745SOL    HW1 3078   2.637   4.249   6.666  0.8122 -0.7880  0.8453
  745SOL    HW2 3079   2.488   4.223   6.677  0.6802 -1.0009 -1.1611
  746SOL     OW 3080   3.594   2.512   2.765  0.0852  1.1280 -0.2362
  746SOL    HW1 3081   3.588   2.445   2.697 -1.0391 -0.1214  1.0155
  746SOL    HW2 3082   3.688   2.518   2.785  0.2411  0.1862 -0.6276
  747SOL     OW 3083   7.118   7.081   7.875  0.2008  0.8331  0.3571
  747SOL    HW1 3084   7.078   7.110   7.793  1.4944 -2.6477 -1.7396
  747SOL    HW2 3085   7.044   7.050   7.928 -0.4026 -0.1277 -0.9991
  748SOL     OW 3086   6.022   5.062   1.900  0.4643  0.2128 -0.1157
  748SOL    HW1 3087   6.074   5.000   1.847 -0.1127 -1.4734  1.1972
  748SOL    HW2 3088   6.039   5.036   1.990 -3.6604 -1.4576  0.4290
  749SOL     OW 3089   3.217   4.762   3.841  0.5469 -0.5303 -0.1386
  749SOL    HW1 3090   3.253   4.714   3.916 -0.1379  0.3685  0.7976
  749SOL    HW2 3091   3.143   4.810   3.877  1.6101  1.8049 -0.8308
  750SOL     OW 3092   6.114   1.722   2.552  0.3379  0.6225 -0.9696
  750SOL    HW1 3093   6.076   1.749   2.468  1.3721 -1.0715 -2.0363
  750SOL    HW2 3094   6.041   1.679   2.598 -0.2097  1.4756 -1.0056
  751SOL     OW 3095   5.658   8.154   5.550  0.0676 -0.0760  0.0443
  751SOL    HW1 3096   5.584   8.198   5.508  0.1239  0.9378  0.9545
  751SOL    HW2 3097   5.689   8.217   5.615  0.7717 -1.0960  0.7258
  752SOL     OW 3098   4.595   3.861   4.088  0.3601 -0.9597  0.2279
  752SOL    HW1 3099   4.640   3.814   4.018  1.2708 -2.3250  1.6707
  752SOL    HW2 3100   4.651   3.936   4.107  0.2268 -0.7154 -0.3253
  753SOL     OW 3101   7.892   5.069   2.177 -0.4804 -0.5294 -0.2957
  753SOL    HW1 3102   7.930   5.133   2.116  1.2290 -1.1100  0.0994
  753SOL    HW2 3103   7.950   4.993   2.171 -1.4541 -1.3683  0.5604
  754SOL     OW 3104   2.854   4.810   6.852  0.0748 -0.0381 -0.0511
  754SOL    HW1 3105   2.820   4.773   6.934  1.1409  0.3981  0.6020
  754SOL    HW2 3106   2.784   4.793   6.788 -0.1976 -1.6180  0.6185
  755SOL     OW 3107   6.008   2.123   3.983  0.7586 -0.1127 -0.4569
  755SOL    HW1 3108   6.014   2.138   3.889  0.9398 -1.0120 -0.5978
  755SOL    HW2 3109   6.096   2.096   4.009  1.1418  1.6822  0.2793
  756SOL     OW 3110   5.681   2.856   1.708  0.4950  0.3242 -0.0209
  756SOL    HW1 3111   5.654   2.777   1.754  1.0609  0.2852  0.2453
  756SOL    HW2 3112   5.699   2.919   1.777  1.3334  0.2733 -0.1877
  757SOL     OW 3113   5.837   0.259   5.504 -0.5686 -0.0015  0.3283
  757SOL    HW1 3114   5.780   0.334   5.494 -3.1402 -2.0011 -1.1055
  757SOL    HW2 3115   5.809   0.218   5.586 -3.7395 -2.7630 -1.8524
  758SOL     OW 3116   3.170   6.887   5.778 -0.4255 -0.2956  0.3782
  758SOL    HW1 3117   3.154   6.827   5.706 -0.0256 -1.9713  1.6011
  758SOL    HW2 3118   3.245   6.848   5.824  1.1781  2.2499  0.0932
  759SOL     OW 3119   8.180   0.453   6.116  0.1037 -0.3009  0.0620
  759SOL    HW1 3120   8.133   0.531   6.086 -0.2160 -0.3102  0.5203
  759SOL    HW2 3121   8.241   0.486   6.182 -2.5605 -0.8123  3.0503
  760SOL     OW 3122   7.672   5.402   5.113 -0.0867  0.0741 -0.0270
  760SOL    HW1 3123   7.695   5.416   5.205 -0.9843  0.9744  0.0800
  760SOL    HW2 3124   7.622   5.320   5.113  1.0481 -0.6410  0.0716
  761SOL     OW 3125   6.187   5.907   4.152 -0.0164 -0.6273  0.3510
  761SOL    HW1 3126   6.224   5.995   4.165  0.5927 -0.9074  0.5545
  761SOL    HW2 3127   6.208   5.860   4.233 -0.6991 -0.8452  0.4120
  762SOL     OW 3128   0.836   4.947   2.691 -0.1706  0.4182  0.5360
  762SOL    HW1 3129   0.850   4.852   2.686 -2.0161  0.1376 -0.4211
  762SOL    HW2 3130   0.741   4.957   2.683  0.0846  2.4182 -0.8426
  763SOL     OW 3131   3.241   1.710   6.569  0.3661 -0.0997 -0.7884
  763SOL    HW1 3132   3.250   1.781   6.633  0.8737 -0.1344 -0.8149
  763SOL    HW2 3133   3.253   1.630   6.620 -2.3096 -0.2979 -0.3627
  764SOL     OW 3134   4.482   5.694   2.470  0.0930 -0.0779  0.3785
  764SOL    HW1 3135   4.521   5.611   2.444  0.5441  0.3957 -0.5030
  764SOL    HW2 3136   4.515   5.757   2.406 -1.4415  0.4981  0.1106
  765SOL     OW 3137   1.763   5.103   7.200  0.2191 -0.0270  0.3023
  765SOL    HW1 3138   1.684   5.071   7.157  1.4238 -1.3544 -1.0375
  765SOL    HW2 3139   1.731   5.162   7.268 -2.1058 -2.5352  1.6082
  766SOL     OW 3140   0.762   2.277   7.431  0.2768 -0.4974  0.6975
  766SOL    HW1 3141   0.685   2.327   7.403  0.7621  1.1690  2.1384
  766SOL    HW2 3142   0.727   2.203   7.481 -0.4032  0.0374  1.0190
  767SOL     OW 3143   2.465   3.120   5.995  0.1165  0.7907 -0.2633
  767SOL    HW1 3144   2.507   3.184   6.052  1.7689  0.4769 -1.0602
  767SOL    HW2 3145   2.519   3.120   5.916 -0.8957 -0.2980 -0.9867
  768SOL     OW 3146   4.929   4.331   3.458  0.2539  0.2938 -0.0214
  768SOL    HW1 3147   4.908   4.350   3.366  1.9010 -1.6870 -0.8928
  768SOL    HW2 3148   5.018   4.363   3.470  1.0479 -1.7801  0.0405
  769SOL     OW 3149   2.661   5.571   3.983 -0.4593  0.3809 -0.3286
  769SOL    HW1 3150   2.618   5.518   4.050  1.3051  0.8135  1.2491
  769SOL    HW2 3151   2.592   5.625   3.946 -1.9030 -1.4573 -0.4866
  770SOL     OW 3152   2.182   7.549   7.200  0.6823 -0.1070  0.8605
  770SOL    HW1 3153   2.100   7.511   7.167  0.9722 -1.5565  1.7009
  770SOL    HW2 3154   2.185   7.522   7.292  1.5572  0.9095  1.1515
  771SOL     OW 3155   3.151   6.499   0.439  0.0440  0.0844  0.0047
  771SOL    HW1 3156   3.210   6.525   0.509 -0.2704 -0.9251  0.6776
  771SOL    HW2 3157   3.092   6.572   0.428 -0.4028 -0.0516  1.3611
  772SOL     OW 3158   5.538   1.123   0.467  0.2470  0.2052 -0.2883
  772SOL    HW1 3159   5.532   1.171   0.384  0.1779  1.1341  0.2399
  772SOL    HW2 3160   5.571   1.188   0.530 -0.5466 -0.2340  0.6130
  773SOL     OW 3161   5.754   5.267   5.697  0.2759 -0.1813 -0.1284
  773SOL    HW1 3162   5.691   5.227   5.637  0.7123 -0.9114 -0.1106
  773SOL    HW2 3163   5.827   5.206   5.700  0.0233 -0.4791  1.5958
  774SOL     OW 3164   1.299   5.149   7.113  0.3208 -0.2822 -0.0422
  774SOL    HW1 3165   1.251   5.069   7.137  2.3862 -1.8664 -0.8123
  774SOL    HW2 3166   1.302   5.200   7.194  0.8454 -2.0539  1.1110
  775SOL     OW 3167   7.079   0.920   2.477 -0.1743 -0.2880  0.2219
  775SOL    HW1 3168   7.036   1.003   2.456 -2.0821 -0.8688  1.4835
  775SOL    HW2 3169   7.073   0.869   2.396  0.3675  0.5288 -0.3485
  776SOL     OW 3170   4.553   3.090   3.107 -0.0370  0.3169 -0.4287
  776SOL    HW1 3171   4.612   3.155   3.145 -0.6693  0.0170  1.1263
  776SOL    HW2 3172   4.476   3.140   3.079 -0.2424  0.3436  0.1636
  777SOL     OW 3173   4.327   0.152   4.623  0.3450  0.5982 -0.0938
  777SOL    HW1 3174   4.378   0.128   4.546  0.2816 -0.1994  0.0955
  777SOL    HW2 3175   4.321   0.070   4.673  0.6966  1.1841  0.9395
  778SOL     OW 3176   7.350   6.779   3.435 -0.0114 -0.4021  0.5086
  778SOL    HW1 3177   7.350   6.875   3.437 -0.1895 -0.4074  1.2749
  778SOL    HW2 3178   7.263   6.756   3.404  0.7501 -0.3168 -1.8517
  779SOL     OW 3179   1.169   8.095   7.427  0.0683  0.0767 -0.0162
  779SOL    HW1 3180   1.160   8.000   7.428  0.6300  0.0153 -0.5160
  779SOL    HW2 3181   1.235   8.114   7.493 -0.8112  0.2147  0.8467
  780SOL     OW 3182   5.807   7.214   1.895  0.2219 -0.6961  0.3181
  780SOL    HW1 3183   5.736   7.192   1.834 -0.6772 -2.1002  1.7792
  780SOL    HW2 3184   5.796   7.152   1.967  2.1740 -0.0830  1.1977
  781SOL     OW 3185   2.788   4.248   0.983  0.3040 -0.5067 -0.0905
  781SOL    HW1 3186   2.781   4.170   0.927  1.2169 -2.3711  2.2249
  781SOL    HW2 3187   2.872   4.288   0.958  1.2836 -1.9990  0.6956
  782SOL     OW 3188   4.780   6.808   1.850 -0.8186 -0.0878 -0.3512
  782SOL    HW1 3189   4.776   6.737   1.786 -2.3980 -0.7551  0.4426
  782SOL    HW2 3190   4.739   6.883   1.806 -1.0633 -0.2757 -0.4461
  783SOL     OW 3191   0.286   1.838   4.466  0.0422  0.3435  0.1325
  783SOL    HW1 3192   0.339   1.917   4.463  0.9870 -0.3075 -1.2697
  783SOL    HW2 3193   0.196   1.870   4.476  0.3052  1.6567 -1.2709
  784SOL     OW 3194   0.689   2.252   1.815  0.0998 -0.5507 -0.1450
  784SOL    HW1 3195   0.607   2.204   1.800 -0.5432  0.6655 -0.7121
  784SOL    HW2 3196   0.748   2.222   1.746  0.2544 -1.6460  0.4355
  785SOL     OW 3197   4.511   6.442   2.664  0.1199 -0.3472 -0.2591
  785SOL    HW1 3198   4.524   6.383   2.739  1.3181 -0.0374 -0.1961
  785SOL    HW2 3199   4.437   6.496   2.689  0.5875 -0.1588  0.7879
  786SOL     OW 3200   2.301   1.277   5.981 -1.0744 -0.1949 -0.8618
  786SOL    HW1 3201   2.205   1.272   5.973 -1.1722 -0.8168  0.4595
  786SOL    HW2 3202   2.318   1.262   6.074  0.3955 -1.5086 -1.2968
  787SOL     OW 3203   4.964   6.721   2.683  0.8029 -0.0027 -0.1209
  787SOL    HW1 3204   4.954   6.810   2.717 -0.9670 -0.3389  0.3583
  787SOL    HW2 3205   4.874   6.691   2.667  1.4052 -1.3993 -1.0780
  788SOL     OW 3206   4.604   6.902   3.207 -0.9137  0.1432  0.0040
  788SOL    HW1 3207   4.533   6.838   3.205  0.3888 -1.4017  0.7130
  788SOL    HW2 3208   4.583   6.964   3.137 -2.3344 -0.9392 -0.5746
  789SOL     OW 3209   1.741   2.332   5.843 -0.0629 -0.3719 -0.6691
  789SOL    HW1 3210   1.681   2.405   5.860  1.4121  0.7858 -0.2138
  789SOL    HW2 3211   1.826   2.365   5.871  0.4459 -2.7445  0.8099
  790SOL     OW 3212   3.232   6.171   1.496  0.2058  0.1835 -0.9072
  790SOL    HW1 3213   3.183   6.175   1.578 -1.2537 -1.1314 -1.6564
  790SOL    HW2 3214   3.174   6.212   1.432  0.7808  0.0519 -1.5180
  791SOL     OW 3215   8.116   4.625   0.081  0.0562  0.5239  0.0652
  791SOL    HW1 3216   8.050   4.561   0.105 -0.2635  0.7557 -0.1762
  791SOL    HW2 3217   8.068   4.689   0.028  0.8257 -0.2216 -1.5994
  792SOL     OW 3218   7.851   7.085   7.421 -0.4520  0.5927 -0.6053
  792SOL    HW1 3219   7.797   7.163   7.423 -0.8539  0.3362 -1.3491
  792SOL    HW2 3220   7.838   7.048   7.334 -0.6222 -0.5542 -0.1164
  793SOL     OW 3221   6.884   1.571   4.325 -0.2365  0.2737  0.1504
  793SOL    HW1 3222   6.827   1.495   4.321 -0.3768  0.4126 -0.7439
  793SOL    HW2 3223   6.836   1.641   4.280  1.0784  0.0640 -1.7568
  794SOL     OW 3224   6.132   0.990   4.796  0.7538  0.5115  0.1040
  794SOL    HW1 3225   6.226   0.984   4.812  1.0299 -1.1349 -1.7798
  794SOL    HW2 3226   6.101   0.900   4.801 -0.7334  1.0264  0.6487
  795SOL     OW 3227   3.548   4.215   6.821  0.3442 -0.6740  0.5126
  795SOL    HW1 3228   3.559   4.207   6.915  1.1810  1.7483  0.6951
  795SOL    HW2 3229   3.485   4.287   6.810  0.2058 -0.9665 -0.7633
  796SOL     OW 3230   2.407   2.179   5.537 -0.0072 -0.6802 -0.0391
  796SOL    HW1 3231   2.424   2.134   5.620  0.8249 -1.7807 -0.7931
  796SOL    HW2 3232   2.317   2.212   5.546  0.7955  1.1932  2.1829
  797SOL     OW 3233   6.443   6.034   6.489  0.3038  0.5737 -0.1808
  797SOL    HW1 3234   6.380   5.975   6.532  1.1649  0.0280  0.3552
  797SOL    HW2 3235   6.390   6.081   6.424 -0.4661 -0.5709 -0.4251
  798SOL     OW 3236   2.381   5.506   2.134 -0.1705 -0.2300  0.0283
  798SOL    HW1 3237   2.476   5.499   2.137 -0.0485 -1.2363 -3.2235
  798SOL    HW2 3238   2.364   5.594   2.100 -0.4885  0.2374  1.3146
  799SOL     OW 3239   4.805   8.136   1.205 -0.0788  0.0356  0.0267
  799SOL    HW1 3240   4.884   8.085   1.185 -1.2507 -2.6979  1.7420
  799SOL    HW2 3241   4.797   8.197   1.132  1.7692 -1.8942 -1.9395
  800SOL     OW 3242   4.259   7.326   1.308 -0.5135  0.0563  0.1357
  800SOL    HW1 3243   4.349   7.349   1.286 -0.3009 -1.4275 -0.5904
  800SOL    HW2 3244   4.267   7.265   1.381 -0.9904  0.7001  0.7420
  801SOL     OW 3245   3.070   6.371   7.519  0.3114 -0.0967  0.8513
  801SOL    HW1 3246   3.108   6.307   7.579  1.1626 -1.3840 -0.9386
  801SOL    HW2 3247   3.038   6.318   7.445  0.2220  1.4635 -0.2910
  802SOL     OW 3248   4.599   4.602   2.894 -0.4749  0.0655  0.4741
  802SOL    HW1 3249   4.681   4.637   2.929 -0.2454 -0.7541  0.7884
  802SOL    HW2 3250   4.607   4.507   2.904 -0.0253 -0.3113 -2.5991
  803SOL     OW 3251   7.256   5.269   4.405 -0.5629 -0.3261  0.1133
  803SOL    HW1 3252   7.171   5.294   4.441  1.1936  4.3893  1.7637
  803SOL    HW2 3253   7.297   5.217   4.474 -1.0471 -0.0913  0.5874
  804SOL     OW 3254   4.110   2.701   4.070 -0.0076  0.2765  0.2379
  804SOL    HW1 3255   4.147   2.721   4.156 -0.7201  1.3130  0.3278
  804SOL    HW2 3256   4.048   2.629   4.086  0.3706  0.0005  0.4644
  805SOL     OW 3257   7.363   1.722   0.768 -0.2802  0.4947 -0.6328
  805SOL    HW1 3258   7.352   1.627   0.762 -1.2671  0.7022 -4.6883
  805SOL    HW2 3259   7.448   1.739   0.729  0.7663  1.2757  1.7738
  806SOL     OW 3260   5.490   4.048   6.424  0.3105  0.1911  0.2487
  806SOL    HW1 3261   5.572   4.079   6.385  0.0352 -0.5245 -0.9652
  806SOL    HW2 3262   5.505   3.956   6.443 -0.3154 -0.0465 -0.3405
  807SOL     OW 3263   1.928   0.754   4.161 -0.1279 -0.2122  0.7983
  807SOL    HW1 3264   1.968   0.783   4.079 -2.2368  0.0116 -0.2038
  807SOL    HW2 3265   1.881   0.831   4.194  0.3423 -0.4179  2.0387
  808SOL     OW 3266   4.288   3.609   4.177  0.6147  0.0188  0.9019
  808SOL    HW1 3267   4.358   3.664   4.212  1.4914 -1.5792  1.7632
  808SOL    HW2 3268   4.266   3.549   4.249  1.3498 -2.3046 -0.6869
  809SOL     OW 3269   6.170   4.412   0.864  0.1051 -0.8301 -0.3373
  809SOL    HW1 3270   6.122   4.370   0.935 -0.3346  0.1716 -0.0139
  809SOL    HW2 3271   6.219   4.483   0.907  0.9232 -1.0751 -0.8393
  810SOL     OW 3272   4.064   7.587   1.744  0.6052  0.0075 -0.0153
  810SOL    HW1 3273   4.133   7.529   1.714  0.4225  0.0836 -0.5868
  810SOL    HW2 3274   4.074   7.589   1.839  1.0489 -0.4041 -0.0517
  811SOL     OW 3275   0.945   5.298   7.829  0.2166 -0.1554 -0.3364
  811SOL    HW1 3276   0.924   5.321   7.919 -0.7811 -2.1197 -0.0139
  811SOL    HW2 3277   1.028   5.250   7.835  1.1389  1.3005 -0.7395
  812SOL     OW 3278   3.320   0.887   2.897  0.1272 -0.3447 -0.6116
  812SOL    HW1 3279   3.376   0.823   2.942  0.5304  0.2179 -0.2959
  812SOL    HW2 3280   3.371   0.968   2.898 -0.7161  0.1945 -0.2603
  813SOL     OW 3281   6.994   0.225   3.536  0.2634  0.5073  0.4617
  813SOL    HW1 3282   6.956   0.188   3.456  1.3914  0.5006 -0.0937
  813SOL    HW2 3283   6.964   0.168   3.606  0.5332 -0.4202 -0.1591
  814SOL     OW 3284   7.678   6.671   7.372 -0.6033  0.0229  0.7394
  814SOL    HW1 3285   7.587   6.689   7.396 -1.0831 -0.5961 -0.5464
  814SOL    HW2 3286   7.685   6.699   7.281  0.0374 -1.4434  0.3127
  815SOL     OW 3287   6.219   3.810   0.959  0.2942  0.2087  0.4268
  815SOL    HW1 3288   6.199   3.747   1.029  0.1106 -0.4823 -0.2364
  815SOL    HW2 3289   6.166   3.887   0.981  0.5437  0.1550  1.2655
  816SOL     OW 3290   4.798   0.063   6.860  0.2785 -0.2956  0.4997
  816SOL    HW1 3291   4.796   0.108   6.945  0.0838 -1.1387  0.9498
  816SOL    HW2 3292   4.724   0.002   6.863  1.0797 -1.3143  0.2757
  817SOL     OW 3293   3.866   5.875   6.406  0.3162  0.7262 -0.9318
  817SOL    HW1 3294   3.852   5.852   6.314  1.0392 -0.6315 -0.7331
  817SOL    HW2 3295   3.961   5.882   6.415  0.8561 -4.5302  0.7711
  818SOL     OW 3296   1.358   3.571   2.829  0.3911  0.5352 -0.2501
  818SOL    HW1 3297   1.328   3.652   2.869 -1.0505 -0.2650  0.3779
  818SOL    HW2 3298   1.320   3.572   2.741  1.4869  1.1438 -0.7270
  819SOL     OW 3299   2.420   0.959   0.323 -0.1632  0.1196  0.1858
  819SOL    HW1 3300   2.328   0.940   0.344 -0.3507 -0.3376 -0.9855
  819SOL    HW2 3301   2.447   1.020   0.392 -0.7836 -1.1320  1.6145
  820SOL     OW 3302   6.865   4.524   5.571 -0.3073 -0.3698  0.0663
  820SOL    HW1 3303   6.820   4.539   5.488  0.7449  0.5230 -0.3623
  820SOL    HW2 3304   6.956   4.544   5.553 -0.1624  0.5262  1.6057
  821SOL     OW 3305   6.575   4.981   4.947 -0.3003  0.0636  0.5108
  821SOL    HW1 3306   6.651   5.040   4.953 -1.5290  1.6855  0.7515
  821SOL    HW2 3307   6.501   5.035   4.973 -1.5388 -1.5327  0.4219
  822SOL     OW 3308   5.591   7.377   0.826  0.1355  0.9762  0.0009
  822SOL    HW1 3309   5.547   7.428   0.893 -1.3058 -2.2902  1.7932
  822SOL    HW2 3310   5.650   7.319   0.875 -0.7707 -1.3366 -1.4534
  823SOL     OW 3311   3.520   1.431   4.209 -0.0056 -0.3753  0.1124
  823SOL    HW1 3312   3.611   1.408   4.227 -0.1229  0.0538  1.3078
  823SOL    HW2 3313   3.497   1.495   4.276 -0.8364  0.3972 -0.8714
  824SOL     OW 3314   7.025   6.651   5.165  0.4834 -0.3119  0.5599
  824SOL    HW1 3315   7.085   6.678   5.095 -0.4940 -0.4928 -0.3772
  824SOL    HW2 3316   6.959   6.720   5.167 -0.3143 -1.0551  0.2786
  825SOL     OW 3317   3.963   1.842   5.548  0.0542  0.2800 -0.1426
  825SOL    HW1 3318   4.035   1.811   5.602 -0.1137  0.8714  0.4359
  825SOL    HW2 3319   3.935   1.923   5.590 -1.1381 -0.0912 -0.1854
  826SOL     OW 3320   7.613   2.895   6.057  0.4727 -0.1607  0.3258
  826SOL    HW1 3321   7.615   2.979   6.103  0.8609 -1.3379  2.5690
  826SOL    HW2 3322   7.683   2.903   5.992  1.9993  0.5153  1.9605
  827SOL     OW 3323   2.496   1.863   2.681  0.3391  0.0380  0.0848
  827SOL    HW1 3324   2.443   1.894   2.755  0.1582 -2.0269  0.8946
  827SOL    HW2 3325   2.581   1.905   2.693 -0.5680  2.1164 -0.3065
  828SOL     OW 3326   1.963   0.322   0.932 -0.2960  0.3782  0.3680
  828SOL    HW1 3327   2.054   0.340   0.908 -0.5001 -0.7315 -1.4504
  828SOL    HW2 3328   1.928   0.407   0.958  0.7579  1.1894 -0.7405
  829SOL     OW 3329   5.213   1.443   0.053  0.1505 -0.8012  0.0138
  829SOL    HW1 3330   5.217   1.537   0.071 -2.9487 -0.7978  1.3359
  829SOL    HW2 3331   5.212   1.402   0.140 -3.6921 -1.5849 -0.2068
  830SOL     OW 3332   5.377   6.409   7.279 -0.1165 -0.0087 -0.0496
  830SOL    HW1 3333   5.443   6.353   7.239  0.6586 -0.0482  1.2448
  830SOL    HW2 3334   5.300   6.398   7.223  0.3058 -1.6426 -0.3681
  831SOL     OW 3335   5.491   0.753   1.805  0.5760 -0.0105 -0.2009
  831SOL    HW1 3336   5.427   0.724   1.869 -0.2359  1.9408 -0.0549
  831SOL    HW2 3337   5.576   0.740   1.847  0.1556 -0.5918  0.4687
  832SOL     OW 3338   4.119   5.164   7.745 -0.1320 -0.2712  0.0101
  832SOL    HW1 3339   4.068   5.083   7.735 -0.2049 -0.1038 -1.1258
  832SOL    HW2 3340   4.116   5.183   7.839 -1.1394 -0.9344  0.1325
  833SOL     OW 3341   7.569   3.584   3.266 -0.6288  0.1332 -0.4885
  833SOL    HW1 3342   7.621   3.534   3.328  0.3050  0.2032 -1.1921
  833SOL    HW2 3343   7.541   3.521   3.201  1.2597  0.6042 -1.8449
  834SOL     OW 3344   0.081   5.313   2.240 -0.0470 -0.3552 -0.2014
  834SOL    HW1 3345   0.049   5.344   2.325 -0.7852  0.5111 -0.7754
  834SOL    HW2 3346   0.069   5.218   2.244 -0.9521 -0.2376  0.3241
  835SOL     OW 3347   5.489   5.208   4.177  0.2526  0.6812  0.5659
  835SOL    HW1 3348   5.545   5.135   4.153  0.0241  0.6753  0.0242
  835SOL    HW2 3349   5.424   5.212   4.106  0.2239  1.3585  0.6242
  836SOL     OW 3350   5.866   1.036   5.830 -0.1113  0.1370  0.3639
  836SOL    HW1 3351   5.862   1.115   5.884  0.3968 -0.0706  0.7103
  836SOL    HW2 3352   5.807   1.054   5.757  1.8424  1.8192 -0.8919
  837SOL     OW 3353   3.841   7.440   5.921  0.4357  0.4043  0.5793
  837SOL    HW1 3354   3.903   7.388   5.972  1.8366  1.7315  0.3346
  837SOL    HW2 3355   3.843   7.401   5.834  0.6911  0.2413  0.6583
  838SOL     OW 3356   5.274   6.970   0.532 -0.7090  0.3649 -0.1658
  838SOL    HW1 3357   5.352   6.984   0.478 -0.2094 -2.7972 -0.4142
  838SOL    HW2 3358   5.203   7.012   0.483  0.1053 -0.5699 -2.2634
  839SOL     OW 3359   4.409   8.113   5.998 -0.2115 -0.3457  0.1262
  839SOL    HW1 3360   4.496   8.112   6.038  0.9195  0.6523 -2.1244
  839SOL    HW2 3361   4.405   8.031   5.948 -1.1306 -1.0137  1.2387
  840SOL     OW 3362   0.172   2.049   2.963 -0.0639  0.4512 -0.0064
  840SOL    HW1 3363   0.142   2.140   2.953 -1.3090  0.0640 -0.0108
  840SOL    HW2 3364   0.137   2.004   2.885  0.3606 -0.0756  0.1035
  841SOL     OW 3365   8.115   4.111   4.381 -0.4463 -0.2775  0.1954
  841SOL    HW1 3366   8.177   4.183   4.389 -1.8696  0.8650  1.5397
  841SOL    HW2 3367   8.152   4.040   4.433 -0.9795  0.9549  2.3665
  842SOL     OW 3368   7.763   3.008   3.218 -0.2044 -0.5545 -0.1141
  842SOL    HW1 3369   7.858   2.996   3.225  0.0333  0.8027 -0.6360
  842SOL    HW2 3370   7.731   2.989   3.306  0.6375 -0.3462  0.2552
  843SOL     OW 3371   6.143   0.297   4.051 -0.4362 -0.0357 -0.1154
  843SOL    HW1 3372   6.096   0.225   4.092  0.4160 -0.1566  0.6786
  843SOL    HW2 3373   6.099   0.376   4.083 -0.1306 -0.1481  0.5959
  844SOL     OW 3374   4.653   6.058   3.670 -0.0515  0.4842 -0.1573
  844SOL    HW1 3375   4.737   6.088   3.706  0.6944  0.7105 -1.9817
  844SOL    HW2 3376   4.672   5.972   3.634 -0.8002  0.2144  0.0772
  845SOL     OW 3377   0.560   8.157   0.799 -0.1875  0.5135  0.0142
  845SOL    HW1 3378   0.644   8.185   0.762 -0.1317  0.5563  0.1742
  845SOL    HW2 3379   0.572   8.064   0.817 -0.3610  0.3940 -0.4839
  846SOL     OW 3380   7.475   7.932   2.042 -0.3998  0.4472 -0.0107
  846SOL    HW1 3381   7.458   7.983   1.963 -1.0839 -0.6266 -0.5674
  846SOL    HW2 3382   7.496   7.998   2.108 -0.6749  1.4145 -0.8606
  847SOL     OW 3383   5.949   2.039   2.939 -0.3950  0.4458  0.0241
  847SOL    HW1 3384   5.966   2.008   2.851  1.7149  1.4341  0.0321
  847SOL    HW2 3385   5.968   1.965   2.996 -2.4490 -0.4215 -0.3265
  848SOL     OW 3386   0.121   6.465   1.164 -0.1751 -0.0652 -0.0308
  848SOL    HW1 3387   0.059   6.498   1.100 -0.1567 -0.1876 -0.1121
  848SOL    HW2 3388   0.205   6.502   1.137  0.1216 -1.3922 -1.0203
  849SOL     OW 3389   7.046   4.493   4.651  0.3897 -0.2767  0.3102
  849SOL    HW1 3390   6.975   4.432   4.630  1.0458 -0.9341 -0.0649
  849SOL    HW2 3391   7.101   4.493   4.572  0.7000  0.3678  0.5201
  850SOL     OW 3392   3.729   6.882   3.330  0.0140 -0.5935 -0.1893
  850SOL    HW1 3393   3.741   6.864   3.237  0.3877  1.2914 -0.5483
  850SOL    HW2 3394   3.648   6.934   3.334  0.0911 -0.5176  0.5170
  851SOL     OW 3395   6.715   4.952   5.216 -0.1704  0.4284 -0.0793
  851SOL    HW1 3396   6.653   4.927   5.284  2.2808 -1.0605  1.7854
  851SOL    HW2 3397   6.719   5.048   5.221 -2.1377  0.5569 -0.1972
  852SOL     OW 3398   7.086   1.264   2.737 -0.4518  0.0734  0.1837
  852SOL    HW1 3399   7.002   1.310   2.726 -0.5283 -0.5046 -2.4240
  852SOL    HW2 3400   7.061   1.173   2.751 -0.3377 -0.3353 -1.9187
  853SOL     OW 3401   3.083   2.202   2.772 -0.1178  0.0002  0.0245
  853SOL    HW1 3402   3.119   2.181   2.858 -2.0402  0.1677  0.9153
  853SOL    HW2 3403   2.990   2.217   2.787 -0.9739 -2.0455 -2.4005
  854SOL     OW 3404   4.632   7.258   2.410  0.1815  0.2492  0.4773
  854SOL    HW1 3405   4.707   7.272   2.352 -0.3229 -1.7752 -0.7732
  854SOL    HW2 3406   4.599   7.346   2.429  1.7453  1.0799 -0.4311
  855SOL     OW 3407   8.184   3.647   2.089 -0.2322  0.5680 -0.3733
  855SOL    HW1 3408   8.191   3.662   1.995 -0.7322 -1.6131 -0.8128
  855SOL    HW2 3409   8.255   3.587   2.110 -0.8790  0.0493  0.3984
  856SOL     OW 3410   3.218   3.679   4.530  0.0876  0.1323  0.2440
  856SOL    HW1 3411   3.177   3.765   4.545  0.5331  0.4607 -0.3686
  856SOL    HW2 3412   3.312   3.697   4.533  0.2593 -0.7869  2.6132
  857SOL     OW 3413   3.508   4.839   1.719 -0.1225 -0.1963  0.0764
  857SOL    HW1 3414   3.474   4.845   1.630 -0.3347  0.0527  0.1720
  857SOL    HW2 3415   3.603   4.836   1.709 -0.1130  0.5600 -0.1278
  858SOL     OW 3416   3.984   6.948   3.024  0.6809 -0.0934 -0.1679
  858SOL    HW1 3417   3.908   6.931   2.968  1.0124 -0.1454 -0.6027
  858SOL    HW2 3418   3.947   6.995   3.100  0.5600  2.5036 -1.6957
  859SOL     OW 3419   6.286   0.243   3.257 -0.0356  0.4108 -0.5579
  859SOL    HW1 3420   6.204   0.194   3.262  0.0203  0.3259 -0.4869
  859SOL    HW2 3421   6.285   0.299   3.334 -0.0780  0.4898 -0.6151
  860SOL     OW 3422   3.328   1.164   3.932  0.0664  0.2758 -0.1199
  860SOL    HW1 3423   3.421   1.182   3.951 -0.0078  0.2160  0.3143
  860SOL    HW2 3424   3.330   1.114   3.851  0.3478  1.2387 -0.7266
  861SOL     OW 3425   5.032   2.170   5.484 -0.4440  0.0592  0.3051
  861SOL    HW1 3426   5.000   2.110   5.417 -2.0193  1.1455  0.0367
  861SOL    HW2 3427   4.968   2.164   5.555 -0.7148  1.4992  0.2137
  862SOL     OW 3428   6.608   7.435   2.773 -0.0707 -0.2028  0.4122
  862SOL    HW1 3429   6.552   7.361   2.794  0.8253 -0.8384  0.6270
  862SOL    HW2 3430   6.682   7.426   2.833  0.2149  0.6690  0.1976
  863SOL     OW 3431   5.619   0.153   1.643 -0.3685 -0.3134  0.4306
  863SOL    HW1 3432   5.558   0.108   1.585  0.1196 -0.7176  0.2119
  863SOL    HW2 3433   5.564   0.198   1.707 -0.8937 -0.4814  0.1033
  864SOL     OW 3434   2.528   2.120   1.898 -0.5772 -0.4375 -0.5386
  864SOL    HW1 3435   2.453   2.077   1.937 -0.0106 -2.1356 -1.2282
  864SOL    HW2 3436   2.601   2.102   1.957 -0.5347  0.5184 -0.2806
  865SOL     OW 3437   0.887   4.875   4.235  0.3414  0.0831 -0.0696
  865SOL    HW1 3438   0.911   4.951   4.289  0.5072  0.0148 -0.0469
  865SOL    HW2 3439   0.891   4.801   4.295  1.5376 -0.1430 -0.4106
  866SOL     OW 3440   3.095   1.448   0.200 -0.4292 -0.2133 -0.2754
  866SOL    HW1 3441   3.079   1.506   0.274 -0.7845  0.2909 -0.7355
  866SOL    HW2 3442   3.188   1.457   0.181 -0.5005  0.2825 -0.4020
  867SOL     OW 3443   5.374   5.237   3.908  0.1566 -0.0633 -0.2728
  867SOL    HW1 3444   5.421   5.158   3.884  0.8293 -0.1206  1.1398
  867SOL    HW2 3445   5.285   5.223   3.875  0.0652 -1.7336  0.5506
  868SOL     OW 3446   8.177   1.726   6.736  0.0823  0.3585 -0.1259
  868SOL    HW1 3447   8.224   1.707   6.817  1.6326  0.9533 -0.8444
  868SOL    HW2 3448   8.202   1.816   6.715 -3.0373  1.5022  0.5258
  869SOL     OW 3449   4.928   6.516   2.332  0.5543 -0.2736  0.0557
  869SOL    HW1 3450   4.888   6.446   2.384  0.5863  0.7177  1.4741
  869SOL    HW2 3451   4.856   6.549   2.277  0.6762 -1.7551 -1.0553
  870SOL     OW 3452   5.986   2.696   4.245 -0.1727  1.1411  0.1858
  870SOL    HW1 3453   6.033   2.694   4.329  0.7074  0.2074 -0.3165
  870SOL    HW2 3454   5.913   2.636   4.257  1.4805 -1.1423 -0.5564
  871SOL     OW 3455   5.665   7.524   4.299  0.0656  0.1012 -0.6111
  871SOL    HW1 3456   5.698   7.470   4.370  0.9389  1.7251  0.2932
  871SOL    HW2 3457   5.637   7.605   4.342 -1.6124  0.2387 -1.8428
  872SOL     OW 3458   3.053   2.903   6.961 -0.6286  0.1434  0.4339
  872SOL    HW1 3459   3.111   2.843   7.008 -0.4867  0.5464  0.7773
  872SOL    HW2 3460   3.108   2.980   6.943 -0.9167  0.3244  0.3245
  873SOL     OW 3461   4.676   3.188   3.823  0.0872 -0.0229 -0.1743
  873SOL    HW1 3462   4.654   3.229   3.739  0.1891 -0.4311 -0.4021
  873SOL    HW2 3463   4.621   3.110   3.827 -1.5988  1.1728  1.1750
  874SOL     OW 3464   5.241   6.547   1.499 -0.2456  0.2628 -0.3577
  874SOL    HW1 3465   5.217   6.455   1.515 -1.5483  0.7566  0.7101
  874SOL    HW2 3466   5.336   6.550   1.512  0.3200 -1.4496 -3.1184
  875SOL     OW 3467   0.761   4.993   1.029  0.5990 -0.0676 -0.0462
  875SOL    HW1 3468   0.844   4.967   1.068  0.2226  0.9365  1.5242
  875SOL    HW2 3469   0.711   4.912   1.022  1.5969 -0.6456 -0.8055
  876SOL     OW 3470   4.109   3.313   5.808  0.2579 -0.7556  0.0764
  876SOL    HW1 3471   4.060   3.374   5.752 -2.1023 -0.7455  2.0092
  876SOL    HW2 3472   4.080   3.226   5.781  0.4974 -0.8382  0.0806
  877SOL     OW 3473   2.343   4.461   6.402 -0.0733  0.0713 -0.0811
  877SOL    HW1 3474   2.425   4.446   6.354 -0.1203 -0.3656 -0.0343
  877SOL    HW2 3475   2.278   4.479   6.334  0.4147  2.2923 -0.0388
  878SOL     OW 3476   7.997   5.274   6.290  0.2612 -0.4913  0.0300
  878SOL    HW1 3477   7.974   5.188   6.255 -0.5483 -0.7609  1.1741
  878SOL    HW2 3478   7.959   5.337   6.229 -0.8452 -0.9561  0.2262
  879SOL     OW 3479   5.526   5.692   6.062  0.4205 -0.1964 -0.6347
  879SOL    HW1 3480   5.557   5.690   6.152  0.8514 -1.6172 -0.7889
  879SOL    HW2 3481   5.485   5.778   6.052  0.0034 -0.1679  1.0336
  880SOL     OW 3482   7.731   1.436   2.402 -0.0059 -0.6698  0.0052
  880SOL    HW1 3483   7.654   1.379   2.395 -0.2661 -0.5972  1.8966
  880SOL    HW2 3484   7.710   1.497   2.472  2.3319 -1.5907  1.6479
  881SOL     OW 3485   2.597   1.600   5.096 -0.2300 -0.1436  0.9225
  881SOL    HW1 3486   2.517   1.637   5.134  0.6946  2.9178  0.1501
  881SOL    HW2 3487   2.664   1.613   5.164 -0.1102 -1.6767  1.1325
  882SOL     OW 3488   3.665   0.499   4.867 -0.3982 -0.4898 -0.1931
  882SOL    HW1 3489   3.602   0.429   4.883 -1.6166  0.2886 -1.3772
  882SOL    HW2 3490   3.682   0.496   4.773 -0.4532  0.7680 -0.2726
  883SOL     OW 3491   5.372   4.996   4.534 -0.5856 -0.3281  0.0568
  883SOL    HW1 3492   5.345   5.025   4.447 -1.4394 -0.0333  0.4127
  883SOL    HW2 3493   5.361   4.901   4.532  0.6983 -0.4840 -0.5867
  884SOL     OW 3494   3.325   5.800   6.727 -0.5125  0.2057 -0.1929
  884SOL    HW1 3495   3.333   5.718   6.678 -0.7489 -0.1164  0.3078
  884SOL    HW2 3496   3.275   5.857   6.669 -2.9399 -0.9594  0.6148
  885SOL     OW 3497   2.006   3.417   6.761 -0.2732 -0.0543  0.3487
  885SOL    HW1 3498   2.074   3.477   6.730 -0.3974 -0.1531 -0.1148
  885SOL    HW2 3499   2.021   3.411   6.856  0.5340 -0.2885  0.2107
  886SOL     OW 3500   2.122   5.616   5.627 -0.1166  0.2315 -0.3349
  886SOL    HW1 3501   2.039   5.641   5.587 -0.0919 -1.6003 -1.6849
  886SOL    HW2 3502   2.189   5.661   5.574 -0.2085  2.3488  1.2451
  887SOL     OW 3503   3.297   7.858   2.908 -0.2390  0.2517 -0.4872
  887SOL    HW1 3504   3.268   7.949   2.896 -0.2259  0.4572  0.8821
  887SOL    HW2 3505   3.227   7.818   2.961  0.5223 -0.0839  0.2822
  888SOL     OW 3506   2.735   6.197   3.445 -0.2216 -0.0120 -0.0594
  888SOL    HW1 3507   2.730   6.263   3.514  0.9951 -0.5514  0.5755
  888SOL    HW2 3508   2.738   6.113   3.492 -2.6232 -0.6368 -0.8544
  889SOL     OW 3509   5.876   1.710   0.823  0.9916 -0.0746  0.2109
  889SOL    HW1 3510   5.881   1.728   0.729 -1.4507  1.1281  0.2311
  889SOL    HW2 3511   5.965   1.723   0.855  1.4668  1.6558 -1.6006
  890SOL     OW 3512   5.400   4.298   6.998  0.1890  0.4015 -0.0118
  890SOL    HW1 3513   5.327   4.264   6.947  0.2713  1.1907 -0.6651
  890SOL    HW2 3514   5.462   4.331   6.933  0.5784  0.8550  0.5757
  891SOL     OW 3515   6.000   3.437   2.487 -0.6616  0.3513  0.2327
  891SOL    HW1 3516   6.084   3.465   2.523 -0.8803  2.0880 -0.5450
  891SOL    HW2 3517   5.986   3.350   2.525  1.4813  0.0002  0.3617
  892SOL     OW 3518   2.015   0.693   2.421  0.1368  0.7608 -0.1909
  892SOL    HW1 3519   1.947   0.734   2.367 -0.6356  1.7944  1.4796
  892SOL    HW2 3520   1.966   0.647   2.489  1.0877  0.0345  0.0110
  893SOL     OW 3521   2.390   5.169   0.812 -0.2443 -0.8439 -0.5167
  893SOL    HW1 3522   2.377   5.264   0.802  1.6720 -0.1285  2.3208
  893SOL    HW2 3523   2.322   5.129   0.759 -1.2855  2.1356 -1.6204
  894SOL     OW 3524   0.975   6.038   7.028 -0.1146 -0.1392 -0.0480
  894SOL    HW1 3525   0.938   6.058   7.114  0.1958 -2.0527  0.5804
  894SOL    HW2 3526   1.063   6.006   7.047 -0.0651 -0.6345 -1.0561
  895SOL     OW 3527   3.391   0.625   7.458  0.2523  1.0120 -0.0778
  895SOL    HW1 3528   3.460   0.565   7.486 -0.6769 -0.9802 -1.7998
  895SOL    HW2 3529   3.340   0.641   7.538 -0.7214 -2.2619  0.0839
  896SOL     OW 3530   0.897   4.502   0.639  0.4845  0.6936  0.1775
  896SOL    HW1 3531   0.935   4.520   0.553 -0.9829 -0.4859 -0.7621
  896SOL    HW2 3532   0.944   4.424   0.670 -0.8527 -0.5799 -0.8488
  897SOL     OW 3533   1.465   8.042   6.879  0.5804 -0.1640 -0.2255
  897SOL    HW1 3534   1.384   8.024   6.926  1.6789  0.9975  2.3254
  897SOL    HW2 3535   1.531   7.988   6.924  1.4896  0.0426 -1.2731
  898SOL     OW 3536   1.163   0.969   7.471  0.1469  0.5019 -0.3298
  898SOL    HW1 3537   1.216   0.892   7.449 -2.1715 -1.0858 -0.6999
  898SOL    HW2 3538   1.157   1.017   7.388 -0.2449 -0.1513 -0.6980
  899SOL     OW 3539   0.871   5.580   5.967  0.1888 -0.0018 -0.1899
  899SOL    HW1 3540   0.937   5.532   5.917 -0.0370 -1.4235  0.8015
  899SOL    HW2 3541   0.860   5.529   6.047 -0.8953  1.1257  0.4201
  900SOL     OW 3542   7.994   0.536   1.311 -0.1777  0.7197  0.1453
  900SOL    HW1 3543   7.937   0.555   1.237  0.8526  0.5564 -0.7110
  900SOL    HW2 3544   7.943   0.476   1.365 -0.9642  0.8774 -0.3937
  901SOL     OW 3545   5.076   4.591   8.017  0.0716  0.3770  0.6547
  901SOL    HW1 3546   5.123   4.542   7.950  0.1321  0.8149  0.3651
  901SOL    HW2 3547   5.070   4.680   7.981  2.3852  1.3030  2.3414
  902SOL     OW 3548   5.544   0.758   4.943 -0.0359 -0.3667 -0.3501
  902SOL    HW1 3549   5.611   0.821   4.915 -0.0045 -1.2922 -2.5904
  902SOL    HW2 3550   5.463   0.793   4.907 -0.1868 -1.0088 -0.6527
  903SOL     OW 3551   2.298   5.279   4.197 -0.3889 -0.1991  0.2239
  903SOL    HW1 3552   2.234   5.290   4.268 -1.6265 -1.2469 -0.6813
  903SOL    HW2 3553   2.285   5.188   4.168  0.0061  0.2540 -1.4293
  904SOL     OW 3554   0.286   3.049   3.607  0.4249  0.5212  0.7188
  904SOL    HW1 3555   0.224   3.003   3.664  0.9900 -1.8131 -0.4125
  904SOL    HW2 3556   0.366   2.997   3.611  1.6541  2.3221  0.5445
  905SOL     OW 3557   5.325   7.851   2.906 -0.2291  0.2906 -0.1554
  905SOL    HW1 3558   5.362   7.917   2.963 -3.0129  0.9487  1.0809
  905SOL    HW2 3559   5.303   7.778   2.965  1.3700 -1.1553 -1.2478
  906SOL     OW 3560   5.515   5.428   0.094  0.4583 -0.0307 -0.8043
  906SOL    HW1 3561   5.465   5.394   0.167  0.3055  2.6672  0.4572
  906SOL    HW2 3562   5.453   5.482   0.045  0.7255 -1.2810 -2.6169
  907SOL     OW 3563   0.594   0.565   7.874  0.3846 -0.3228  0.1227
  907SOL    HW1 3564   0.587   0.532   7.963  2.0743 -0.3732  0.2674
  907SOL    HW2 3565   0.511   0.610   7.858  0.8591  1.5778  2.4994
  908SOL     OW 3566   1.079   2.486   4.852 -0.2894  0.3432  0.3222
  908SOL    HW1 3567   1.133   2.555   4.892 -0.8398  1.0562 -0.1505
  908SOL    HW2 3568   0.991   2.523   4.850 -0.3331  0.1916 -1.2493
  909SOL     OW 3569   8.113   5.176   3.510  0.1295  0.3338  0.1786
  909SOL    HW1 3570   8.146   5.099   3.464  0.6854  1.3357 -1.1647
  909SOL    HW2 3571   8.018   5.173   3.495 -0.1532 -1.1609  1.8842
  910SOL     OW 3572   6.176   6.785   5.636  0.3304 -0.3330  0.0836
  910SOL    HW1 3573   6.261   6.822   5.614  0.9291 -0.5525  1.8451
  910SOL    HW2 3574   6.113   6.852   5.610  1.2854  1.3251  1.7885
  911SOL     OW 3575   3.226   4.168   6.016  0.0459  0.1698  0.3366
  911SOL    HW1 3576   3.281   4.157   5.939 -0.2333  3.7478 -0.5404
  911SOL    HW2 3577   3.144   4.125   5.993  0.5742 -0.3835 -0.5925
  912SOL     OW 3578   2.031   5.962   6.530  0.1623 -0.7154 -0.0716
  912SOL    HW1 3579   1.989   5.882   6.499 -1.3113 -0.1507  0.3760
  912SOL    HW2 3580   1.958   6.019   6.556  1.2208  0.1192  1.2076
  913SOL     OW 3581   8.012   3.379   5.558  0.5239  0.0960 -0.4656
  913SOL    HW1 3582   8.003   3.471   5.585 -0.3593  0.3352 -1.5100
  913SOL    HW2 3583   7.953   3.331   5.617  1.1604  0.1525  0.2362
  914SOL     OW 3584   4.841   6.403   2.748 -0.0331 -0.4764  0.2317
  914SOL    HW1 3585   4.786   6.480   2.733  1.4451  0.7732  1.0064
  914SOL    HW2 3586   4.805   6.364   2.828 -1.4607 -1.2461 -0.7524
  915SOL     OW 3587   7.108   1.430   4.277  0.7074  0.0246 -0.1236
  915SOL    HW1 3588   7.106   1.430   4.181 -0.6489  1.1703 -0.1302
  915SOL    HW2 3589   7.045   1.498   4.302 -0.2107 -1.3929  1.5940
  916SOL     OW 3590   3.063   6.329   4.203 -0.1573 -0.0370 -0.1050
  916SOL    HW1 3591   3.127   6.363   4.265 -0.8386 -1.1720  1.2678
  916SOL    HW2 3592   3.076   6.381   4.124  0.3444  1.8398  1.1640
  917SOL     OW 3593   7.724   0.444   1.854 -0.5105 -0.1607  0.4371
  917SOL    HW1 3594   7.814   0.445   1.822 -1.0406  0.1592 -1.1082
  917SOL    HW2 3595   7.670   0.446   1.775 -1.8812 -0.3037  1.3353
  918SOL     OW 3596   6.651   0.658   2.969 -0.0630 -0.1396 -0.4106
  918SOL    HW1 3597   6.609   0.626   3.049 -0.3849  1.6627  0.1838
  918SOL    HW2 3598   6.629   0.593   2.903  1.1075 -2.2701  1.1501
  919SOL     OW 3599   1.563   4.814   4.108  0.2587  0.3190  0.0544
  919SOL    HW1 3600   1.616   4.834   4.185  0.0863  0.4884  0.1309
  919SOL    HW2 3601   1.613   4.747   4.060  1.0813  1.2907 -0.4695
  920SOL     OW 3602   0.371   2.741   3.343  0.6649  0.0869  0.4545
  920SOL    HW1 3603   0.396   2.650   3.361  1.5122  0.2631  0.2347
  920SOL    HW2 3604   0.429   2.767   3.271 -0.5740  0.3485 -0.4885
  921SOL     OW 3605   2.134   1.511   0.484 -0.6106 -0.1057 -0.5536
  921SOL    HW1 3606   2.073   1.579   0.515  0.1646  0.3150  0.0796
  921SOL    HW2 3607   2.200   1.505   0.552 -0.1880 -0.8900 -1.0186
  922SOL     OW 3608   2.344   4.967   5.529  0.2756  0.4016  0.2323
  922SOL    HW1 3609   2.254   4.989   5.502  0.3361 -0.5113 -0.8018
  922SOL    HW2 3610   2.348   4.871   5.521  1.3856  0.4486  0.0890
  923SOL     OW 3611   3.525   0.283   3.256  0.1562  0.0517  0.8394
  923SOL    HW1 3612   3.485   0.210   3.303 -0.2703 -1.2588 -1.4092
  923SOL    HW2 3613   3.613   0.252   3.234  0.0916  0.3316  0.1529
  924SOL     OW 3614   5.916   7.227   6.160  0.2162  0.7012 -0.2948
  924SOL    HW1 3615   5.870   7.272   6.089 -0.8438  1.8559  1.0562
  924SOL    HW2 3616   5.846   7.195   6.217  1.0394 -0.3473  0.1510
  925SOL     OW 3617   6.698   5.749   7.847 -0.0438 -0.2247 -0.0311
  925SOL    HW1 3618   6.765   5.784   7.906  0.1191 -0.8691  0.1818
  925SOL    HW2 3619   6.748   5.703   7.779 -0.1745  1.4760 -1.3572
  926SOL     OW 3620   7.821   1.660   5.408  0.2777 -0.4263  0.0197
  926SOL    HW1 3621   7.768   1.738   5.393  0.8015  0.7129  3.2729
  926SOL    HW2 3622   7.890   1.665   5.342 -0.7822  0.7896 -1.0550
  927SOL     OW 3623   4.582   0.150   0.839  0.1178 -0.1242 -0.6717
  927SOL    HW1 3624   4.635   0.192   0.771  2.1500  0.4258  1.1353
  927SOL    HW2 3625   4.519   0.096   0.791  1.2270  0.5135 -2.9705
  928SOL     OW 3626   7.431   3.579   6.178  0.4541 -0.5672 -0.0837
  928SOL    HW1 3627   7.443   3.611   6.088  1.8164 -2.1024 -0.4984
  928SOL    HW2 3628   7.342   3.606   6.202  0.0557 -0.1481 -1.9066
  929SOL     OW 3629   5.740   0.736   7.435 -0.0688 -0.5307  0.0153
  929SOL    HW1 3630   5.782   0.650   7.440  1.0348  0.0309  0.6786
  929SOL    HW2 3631   5.801   0.796   7.478 -1.7876  0.2489  1.4687
  930SOL     OW 3632   5.381   2.092   3.987 -0.4785  0.2829 -0.0481
  930SOL    HW1 3633   5.332   2.043   3.921 -1.8794 -1.0228  1.8693
  930SOL    HW2 3634   5.315   2.147   4.029 -0.0016 -0.2439  1.4508
  931SOL     OW 3635   1.378   3.854   6.255  0.0792  0.4171 -0.5441
  931SOL    HW1 3636   1.417   3.769   6.274  0.6425  0.8151  0.1414
  931SOL    HW2 3637   1.448   3.904   6.213  0.4598  1.2665  1.0401
  932SOL     OW 3638   4.229   6.099   5.457 -0.5528  0.0710  0.1678
  932SOL    HW1 3639   4.235   6.124   5.365 -0.3016  0.9111  0.3976
  932SOL    HW2 3640   4.151   6.145   5.489 -1.9358 -1.9427 -0.1218
  933SOL     OW 3641   0.199   6.894   1.301  0.0967  0.1486  0.3818
  933SOL    HW1 3642   0.214   6.884   1.395 -2.4149  1.4688  1.0293
  933SOL    HW2 3643   0.121   6.841   1.284  1.7655 -1.8985 -1.5108
  934SOL     OW 3644   1.784   4.868   4.718  0.1967  0.4097 -0.1039
  934SOL    HW1 3645   1.703   4.873   4.667 -0.2433  2.2593  0.6835
  934SOL    HW2 3646   1.756   4.836   4.804  0.6376 -0.8328 -0.3991
  935SOL     OW 3647   4.135   7.709   4.473  0.2054 -0.5674 -0.1295
  935SOL    HW1 3648   4.076   7.775   4.510  0.4745 -0.0145 -0.6704
  935SOL    HW2 3649   4.088   7.626   4.484 -1.0268 -0.0538 -1.2405
  936SOL     OW 3650   0.860   3.260   0.220 -0.2217 -0.2015  0.7540
  936SOL    HW1 3651   0.932   3.322   0.228 -0.2217  0.2135 -1.5963
  936SOL    HW2 3652   0.807   3.295   0.148 -0.0624 -3.0294 -0.8745
  937SOL     OW 3653   0.493   5.083   5.248 -0.0457 -0.1248 -0.2184
  937SOL    HW1 3654   0.500   5.143   5.323 -1.2556 -0.0438 -0.1451
  937SOL    HW2 3655   0.418   5.027   5.269 -0.1463 -0.3722 -1.1826
  938SOL     OW 3656   6.496   6.471   1.448  0.1465  0.8013  0.0914
  938SOL    HW1 3657   6.491   6.509   1.360 -2.6755  1.0961  0.2762
  938SOL    HW2 3658   6.419   6.413   1.453  1.8796 -1.5601  1.3721
  939SOL     OW 3659   4.953   6.149   1.662 -0.5008 -0.3905 -0.7469
  939SOL    HW1 3660   4.893   6.161   1.735 -1.6705  1.4382 -1.9315
  939SOL    HW2 3661   4.947   6.056   1.641 -2.3106 -0.4041 -0.3058
  940SOL     OW 3662   5.816   3.702   7.162 -0.0166  0.0251  0.6837
  940SOL    HW1 3663   5.834   3.611   7.140 -0.7429 -0.1132  0.6583
  940SOL    HW2 3664   5.726   3.717   7.134  0.1074  0.7669  0.6429
  941SOL     OW 3665   6.362   0.837   7.890 -0.4213  0.6758 -0.2505
  941SOL    HW1 3666   6.428   0.892   7.848 -0.9827  2.5760  1.2096
  941SOL    HW2 3667   6.384   0.840   7.983 -1.0773 -0.7664 -0.0250
  942SOL     OW 3668   6.874   5.673   0.844  0.2041 -0.2125 -0.0348
  942SOL    HW1 3669   6.954   5.695   0.796  0.9528  0.7769  1.5734
  942SOL    HW2 3670   6.818   5.630   0.779  2.2806 -1.5609 -1.0593
  943SOL     OW 3671   5.065   4.129   5.251  0.0975  0.0577  0.3975
  943SOL    HW1 3672   5.032   4.061   5.192  2.7071 -1.1633  0.2244
  943SOL    HW2 3673   4.986   4.174   5.281 -1.4521 -0.3060 -2.7194
  944SOL     OW 3674   2.339   1.989   6.537  0.1823 -0.3612 -0.0281
  944SOL    HW1 3675   2.264   1.980   6.477 -0.2767  0.9458  0.3120
  944SOL    HW2 3676   2.315   2.063   6.593  1.0953 -0.8718  1.0548
  945SOL     OW 3677   6.980   1.779   1.574 -0.1903  0.0854 -0.3792
  945SOL    HW1 3678   6.918   1.842   1.611 -1.1708 -1.7949  1.4224
  945SOL    HW2 3679   7.065   1.803   1.611 -0.6888 -0.0883  0.9140
  946SOL     OW 3680   3.396   3.387   1.896  0.3169 -0.0372  0.3191
  946SOL    HW1 3681   3.392   3.452   1.966  0.0465 -0.7867  1.0177
  946SOL    HW2 3682   3.420   3.306   1.941 -1.1150 -0.8102 -0.2514
  947SOL     OW 3683   0.156   5.297   1.564 -0.0876  0.8220 -0.2960
  947SOL    HW1 3684   0.233   5.344   1.597  0.2824  0.7118 -0.9794
  947SOL    HW2 3685   0.124   5.351   1.491 -0.7629  0.9509  0.0891
  948SOL     OW 3686   4.612   3.751   0.956  0.5033  0.3808 -0.3068
  948SOL    HW1 3687   4.629   3.718   1.044 -0.9646 -0.0688 -0.1605
  948SOL    HW2 3688   4.698   3.776   0.922  1.3288 -1.1968  0.5401
  949SOL     OW 3689   4.738   0.842   7.890 -0.2580 -0.0310  0.2624
  949SOL    HW1 3690   4.649   0.836   7.925 -0.1169  0.7191  0.7679
  949SOL    HW2 3691   4.769   0.752   7.887 -1.3992 -0.4066 -0.8731
  950SOL     OW 3692   7.919   7.817   0.357  0.3923  0.3566 -0.3660
  950SOL    HW1 3693   8.003   7.864   0.351  1.0485 -0.8024 -0.5650
  950SOL    HW2 3694   7.883   7.843   0.442  0.4968  1.5805 -0.6717
  951SOL     OW 3695   7.810   7.274   6.655  0.1413 -0.0441  0.2101
  951SOL    HW1 3696   7.741   7.281   6.721  1.1747 -0.3600  1.3650
  951SOL    HW2 3697   7.845   7.363   6.648  0.6385 -0.1894  0.7809
  952SOL     OW 3698   1.038   6.358   1.633 -0.0374 -0.3424 -0.3137
  952SOL    HW1 3699   1.022   6.416   1.707  3.9079 -0.6468  1.0363
  952SOL    HW2 3700   1.025   6.414   1.556 -1.7013  0.7091  0.6623
  953SOL     OW 3701   6.553   3.896   5.858 -0.1591  0.0017  0.1091
  953SOL    HW1 3702   6.473   3.869   5.813 -1.4097  0.9290  1.6516
  953SOL    HW2 3703   6.561   3.989   5.838  0.3040  0.0006  0.2923
  954SOL     OW 3704   4.356   3.758   3.037  0.2798  0.5794 -0.4692
  954SOL    HW1 3705   4.283   3.787   2.982  0.4423  2.0209  0.0270
  954SOL    HW2 3706   4.383   3.837   3.084  0.0622 -0.6051  1.7915
  955SOL     OW 3707   0.899   8.062   1.733  0.5533 -0.5384 -0.2675
  955SOL    HW1 3708   0.891   8.079   1.639 -1.5736 -1.2069 -0.2691
  955SOL    HW2 3709   0.870   7.972   1.744  0.7047 -0.4519  1.0339
  956SOL     OW 3710   6.714   6.742   7.904  0.3035  0.5000 -0.5770
  956SOL    HW1 3711   6.683   6.727   7.814  1.5399 -0.7445 -0.8407
  956SOL    HW2 3712   6.785   6.805   7.895 -0.3774  1.3147 -0.3086
  957SOL     OW 3713   6.437   7.585   0.882  0.2459  0.0921 -0.0106
  957SOL    HW1 3714   6.416   7.507   0.934  0.3704  1.1632  1.7160
  957SOL    HW2 3715   6.532   7.594   0.890  0.0700  1.2291  1.0504
  958SOL     OW 3716   8.091   3.665   5.604 -0.1414  0.1754 -0.2224
  958SOL    HW1 3717   8.011   3.697   5.644 -0.1898 -0.1759 -0.0256
  958SOL    HW2 3718   8.124   3.738   5.552 -0.4730  0.3914 -0.1299
  959SOL     OW 3719   5.644   3.728   4.974  0.3913 -0.6514 -0.0046
  959SOL    HW1 3720   5.562   3.725   5.025  0.8021  0.5134  0.7455
  959SOL    HW2 3721   5.707   3.769   5.033  1.2689 -0.6340 -0.9433
  960SOL     OW 3722   4.687   3.088   2.812  0.1089 -0.4859  0.6971
  960SOL    HW1 3723   4.738   3.121   2.886 -0.9601  0.2453  1.1287
  960SOL    HW2 3724   4.730   3.124   2.735 -0.0963  0.6073  1.0843
  961SOL     OW 3725   3.612   6.289   5.598  0.0600 -0.0759 -0.4931
  961SOL    HW1 3726   3.692   6.264   5.551 -0.0961 -0.5078 -0.5319
  961SOL    HW2 3727   3.592   6.213   5.653  0.5988  0.6540  0.7668
  962SOL     OW 3728   1.048   8.044   4.990  0.2095 -0.4109  0.1488
  962SOL    HW1 3729   1.065   8.133   4.957 -1.5415 -0.4984 -1.1353
  962SOL    HW2 3730   1.078   7.986   4.920  0.2495 -0.7839  0.4711
  963SOL     OW 3731   4.107   1.000   0.454 -0.2628 -0.1521 -0.1327
  963SOL    HW1 3732   4.088   0.972   0.544 -1.9572  0.2736 -0.3173
  963SOL    HW2 3733   4.030   0.973   0.404  0.4225  0.0998 -1.3640
  964SOL     OW 3734   1.180   5.827   5.282 -0.4060 -0.2716 -0.1487
  964SOL    HW1 3735   1.237   5.811   5.207 -1.3435 -3.4855 -0.3412
  964SOL    HW2 3736   1.093   5.839   5.244 -0.2822  2.3509  0.2617
  965SOL     OW 3737   3.277   4.243   0.586  0.4299 -1.0651  0.3925
  965SOL    HW1 3738   3.350   4.301   0.610  0.6418 -1.7485  1.4682
  965SOL    HW2 3739   3.317   4.179   0.527  0.5047 -0.9415  0.3067
  966SOL     OW 3740   7.112   3.858   7.945  0.6419  0.0386 -0.1331
  966SOL    HW1 3741   7.073   3.840   8.031 -0.1417 -0.4601 -0.5819
  966SOL    HW2 3742   7.206   3.863   7.962  0.7728 -2.5820  0.3630
  967SOL     OW 3743   0.364   2.916   7.658  0.1937  0.0031 -0.0669
  967SOL    HW1 3744   0.376   2.881   7.746 -1.0256 -0.2071  0.0289
  967SOL    HW2 3745   0.315   2.997   7.670  2.5796  1.5753 -0.3335
  968SOL     OW 3746   0.721   0.481   4.566 -0.0264 -0.1686 -0.3404
  968SOL    HW1 3747   0.671   0.543   4.513  1.3164  0.2772 -1.1511
  968SOL    HW2 3748   0.749   0.532   4.642 -0.6315 -0.3676  0.0218
  969SOL     OW 3749   7.356   5.380   6.941 -0.1653 -0.3739 -0.1530
  969SOL    HW1 3750   7.284   5.432   6.906 -0.3244 -0.5622 -0.1053
  969SOL    HW2 3751   7.374   5.417   7.027  1.4846  1.3365 -1.1565
  970SOL     OW 3752   4.657   6.007   1.051 -0.3439 -0.0591  0.0158
  970SOL    HW1 3753   4.698   5.953   1.119 -1.9478 -0.9245  0.3602
  970SOL    HW2 3754   4.605   5.946   0.999 -0.7191  0.8862 -0.7600
  971SOL     OW 3755   4.260   4.858   5.959  0.3434 -0.1475 -0.3215
  971SOL    HW1 3756   4.267   4.943   6.002  0.4322 -0.1458 -0.3385
  971SOL    HW2 3757   4.256   4.879   5.866  1.7350 -0.2183 -0.4212
  972SOL     OW 3758   6.971   2.914   0.152  0.0893  0.4197 -0.2843
  972SOL    HW1 3759   6.926   2.877   0.076  0.2217 -1.3458  0.4702
  972SOL    HW2 3760   7.013   2.840   0.194 -1.6459  0.9767  2.6982
  973SOL     OW 3761   2.327   2.423   4.838  0.0851  0.2355  0.4339
  973SOL    HW1 3762   2.265   2.396   4.906 -1.0792  2.8197  0.5201
  973SOL    HW2 3763   2.307   2.367   4.763 -0.0993 -1.1634  1.4872
  974SOL     OW 3764   3.901   8.152   6.555 -0.1225 -0.0637 -0.0672
  974SOL    HW1 3765   3.835   8.207   6.514  1.3133  2.1098  0.3944
  974SOL    HW2 3766   3.883   8.064   6.521 -1.9231  0.8094 -1.5566
  975SOL     OW 3767   4.704   7.978   7.966  0.0568  0.1366  0.4142
  975SOL    HW1 3768   4.724   7.901   8.019  0.4304 -0.1858 -0.1789
  975SOL    HW2 3769   4.623   7.957   7.921 -2.1802  1.7272  3.3659
  976SOL     OW 3770   7.939   7.047   5.350  0.0106  0.5491  0.0751
  976SOL    HW1 3771   8.004   7.042   5.280  0.0649  0.9571  0.0938
  976SOL    HW2 3772   7.924   7.140   5.362  1.2260  0.5712  1.7610
  977SOL     OW 3773   5.006   1.083   5.435  0.3238  0.4065 -0.4850
  977SOL    HW1 3774   4.995   1.023   5.510  2.3155 -0.7921 -1.0471
  977SOL    HW2 3775   5.042   1.163   5.474  1.5546 -0.2846 -0.1218
  978SOL     OW 3776   8.033   7.114   6.951 -0.2011  0.0452 -0.4482
  978SOL    HW1 3777   8.024   7.202   6.916 -1.8914  0.5018  0.9380
  978SOL    HW2 3778   8.104   7.120   7.014 -0.4277  0.4839 -0.2285
  979SOL     OW 3779   6.129   0.732   7.181  0.0895  0.0710  0.0981
  979SOL    HW1 3780   6.091   0.738   7.269 -1.0525 -0.1657 -0.3563
  979SOL    HW2 3781   6.222   0.751   7.194 -0.0421 -0.0292  1.3636
  980SOL     OW 3782   7.956   1.608   2.056  0.0908  0.0240  0.2503
  980SOL    HW1 3783   7.969   1.630   1.964  0.4759  0.9288  0.5196
  980SOL    HW2 3784   7.880   1.549   2.056 -0.8490  1.1941 -0.5007
  981SOL     OW 3785   4.754   4.309   4.723 -0.1953 -0.6205 -0.6540
  981SOL    HW1 3786   4.773   4.305   4.629 -2.1894  0.6472 -1.1793
  981SOL    HW2 3787   4.665   4.274   4.731  0.5398 -2.2642  1.0341
  982SOL     OW 3788   6.819   3.859   7.629  0.8692 -0.3276  0.0009
  982SOL    HW1 3789   6.805   3.850   7.723  2.7744 -0.9608  0.2613
  982SOL    HW2 3790   6.874   3.937   7.620 -0.6175  0.7026 -0.7704
  983SOL     OW 3791   2.549   3.858   5.236 -0.3958 -0.2696  0.2692
  983SOL    HW1 3792   2.502   3.879   5.156 -3.2287 -2.7234  1.0962
  983SOL    HW2 3793   2.564   3.763   5.231  0.4763 -0.2803  2.0730
  984SOL     OW 3794   4.112   7.620   5.692 -0.3814  0.0900  0.6117
  984SOL    HW1 3795   4.189   7.672   5.668 -0.3003 -0.9182 -1.5117
  984SOL    HW2 3796   4.038   7.679   5.677 -0.1739  0.2135  0.0499
  985SOL     OW 3797   2.642   4.498   6.849  0.0996 -0.4413 -0.1717
  985SOL    HW1 3798   2.614   4.407   6.851 -1.0693 -0.0881  0.4738
  985SOL    HW2 3799   2.593   4.537   6.777  0.8558 -0.3878 -0.6709
  986SOL     OW 3800   6.540   2.444   7.727  0.1073  0.4109 -0.0777
  986SOL    HW1 3801   6.559   2.468   7.636  2.5047 -0.8007  0.0289
  986SOL    HW2 3802   6.560   2.523   7.777 -1.2170  1.0831 -0.5437
  987SOL     OW 3803   0.282   3.950   4.237  0.3103  0.0718  0.2365
  987SOL    HW1 3804   0.337   3.948   4.314  1.3464  0.4743 -0.4724
  987SOL    HW2 3805   0.289   3.862   4.200 -0.7447 -0.3362  0.9627
  988SOL     OW 3806   2.513   6.596   7.186  0.4876  0.1701  0.3257
  988SOL    HW1 3807   2.470   6.512   7.199 -0.7183  0.9738  1.9109
  988SOL    HW2 3808   2.603   6.582   7.217  0.7114 -0.8798 -0.7434
  989SOL     OW 3809   0.064   0.503   6.896  0.2567 -0.1413 -0.4115
  989SOL    HW1 3810   0.009   0.544   6.829 -0.0575  0.7692  0.3612
  989SOL    HW2 3811   0.077   0.414   6.866 -2.7579 -0.8333 -0.0223
  990SOL     OW 3812   0.244   7.782   3.072  0.1147  0.3088 -0.2428
  990SOL    HW1 3813   0.263   7.689   3.058 -0.2557  0.3531 -1.1441
  990SOL    HW2 3814   0.309   7.827   3.019  0.5482  0.5844  0.5106
  991SOL     OW 3815   1.634   0.382   3.848  0.1141 -0.2024 -0.7055
  991SOL    HW1 3816   1.622   0.447   3.779 -0.1179 -0.2360 -0.6955
  991SOL    HW2 3817   1.549   0.376   3.892 -0.4568 -1.8996 -1.9246
  992SOL     OW 3818   6.413   3.435   7.954  0.0315  1.0629 -0.5527
  992SOL    HW1 3819   6.489   3.387   7.988 -1.0187  0.8025  1.5730
  992SOL    HW2 3820   6.425   3.524   7.987  0.0902  1.3759 -1.3882
  993SOL     OW 3821   4.299   8.197   2.924 -0.0658  0.2734 -0.2903
  993SOL    HW1 3822   4.232   8.229   2.984  0.6430 -0.0848  0.7117
  993SOL    HW2 3823   4.326   8.275   2.875 -2.0034  0.2196 -1.5352
  994SOL     OW 3824   3.104   7.702   3.013 -0.8887 -0.4267  0.3207
  994SOL    HW1 3825   3.048   7.756   2.956  0.7319 -0.3500 -1.2745
  994SOL    HW2 3826   3.124   7.625   2.960  0.6203 -0.3750  0.7862
  995SOL     OW 3827   0.943   4.759   7.004 -0.5840 -0.1079 -0.2593
  995SOL    HW1 3828   0.908   4.671   6.991 -1.1246  0.1546 -0.6818
  995SOL    HW2 3829   0.961   4.790   6.915  0.6601 -0.1997 -0.0505
  996SOL     OW 3830   6.363   3.876   0.498 -0.1854 -0.0241  0.2742
  996SOL    HW1 3831   6.298   3.818   0.537  0.2119 -0.5395  0.1899
  996SOL    HW2 3832   6.447   3.845   0.533  0.0145  0.6815  0.4470
  997SOL     OW 3833   1.249   7.880   6.298 -0.0930  0.6071  0.1058
  997SOL    HW1 3834   1.271   7.956   6.352 -1.9768  0.5491  1.0120
  997SOL    HW2 3835   1.222   7.917   6.214 -0.7165  0.9238  0.4434
  998SOL     OW 3836   4.143   2.557   1.737  0.0450  0.3952  0.5124
  998SOL    HW1 3837   4.131   2.489   1.671 -0.9421 -0.1731  1.2544
  998SOL    HW2 3838   4.130   2.639   1.689 -1.3243 -0.0252  0.1188
  999SOL     OW 3839   0.092   4.361   8.048 -0.7957 -0.2480 -0.0699
  999SOL    HW1 3840   0.108   4.355   8.142 -1.0438 -1.2116 -0.0771
  999SOL    HW2 3841   0.022   4.426   8.040 -2.2157 -1.6283  0.5997
 1000SOL     OW 3842   7.653   7.787   3.944 -0.2408 -0.0961  0.2826
 1000SOL    HW1 3843   7.666   7.706   3.895 -0.2130  0.7766 -1.2234
 1000SOL    HW2 3844   7.713   7.850   3.903 -1.5615  1.1672  0.1771
 1001SOL     OW 3845   7.593   3.964   7.728  0.3743 -0.0258 -0.1221
 1001SOL    HW1 3846   7.595   3.914   7.646 -0.2767 -0.5133  0.1410
 1001SOL    HW2 3847   7.552   3.904   7.791  0.5700  0.4602  0.4778
 1002SOL     OW 3848   1.904   1.862   2.012  0.1456 -0.4868  0.2066
 1002SOL    HW1 3849   1.991   1.873   2.051 -0.7143  0.8211  1.8956
 1002SOL    HW2 3850   1.858   1.804   2.072 -0.6690  0.1977  0.2647
 1003SOL     OW 3851   3.268   7.332   7.335  0.4715 -0.2800  0.1077
 1003SOL    HW1 3852   3.332   7.391   7.375 -1.0401 -0.0164  2.3263
 1003SOL    HW2 3853   3.318   7.284   7.269  2.7679  0.4561  1.1876
 1004SOL     OW 3854   1.690   3.779   1.222 -0.5712  0.7321  0.0937
 1004SOL    HW1 3855   1.756   3.797   1.289 -0.0145 -1.4444  0.2115
 1004SOL    HW2 3856   1.640   3.706   1.258  0.6009 -1.4088 -2.3533
 1005SOL     OW 3857   1.719   6.908   1.962  0.1674  0.1684  0.1273
 1005SOL    HW1 3858   1.663   6.894   1.886  1.4484 -0.6539 -0.7007
 1005SOL    HW2 3859   1.713   6.827   2.012 -0.1156  0.4426  0.5508
 1006SOL     OW 3860   1.986   6.750   4.932 -0.1036 -0.5689 -0.0330
 1006SOL    HW1 3861   2.073   6.718   4.907  0.6075 -0.1561  1.7901
 1006SOL    HW2 3862   1.955   6.686   4.996  0.0911  0.7467  1.4360
 1007SOL     OW 3863   0.747   7.285   0.826 -0.9156  0.2807 -0.9510
 1007SOL    HW1 3864   0.762   7.248   0.913  0.5360 -1.0022 -1.6827
 1007SOL    HW2 3865   0.692   7.362   0.841  0.2854  0.7934  1.2136
 1008SOL     OW 3866   7.313   0.609   4.460  0.1877 -0.9547 -0.7002
 1008SOL    HW1 3867   7.372   0.681   4.439 -0.6967  0.1555  0.4733
 1008SOL    HW2 3868   7.369   0.531   4.460  1.4149 -0.1012 -0.7460
 1009SOL     OW 3869   0.346   4.877   0.026 -0.5937 -0.1649  0.2656
 1009SOL    HW1 3870   0.251   4.888   0.021 -0.4204  0.9968 -1.2416
 1009SOL    HW2 3871   0.364   4.867   0.120 -2.1538 -0.0466  0.6077
 1010SOL     OW 3872   4.435   0.470   0.877  0.4854  0.7007 -0.1367
 1010SOL    HW1 3873   4.502   0.477   0.810  0.3563  0.8995 -0.2468
 1010SOL    HW2 3874   4.356   0.445   0.829  0.8645 -1.2707  0.2013
 1011SOL     OW 3875   4.267   6.325   7.261  0.5156 -0.3169  0.6460
 1011SOL    HW1 3876   4.324   6.281   7.199  0.2884  0.6515 -0.2818
 1011SOL    HW2 3877   4.184   6.278   7.257  0.2812  0.1677 -0.3154
 1012SOL     OW 3878   8.211   3.923   8.053  0.6148  0.2936 -1.1741
 1012SOL    HW1 3879   8.262   3.883   8.123 -1.2100 -0.9709 -0.4994
 1012SOL    HW2 3880   8.130   3.951   8.094 -0.3131 -0.0648 -2.6504
 1013SOL     OW 3881   3.323   4.066   0.384  0.0498  0.3130 -0.1823
 1013SOL    HW1 3882   3.259   4.017   0.332  0.6914 -0.7309 -0.0013
 1013SOL    HW2 3883   3.394   4.004   0.400  0.3122  0.9164  1.1105
 1014SOL     OW 3884   0.561   5.955   5.809  0.0140  0.7239 -0.0723
 1014SOL    HW1 3885   0.557   6.047   5.785  0.3761  0.5918 -0.6546
 1014SOL    HW2 3886   0.476   5.920   5.784  0.5657  0.4658 -1.7268
 1015SOL     OW 3887   6.035   5.895   6.450 -0.6771 -0.0767 -0.0448
 1015SOL    HW1 3888   6.035   5.822   6.512  0.3836 -0.3215 -0.3189
 1015SOL    HW2 3889   6.046   5.972   6.505 -1.2862 -0.1584  0.2009
 1016SOL     OW 3890   5.780   0.042   1.417 -0.5189 -0.0113 -0.1698
 1016SOL    HW1 3891   5.736  -0.003   1.490  2.6353 -0.6086  1.5277
 1016SOL    HW2 3892   5.785   0.133   1.445 -0.3579 -0.0132 -0.1917
 1017SOL     OW 3893   2.079   0.880   3.897 -0.4764 -0.5214  0.5778
 1017SOL    HW1 3894   2.110   0.789   3.899 -1.0111 -0.7024  1.0954
 1017SOL    HW2 3895   2.028   0.886   3.816  0.9495 -0.1947 -0.3253
 1018SOL     OW 3896   1.754   1.105   5.493  0.3417  0.2454  0.2064
 1018SOL    HW1 3897   1.825   1.163   5.520  0.9073 -1.2054  2.0918
 1018SOL    HW2 3898   1.798   1.024   5.466 -0.3438  0.9133 -3.4201
 1019SOL     OW 3899   7.076   5.112   2.216  0.2456  0.0815  0.2024
 1019SOL    HW1 3900   7.026   5.035   2.243  0.5852 -0.8065 -1.5991
 1019SOL    HW2 3901   7.010   5.172   2.181  0.0944  0.2472  0.7537
 1020SOL     OW 3902   3.878   5.525   3.094 -0.3268  0.3811  0.4174
 1020SOL    HW1 3903   3.856   5.599   3.038  1.7343 -1.3514 -3.0240
 1020SOL    HW2 3904   3.836   5.450   3.052  0.6553 -0.9190  1.6558
 1021SOL     OW 3905   2.962   3.133   1.146  0.4354 -0.2771 -0.0867
 1021SOL    HW1 3906   2.869   3.151   1.159  0.3510 -0.4426 -0.4478
 1021SOL    HW2 3907   2.963   3.048   1.101  0.7055  0.3921 -1.3807
 1022SOL     OW 3908   1.504   0.784   7.073 -0.4404 -0.6397 -0.2635
 1022SOL    HW1 3909   1.534   0.756   7.160 -0.4716 -1.0489 -0.3835
 1022SOL    HW2 3910   1.416   0.818   7.089 -0.5907 -1.0543 -0.1889
 1023SOL     OW 3911   0.261   2.160   0.018  0.3745  0.3159 -0.6170
 1023SOL    HW1 3912   0.227   2.075   0.047 -0.6178  0.5467 -1.0508
 1023SOL    HW2 3913   0.350   2.163   0.052 -0.0722 -0.2709  0.6796
 1024SOL     OW 3914   5.709   6.130   7.812 -0.3512  0.2954  0.3147
 1024SOL    HW1 3915   5.714   6.087   7.898 -1.9680  0.2923  0.4348
 1024SOL    HW2 3916   5.798   6.124   7.777 -0.3298 -2.5228  0.6399
 1025SOL     OW 3917   2.063   4.917   3.764 -0.1041 -0.0916  0.4225
 1025SOL    HW1 3918   2.133   4.964   3.810  1.3698 -0.2560 -1.4889
 1025SOL    HW2 3919   2.030   4.980   3.700 -0.0680 -0.7587 -0.2712
 1026SOL     OW 3920   0.087   4.664   6.682  0.5806 -0.5552  0.1383
 1026SOL    HW1 3921   0.175   4.629   6.683 -0.2369 -2.9308 -1.8589
 1026SOL    HW2 3922   0.086   4.726   6.609  0.6938 -0.1632  0.4636
 1027SOL     OW 3923   1.770   1.741   6.903  0.2219  0.7633 -0.3644
 1027SOL    HW1 3924   1.714   1.711   6.832  2.4661 -0.7103 -1.6452
 1027SOL    HW2 3925   1.849   1.773   6.859  1.5385  0.1406  1.4220
 1028SOL     OW 3926   4.842   4.018   7.122  0.1816  0.1237 -0.4216
 1028SOL    HW1 3927   4.794   4.047   7.044  0.4978 -2.9287 -1.9071
 1028SOL    HW2 3928   4.931   4.052   7.109  0.1528 -0.1001 -1.2778
 1029SOL     OW 3929   5.873   0.714   4.278 -0.1409  0.5140 -0.0235
 1029SOL    HW1 3930   5.877   0.640   4.217  1.0274 -0.4029  1.0861
 1029SOL    HW2 3931   5.780   0.732   4.289 -0.4409 -0.6368 -0.5207
 1030SOL     OW 3932   3.263   2.805   4.503 -0.0458  0.3749  0.3937
 1030SOL    HW1 3933   3.329   2.792   4.571  0.9567  0.1020 -0.5985
 1030SOL    HW2 3934   3.189   2.750   4.530  2.1155 -3.6860 -1.0502
 1031SOL     OW 3935   7.394   2.710   0.828 -0.6031  0.0799 -0.2691
 1031SOL    HW1 3936   7.403   2.624   0.868 -1.2150  0.6866  1.2469
 1031SOL    HW2 3937   7.482   2.730   0.794 -0.3802 -0.9878 -0.3647
 1032SOL     OW 3938   7.803   0.466   2.128 -0.6668  0.7746  0.1226
 1032SOL    HW1 3939   7.885   0.418   2.137  1.0826  3.3175 -0.8633
 1032SOL    HW2 3940   7.782   0.460   2.035 -2.9065 -1.6835  0.6943
 1033SOL     OW 3941   2.810   8.211   2.837  0.5349  0.3255 -0.1284
 1033SOL    HW1 3942   2.787   8.171   2.921 -0.5423 -0.6608 -0.8666
 1033SOL    HW2 3943   2.837   8.300   2.860  0.1651  0.1135  1.2454
 1034SOL     OW 3944   2.006   1.923   2.302 -0.6625  1.1166 -0.8931
 1034SOL    HW1 3945   1.938   1.985   2.275 -0.9679  0.5185 -1.5596
 1034SOL    HW2 3946   2.051   1.900   2.221 -2.6618 -1.9823 -1.3316
 1035SOL     OW 3947   0.870   4.440   5.107  0.2352  0.6814 -0.1595
 1035SOL    HW1 3948   0.853   4.402   5.021  0.2476  1.1857 -0.3905
 1035SOL    HW2 3949   0.784   4.442   5.150  0.4215 -0.6865  0.3148
 1036SOL     OW 3950   1.662   3.840   7.123 -0.4026 -0.2813  0.0388
 1036SOL    HW1 3951   1.643   3.903   7.192 -1.4148  0.4203 -0.8434
 1036SOL    HW2 3952   1.708   3.768   7.167 -1.3276 -0.0197  1.4800
 1037SOL     OW 3953   6.910   5.477   7.678  0.4025 -0.1369 -0.1732
 1037SOL    HW1 3954   6.828   5.434   7.654  0.9878 -1.6241  0.4205
 1037SOL    HW2 3955   6.930   5.445   7.766  0.0243  2.6539  1.0243
 1038SOL     OW 3956   3.501   7.929   7.635  0.2593  0.6484 -0.9093
 1038SOL    HW1 3957   3.498   7.908   7.542 -1.4592 -1.0744 -0.5378
 1038SOL    HW2 3958   3.474   8.021   7.640  0.2661  0.7249 -2.0906
 1039SOL     OW 3959   2.720   6.562   0.276  0.2144  0.0044 -0.1332
 1039SOL    HW1 3960   2.745   6.525   0.360 -0.9332 -1.2153 -0.2917
 1039SOL    HW2 3961   2.737   6.491   0.213 -0.7450  0.2151 -0.6438
 1040SOL     OW 3962   0.234   4.185   0.455  0.2902 -0.1166  0.4785
 1040SOL    HW1 3963   0.218   4.218   0.543  0.3977  1.6976 -0.1395
 1040SOL    HW2 3964   0.305   4.238   0.421 -0.7599  0.2855 -1.2418
 1041SOL     OW 3965   6.469   0.836   4.092 -0.3988  0.0491 -0.2336
 1041SOL    HW1 3966   6.564   0.847   4.099 -0.1074 -1.1488 -1.6915
 1041SOL    HW2 3967   6.456   0.802   4.003 -2.2481  0.6643 -0.2248
 1042SOL     OW 3968   6.835   7.735   2.650  0.1142  0.1949  0.3455
 1042SOL    HW1 3969   6.803   7.709   2.737  1.2332 -0.4640  0.5876
 1042SOL    HW2 3970   6.926   7.761   2.666  0.2468  0.3219 -0.5856
 1043SOL     OW 3971   4.824   3.469   2.644 -0.5420  0.1383  0.4594
 1043SOL    HW1 3972   4.732   3.454   2.661 -0.6787 -0.5998 -0.8288
 1043SOL    HW2 3973   4.826   3.518   2.561  0.2560 -1.1928 -0.3448
 1044SOL     OW 3974   2.521   3.537   6.583  0.1542 -0.2437  0.0059
 1044SOL    HW1 3975   2.533   3.611   6.643 -1.1148 -0.1422  0.1566
 1044SOL    HW2 3976   2.571   3.562   6.505  2.7259 -0.8437  1.3340
 1045SOL     OW 3977   5.709   6.829   5.041 -0.2284  0.2915 -0.1005
 1045SOL    HW1 3978   5.783   6.880   5.074  0.1386 -1.3829  1.8766
 1045SOL    HW2 3979   5.750   6.760   4.989 -0.3669 -0.5008  0.8070
 1046SOL     OW 3980   1.034   4.727   2.467 -0.0669 -0.1273 -0.2550
 1046SOL    HW1 3981   1.098   4.660   2.444  0.9308  1.5002 -2.7109
 1046SOL    HW2 3982   0.988   4.692   2.543  1.7038 -2.6835 -0.2397
 1047SOL     OW 3983   3.833   3.753   0.216  0.1221 -0.1117 -0.1224
 1047SOL    HW1 3984   3.802   3.674   0.262  2.0343 -0.0996  1.2768
 1047SOL    HW2 3985   3.882   3.802   0.282 -1.0798  2.3491 -0.9307
 1048SOL     OW 3986   5.143   3.620   3.891  0.3040  0.5477 -0.4561
 1048SOL    HW1 3987   5.121   3.710   3.866 -0.3518  0.6982  0.6071
 1048SOL    HW2 3988   5.064   3.587   3.933  1.0790  0.0473  0.6698
 1049SOL     OW 3989   3.133   5.191   7.193  0.0875 -0.5757  0.0852
 1049SOL    HW1 3990   3.182   5.129   7.138 -1.2640  0.4939 -2.4880
 1049SOL    HW2 3991   3.056   5.142   7.221  1.8982 -1.9075  3.2349
 1050SOL     OW 3992   2.661   4.171   5.530  0.1761 -0.6314 -0.0826
 1050SOL    HW1 3993   2.678   4.263   5.513  4.7811 -1.2310  0.1541
 1050SOL    HW2 3994   2.684   4.126   5.448 -1.2980 -1.6787  0.0308
 1051SOL     OW 3995   3.277   6.782   2.731  0.0572  0.2527  0.0719
 1051SOL    HW1 3996   3.361   6.824   2.752  0.4115 -0.9829  1.3199
 1051SOL    HW2 3997   3.211   6.849   2.747  0.8138  1.4465 -1.5343
 1052SOL     OW 3998   7.444   1.856   2.851 -0.3851 -0.1480 -0.6442
 1052SOL    HW1 3999   7.411   1.767   2.869 -0.6584 -0.0106 -0.4552
 1052SOL    HW2 4000   7.526   1.862   2.899 -0.6936 -0.0732 -0.1235
 1053SOL     OW 4001   7.481   4.571   4.965  0.2622 -0.3249 -0.1764
 1053SOL    HW1 4002   7.567   4.541   4.992 -0.1394 -0.3125  1.1533
 1053SOL    HW2 4003   7.428   4.572   5.045 -0.7493  0.4396 -0.8143
 1054SOL     OW 4004   2.118   1.970   5.498 -0.5155 -0.0113  0.3745
 1054SOL    HW1 4005   2.163   1.971   5.413 -1.0976  0.0996  0.0684
 1054SOL    HW2 4006   2.028   1.946   5.478 -0.2569 -1.8252  1.1586
 1055SOL     OW 4007   4.099   5.306   0.868 -0.0636 -0.0605 -0.1845
 1055SOL    HW1 4008   4.019   5.255   0.862 -1.0678  1.2568  1.2037
 1055SOL    HW2 4009   4.109   5.347   0.783 -0.5448 -0.6745 -0.5437
 1056SOL     OW 4010   6.219   2.425   0.374 -0.3553  0.5728 -0.0874
 1056SOL    HW1 4011   6.161   2.415   0.449 -1.6416 -1.1788 -1.2386
 1056SOL    HW2 4012   6.168   2.474   0.310  0.0680  0.5215 -0.4750
 1057SOL     OW 4013   6.316   1.310   4.556 -0.0280  0.7174  0.0702
 1057SOL    HW1 4014   6.333   1.400   4.529  1.4828  0.1299 -1.0603
 1057SOL    HW2 4015   6.402   1.273   4.572 -0.4519 -1.1552 -1.5738
 1058SOL     OW 4016   0.153   0.585   6.289 -0.2497 -0.2797  0.3126
 1058SOL    HW1 4017   0.175   0.676   6.309 -0.5207 -0.6374  2.5007
 1058SOL    HW2 4018   0.230   0.552   6.242  0.3402  0.7626  0.5128
 1059SOL     OW 4019   7.998   1.445   2.385 -0.3822 -0.7879  0.1288
 1059SOL    HW1 4020   7.905   1.454   2.368 -0.0871  0.2236 -1.1464
 1059SOL    HW2 4021   8.028   1.534   2.403  0.3769 -1.0688  0.3102
 1060SOL     OW 4022   6.859   4.007   4.188  0.1881  0.4960  0.7195
 1060SOL    HW1 4023   6.919   4.080   4.178  0.3850  0.0378 -2.0337
 1060SOL    HW2 4024   6.792   4.039   4.248  1.5333  2.0485  1.4814
 1061SOL     OW 4025   4.304   5.177   6.868  0.2514  0.2055  0.6266
 1061SOL    HW1 4026   4.397   5.183   6.893  0.1621  0.4609  0.9134
 1061SOL    HW2 4027   4.286   5.260   6.824  0.4308 -0.2846 -0.3968
 1062SOL     OW 4028   5.057   3.925   3.894  0.9110 -0.4694 -0.5959
 1062SOL    HW1 4029   4.998   3.976   3.949  1.0806 -0.5926 -0.3032
 1062SOL    HW2 4030   5.035   3.952   3.804 -0.2435 -1.2003 -0.5522
 1063SOL     OW 4031   1.215   7.178   4.890 -0.1188 -0.3053 -0.4101
 1063SOL    HW1 4032   1.299   7.199   4.849 -0.6294  2.0865 -0.3944
 1063SOL    HW2 4033   1.195   7.254   4.944 -0.8440 -2.1457  2.1135
 1064SOL     OW 4034   0.574   1.731   4.459 -0.3032  0.2913  0.1470
 1064SOL    HW1 4035   0.627   1.788   4.403  1.7877  0.4132  2.0899
 1064SOL    HW2 4036   0.499   1.785   4.484  0.6659  1.5541  0.4252
 1065SOL     OW 4037   5.254   4.780   7.009 -0.1679 -0.3900  0.2978
 1065SOL    HW1 4038   5.220   4.691   7.017  0.3884 -0.5543  0.9644
 1065SOL    HW2 4039   5.204   4.819   6.938 -1.7099 -0.6366  1.2124
 1066SOL     OW 4040   5.345   0.712   6.047 -0.1353 -0.4147 -0.0421
 1066SOL    HW1 4041   5.384   0.767   5.979  0.7711  0.2416  0.9836
 1066SOL    HW2 4042   5.251   0.721   6.035  0.0073  0.8765 -0.2740
 1067SOL     OW 4043   6.334   4.585   3.569 -0.8996  0.0491 -0.4000
 1067SOL    HW1 4044   6.423   4.580   3.603 -0.6723 -0.8053 -1.0705
 1067SOL    HW2 4045   6.303   4.671   3.595 -0.1578  0.0553  0.5202
 1068SOL     OW 4046   5.888   3.942   7.294 -0.0617 -0.1656  0.4021
 1068SOL    HW1 4047   5.965   3.987   7.258 -0.3795 -0.8040 -1.1718
 1068SOL    HW2 4048   5.864   3.878   7.227 -1.2609 -0.8024  1.3908
 1069SOL     OW 4049   1.120   4.750   3.213 -0.5751  0.1230 -0.1318
 1069SOL    HW1 4050   1.141   4.787   3.127  1.6524  0.3665  0.4678
 1069SOL    HW2 4051   1.134   4.822   3.274 -1.2508 -0.3057  0.5381
 1070SOL     OW 4052   7.517   6.714   2.915 -0.3611  0.6007 -0.1156
 1070SOL    HW1 4053   7.475   6.738   2.832  1.8741  0.0758 -1.4914
 1070SOL    HW2 4054   7.532   6.620   2.908  0.8031  0.7284  0.4094
 1071SOL     OW 4055   8.170   4.675   1.555  0.3275 -0.0333 -1.1728
 1071SOL    HW1 4056   8.131   4.719   1.479 -2.7406 -0.0274  0.2445
 1071SOL    HW2 4057   8.180   4.744   1.620 -2.1886 -0.8434  0.2074
 1072SOL     OW 4058   1.597   1.106   5.723  0.0016 -0.4086  0.5001
 1072SOL    HW1 4059   1.562   1.019   5.741 -2.2988  0.2808 -0.2523
 1072SOL    HW2 4060   1.654   1.095   5.646 -1.2873 -1.0675 -0.3862
 1073SOL     OW 4061   1.845   0.846   7.074  0.0333  0.0331  0.2335
 1073SOL    HW1 4062   1.796   0.826   7.154 -1.8416 -0.5515 -0.9916
 1073SOL    HW2 4063   1.813   0.783   7.009  2.8549 -0.7645 -0.5437
 1074SOL     OW 4064   1.983   4.680   3.843  0.2785  0.0277 -0.3087
 1074SOL    HW1 4065   2.002   4.760   3.794 -0.9197  0.4248 -0.1668
 1074SOL    HW2 4066   2.065   4.659   3.888 -0.0381  2.6453  1.7393
 1075SOL     OW 4067   0.256   7.200   2.544 -0.2121  0.3922 -0.8584
 1075SOL    HW1 4068   0.204   7.174   2.620 -1.8736  0.5422 -1.9042
 1075SOL    HW2 4069   0.346   7.205   2.577 -0.8543  0.2011  1.0245
 1076SOL     OW 4070   6.646   3.988   7.452 -0.0608  0.0105 -0.0314
 1076SOL    HW1 4071   6.680   3.915   7.505  0.2734  0.7117  0.7525
 1076SOL    HW2 4072   6.636   4.060   7.515 -0.3242  0.6562 -0.8006
 1077SOL     OW 4073   2.736   2.096   7.835 -0.6990 -0.0205  0.0487
 1077SOL    HW1 4074   2.731   2.153   7.758 -0.5740 -0.1194 -0.0328
 1077SOL    HW2 4075   2.822   2.116   7.874 -1.3537  1.0888  0.9887
 1078SOL     OW 4076   7.670   7.620   5.495  0.1298 -0.0078 -0.1524
 1078SOL    HW1 4077   7.672   7.534   5.453  0.6984  0.2337 -0.6182
 1078SOL    HW2 4078   7.648   7.681   5.425 -0.8807  0.1652  0.2978
 1079SOL     OW 4079   4.389   2.707   5.984 -0.0789 -0.8762  0.1304
 1079SOL    HW1 4080   4.440   2.780   6.019 -0.1999 -1.1938  0.9916
 1079SOL    HW2 4081   4.303   2.715   6.026 -0.5795 -0.6535 -0.9051
 1080SOL     OW 4082   7.882   1.949   3.865 -0.2574  0.1662 -0.0847
 1080SOL    HW1 4083   7.864   1.963   3.773  1.8172  1.4814 -0.3669
 1080SOL    HW2 4084   7.940   1.872   3.867  2.1566  1.8457 -0.2857
 1081SOL     OW 4085   0.656   5.205   8.050  0.6404  0.2895  0.4833
 1081SOL    HW1 4086   0.678   5.225   7.958 -0.7954 -2.2175 -0.5002
 1081SOL    HW2 4087   0.724   5.144   8.078 -1.2103 -2.3746 -0.4450
 1082SOL     OW 4088   5.982   3.398   7.926 -0.1490 -0.0878  0.0589
 1082SOL    HW1 4089   5.913   3.415   7.990 -0.1451  0.1675 -0.0021
 1082SOL    HW2 4090   6.062   3.397   7.977 -0.3209 -1.6947  0.3294
 1083SOL     OW 4091   7.438   0.984   5.860 -0.2676 -0.3716 -0.5247
 1083SOL    HW1 4092   7.516   1.025   5.897 -0.9025  0.7457 -0.4054
 1083SOL    HW2 4093   7.418   0.912   5.921  0.2592 -0.2387 -0.1860
 1084SOL     OW 4094   7.105   4.890   3.605 -0.2650 -0.0432  0.1991
 1084SOL    HW1 4095   7.021   4.914   3.566  0.0246  1.9070  0.6638
 1084SOL    HW2 4096   7.165   4.958   3.576  0.9391 -0.8844  0.6411
 1085SOL     OW 4097   0.391   5.452   7.783 -0.0969  0.1225  0.3877
 1085SOL    HW1 4098   0.365   5.449   7.875  0.8227 -2.1029  0.6388
 1085SOL    HW2 4099   0.482   5.478   7.784  0.4555 -1.6643  0.2966
 1086SOL     OW 4100   3.897   4.699   6.510  0.3953 -0.0390  0.5631
 1086SOL    HW1 4101   3.956   4.773   6.502  0.5839 -0.3047 -0.7619
 1086SOL    HW2 4102   3.850   4.695   6.426 -1.9389  0.4992  1.7414
 1087SOL     OW 4103   4.201   3.488   2.880 -0.3199 -0.0550 -0.7858
 1087SOL    HW1 4104   4.254   3.409   2.888 -1.0578 -0.6973 -2.0543
 1087SOL    HW2 4105   4.264   3.560   2.886  0.2891 -0.6727  1.0541
 1088SOL     OW 4106   6.844   5.187   3.994 -0.2932  0.2674  0.0801
 1088SOL    HW1 4107   6.935   5.165   3.976 -0.0744  0.5749  0.7703
 1088SOL    HW2 4108   6.845   5.282   4.007 -0.4669  0.1014  1.4321
 1089SOL     OW 4109   6.117   3.741   8.116  0.6210  0.1422 -0.3474
 1089SOL    HW1 4110   6.137   3.649   8.128 -2.2703 -0.4949  0.4702
 1089SOL    HW2 4111   6.118   3.755   8.021  0.1143 -1.0085 -0.5350
 1090SOL     OW 4112   6.409   1.167   7.135  0.1424 -0.1321  0.8252
 1090SOL    HW1 4113   6.503   1.171   7.117 -0.4033 -1.1854 -3.0012
 1090SOL    HW2 4114   6.371   1.236   7.081 -1.3167  0.7594  2.8627
 1091SOL     OW 4115   4.534   1.060   5.233  0.2649 -0.2369  0.0291
 1091SOL    HW1 4116   4.627   1.081   5.225  0.3259 -0.5194 -0.0199
 1091SOL    HW2 4117   4.494   1.140   5.268  0.7116 -0.5199  1.2287
 1092SOL     OW 4118   3.014   5.802   6.622 -0.0710 -0.3780 -0.0076
 1092SOL    HW1 4119   3.011   5.706   6.629 -0.8994 -0.4602 -1.2985
 1092SOL    HW2 4120   3.018   5.832   6.713  2.1723 -1.6642  0.4096
 1093SOL     OW 4121   4.001   4.607   4.552  0.3724 -0.5263  0.0248
 1093SOL    HW1 4122   4.090   4.622   4.582  0.8342 -1.2136 -0.9583
 1093SOL    HW2 4123   3.949   4.598   4.632  1.8101 -3.8425  0.7415
 1094SOL     OW 4124   1.247   4.457   5.417 -0.0712  0.1294 -0.4968
 1094SOL    HW1 4125   1.172   4.409   5.452 -0.7599  0.3940 -1.5660
 1094SOL    HW2 4126   1.210   4.538   5.382  0.5458 -0.2161 -2.0016
 1095SOL     OW 4127   7.211   1.907   1.659  0.3096  0.3861 -0.4869
 1095SOL    HW1 4128   7.242   1.996   1.643  2.5848 -0.2544 -0.0061
 1095SOL    HW2 4129   7.218   1.896   1.754 -1.3124  0.1182 -0.3623
 1096SOL     OW 4130   2.978   7.588   5.926  0.1740  0.1250  0.5138
 1096SOL    HW1 4131   3.035   7.662   5.906  0.4089 -0.2566 -0.2688
 1096SOL    HW2 4132   2.976   7.537   5.845 -2.1601  0.6999  0.1404
 1097SOL     OW 4133   1.469   5.364   1.936  0.2415  0.1489  0.3028
 1097SOL    HW1 4134   1.386   5.345   1.893 -0.7510  2.5741  0.9555
 1097SOL    HW2 4135   1.466   5.316   2.019 -0.3803 -0.0261  0.1768
 1098SOL     OW 4136   0.923   7.767   0.313 -0.6125  0.8994 -0.0642
 1098SOL    HW1 4137   0.926   7.855   0.277 -0.7888  1.0290  0.2355
 1098SOL    HW2 4138   0.904   7.711   0.238 -0.7455  1.1434 -0.2132
 1099SOL     OW 4139   1.363   2.738   3.150  0.1052  0.2962  0.0398
 1099SOL    HW1 4140   1.283   2.701   3.187  0.8439 -0.2751  1.1143
 1099SOL    HW2 4141   1.422   2.750   3.225  0.8351  1.2228 -0.6521
 1100SOL     OW 4142   0.812   0.363   0.172  0.5292 -0.1755  0.2172
 1100SOL    HW1 4143   0.797   0.450   0.209  0.4496  0.3002 -0.8747
 1100SOL    HW2 4144   0.858   0.315   0.241 -1.3176  0.0140  1.6681
 1101SOL     OW 4145   1.529   3.861   2.507  0.4514 -0.3628 -0.1334
 1101SOL    HW1 4146   1.484   3.790   2.461  0.3934 -0.0691 -0.5386
 1101SOL    HW2 4147   1.469   3.886   2.578  1.8458 -2.8609  2.0568
 1102SOL     OW 4148   6.344   0.033   6.966  0.6909  0.1604  0.0521
 1102SOL    HW1 4149   6.303  -0.042   7.008 -1.2250  0.9175 -0.3836
 1102SOL    HW2 4150   6.359   0.004   6.875 -0.7385  0.5225 -0.3183
 1103SOL     OW 4151   5.054   7.281   1.642  0.2519 -0.4727 -0.6659
 1103SOL    HW1 4152   5.100   7.264   1.724  0.7370  0.5602 -0.7032
 1103SOL    HW2 4153   5.041   7.194   1.603 -0.7695 -1.0454  0.8937
 1104SOL     OW 4154   3.305   7.897   0.439  0.2021  0.0070 -0.1911
 1104SOL    HW1 4155   3.374   7.841   0.404 -0.4431 -0.8084 -0.2137
 1104SOL    HW2 4156   3.250   7.918   0.363  0.1478  0.2348 -0.0901
 1105SOL     OW 4157   0.811   7.558   6.365  0.7199  0.2918  0.0776
 1105SOL    HW1 4158   0.829   7.501   6.440  0.9939  0.9747  0.5426
 1105SOL    HW2 4159   0.835   7.646   6.395 -0.6313  0.8094 -0.2952
 1106SOL     OW 4160   0.955   6.084   5.850 -0.2214  0.2883  0.2516
 1106SOL    HW1 4161   0.882   6.034   5.886 -0.8312  0.8714 -0.1484
 1106SOL    HW2 4162   0.992   6.130   5.925  0.2909 -0.6694  0.6108
 1107SOL     OW 4163   3.279   0.609   1.823 -0.2275 -0.1494  0.6996
 1107SOL    HW1 4164   3.338   0.616   1.898  2.0023 -0.3036 -0.9341
 1107SOL    HW2 4165   3.252   0.517   1.822  1.6596 -0.7332 -0.0107
 1108SOL     OW 4166   7.337   8.143   4.721 -0.4076 -0.4170 -0.3341
 1108SOL    HW1 4167   7.301   8.086   4.789  0.5619 -0.0235  0.5409
 1108SOL    HW2 4168   7.359   8.224   4.768 -0.2873  0.0935 -1.2490
 1109SOL     OW 4169   1.772   7.436   1.992 -0.0984  0.2208  0.3517
 1109SOL    HW1 4170   1.847   7.409   1.938  1.2091  1.8598  1.2634
 1109SOL    HW2 4171   1.735   7.511   1.946 -0.3774  0.2197  0.5730
 1110SOL     OW 4172   4.522   6.801   1.962 -0.1229 -0.1985  0.1312
 1110SOL    HW1 4173   4.508   6.763   1.876  0.6101 -3.5663  1.3379
 1110SOL    HW2 4174   4.615   6.824   1.964 -0.0180 -0.6243  0.1929
 1111SOL     OW 4175   6.796   6.616   3.721 -0.2284  0.5595 -0.1004
 1111SOL    HW1 4176   6.876   6.651   3.680 -0.6582  3.1548  1.0482
 1111SOL    HW2 4177   6.816   6.524   3.738  1.5645  0.4998 -2.0959
 1112SOL     OW 4178   2.258   2.771   0.343  0.1380 -0.5011  0.0118
 1112SOL    HW1 4179   2.247   2.763   0.438  0.1032 -0.7221 -0.0107
 1112SOL    HW2 4180   2.179   2.818   0.314  1.1113  1.4469  0.3523
 1113SOL     OW 4181   5.906   6.366   7.989  0.1165  0.1743 -0.0273
 1113SOL    HW1 4182   5.835   6.422   7.956 -1.0710 -1.4424 -0.3574
 1113SOL    HW2 4183   5.861   6.299   8.041  1.2578 -1.6906 -1.3310
 1114SOL     OW 4184   5.021   1.360   4.599 -0.0275 -0.2810 -0.4846
 1114SOL    HW1 4185   5.014   1.454   4.587 -1.0962 -0.3031 -0.1837
 1114SOL    HW2 4186   5.094   1.333   4.543 -1.0029  0.4307 -2.1738
 1115SOL     OW 4187   1.044   1.209   1.810  0.5769  0.3624  0.5346
 1115SOL    HW1 4188   1.050   1.116   1.834 -2.1305  0.1350  0.6353
 1115SOL    HW2 4189   0.993   1.249   1.880 -0.2363  1.4365 -0.6108
 1116SOL     OW 4190   2.253   7.537   2.094 -0.3670 -0.3264 -0.3414
 1116SOL    HW1 4191   2.272   7.445   2.077  2.1068 -0.0825  0.6607
 1116SOL    HW2 4192   2.222   7.571   2.010 -2.0400 -2.1738 -0.5449
 1117SOL     OW 4193   2.564   6.498   4.867 -0.2395  0.1032  0.7206
 1117SOL    HW1 4194   2.556   6.572   4.926  0.4052 -0.1247  1.1046
 1117SOL    HW2 4195   2.639   6.519   4.812 -0.9046  0.3645 -0.1008
 1118SOL     OW 4196   3.558   3.275   2.123  0.2466  0.1005 -0.1560
 1118SOL    HW1 4197   3.556   3.181   2.143  1.6949  0.0283 -0.2528
 1118SOL    HW2 4198   3.514   3.316   2.197 -2.3207 -0.7713 -1.1046
 1119SOL     OW 4199   2.257   0.273   7.802 -0.1326 -0.1926  0.2140
 1119SOL    HW1 4200   2.338   0.226   7.783  0.0912  0.0070  0.6530
 1119SOL    HW2 4201   2.209   0.274   7.719  0.0307 -0.8535  0.1067
 1120SOL     OW 4202   3.856   5.777   2.976 -0.0739 -1.0878  0.1136
 1120SOL    HW1 4203   3.892   5.820   3.053 -0.6681 -1.7664  0.7845
 1120SOL    HW2 4204   3.789   5.838   2.944 -0.1927 -1.0367  0.4517
 1121SOL     OW 4205   2.732   3.126   0.890 -0.2466 -0.1622  0.9444
 1121SOL    HW1 4206   2.653   3.080   0.916  0.6625 -1.9463  0.6869
 1121SOL    HW2 4207   2.757   3.177   0.967 -1.6532  0.5020  0.9968
 1122SOL     OW 4208   7.132   2.974   2.817  0.1474 -0.1093  1.0249
 1122SOL    HW1 4209   7.090   3.004   2.736  1.0182  1.7179  1.1978
 1122SOL    HW2 4210   7.062   2.930   2.865 -0.7791  0.1544 -0.0384
 1123SOL     OW 4211   5.674   5.933   3.558 -0.2711  0.7636 -0.1534
 1123SOL    HW1 4212   5.648   5.965   3.472 -1.2531  1.5169  0.4034
 1123SOL    HW2 4213   5.634   5.994   3.620 -0.7614 -0.5611  0.8872
 1124SOL     OW 4214   0.984   7.589   1.183 -0.1958 -0.1622 -0.3623
 1124SOL    HW1 4215   0.901   7.581   1.137 -0.7375  0.7732  0.4092
 1124SOL    HW2 4216   0.974   7.667   1.237  0.9714 -0.3699  0.1899
 1125SOL     OW 4217   2.097   6.979   5.918  0.1452  0.5696  0.3150
 1125SOL    HW1 4218   2.179   7.028   5.912  0.9575 -0.7033  0.5349
 1125SOL    HW2 4219   2.120   6.891   5.885 -1.0046  0.0634  0.8249
 1126SOL     OW 4220   2.536   1.539   3.160 -0.5315  0.1699  0.1734
 1126SOL    HW1 4221   2.497   1.603   3.100  0.2904 -0.5891 -1.2190
 1126SOL    HW2 4222   2.626   1.569   3.171 -0.8830  0.7624  1.7376
 1127SOL     OW 4223   3.825   3.210   4.272  0.2829 -0.4272 -0.2675
 1127SOL    HW1 4224   3.912   3.234   4.306  0.8851 -2.3209 -0.3429
 1127SOL    HW2 4225   3.835   3.216   4.177 -0.1534  0.8240 -0.2528
 1128SOL     OW 4226   7.343   2.553   5.127 -0.2547  0.0222  0.0904
 1128SOL    HW1 4227   7.329   2.642   5.095 -0.3121 -0.0245 -0.0162
 1128SOL    HW2 4228   7.268   2.504   5.094 -0.3170 -0.0273  0.3034
 1129SOL     OW 4229   1.371   1.579   1.932  0.0771  0.2503 -0.1397
 1129SOL    HW1 4230   1.436   1.514   1.908 -0.2096  0.2869 -1.0664
 1129SOL    HW2 4231   1.374   1.583   2.028  1.0866 -0.0899 -0.1490
 1130SOL     OW 4232   1.039   2.212   7.348 -0.2234  0.1914 -0.4287
 1130SOL    HW1 4233   1.051   2.156   7.425  1.4512 -1.2830 -1.6644
 1130SOL    HW2 4234   0.944   2.225   7.342 -0.6781 -2.2837  0.1228
 1131SOL     OW 4235   1.484   1.515   5.342  0.1570  0.6756 -0.3547
 1131SOL    HW1 4236   1.481   1.518   5.438  1.1436  1.0652 -0.3185
 1131SOL    HW2 4237   1.536   1.436   5.323 -0.6531  0.1915 -0.5939
 1132SOL     OW 4238   4.681   0.568   2.487 -0.4346  0.0991  0.0924
 1132SOL    HW1 4239   4.601   0.584   2.537 -1.4838  1.8223 -1.9521
 1132SOL    HW2 4240   4.651   0.537   2.402  1.3147 -3.5078  0.6200
 1133SOL     OW 4241   2.217   3.224   3.688  0.7443 -0.5336 -0.0216
 1133SOL    HW1 4242   2.140   3.200   3.739  0.0186 -1.2138 -1.3750
 1133SOL    HW2 4243   2.289   3.225   3.751 -0.2196 -0.7516  1.1030
 1134SOL     OW 4244   5.296   7.784   0.088 -0.2437  0.0112 -0.3546
 1134SOL    HW1 4245   5.258   7.701   0.118 -0.0761 -0.1494 -0.5775
 1134SOL    HW2 4246   5.296   7.840   0.165 -1.7631  0.3282 -0.5560
 1135SOL     OW 4247   5.037   1.338   5.542 -0.0838 -0.2460 -0.5096
 1135SOL    HW1 4248   4.976   1.403   5.507 -0.0113  0.2170  0.1957
 1135SOL    HW2 4249   5.044   1.360   5.635 -0.2468 -1.4183 -0.2135
 1136SOL     OW 4250   7.841   2.413   0.425 -0.3324  0.8814  0.0069
 1136SOL    HW1 4251   7.915   2.412   0.364 -1.2824  1.4060 -1.1955
 1136SOL    HW2 4252   7.873   2.365   0.502  1.7525  2.3403  0.1341
 1137SOL     OW 4253   1.340   3.984   3.533 -0.1460 -0.5066  0.6485
 1137SOL    HW1 4254   1.311   3.909   3.481 -0.4534  0.4519 -0.6147
 1137SOL    HW2 4255   1.386   3.945   3.607 -1.6612 -1.9762  0.8776
 1138SOL     OW 4256   1.167   2.235   3.299 -0.3371 -0.3122  0.1618
 1138SOL    HW1 4257   1.174   2.301   3.368  1.4329 -1.4818  1.1963
 1138SOL    HW2 4258   1.169   2.285   3.218  0.9118  0.9388  0.9148
 1139SOL     OW 4259   1.886   2.858   4.160 -0.3335  0.0036 -0.6189
 1139SOL    HW1 4260   1.815   2.831   4.101  0.2847 -0.6766 -1.0809
 1139SOL    HW2 4261   1.952   2.789   4.151  1.8889  2.1834 -2.7685
 1140SOL     OW 4262   4.581   6.433   3.245  0.3759  0.2340 -0.2422
 1140SOL    HW1 4263   4.569   6.449   3.152 -1.3480 -1.0233 -0.2942
 1140SOL    HW2 4264   4.520   6.493   3.288 -0.9249 -1.1239 -0.1079
 1141SOL     OW 4265   6.439   5.956   8.090  0.0736 -0.3452 -0.5114
 1141SOL    HW1 4266   6.471   5.982   8.003  0.6645 -1.4613 -0.6361
 1141SOL    HW2 4267   6.517   5.928   8.137 -0.5915 -2.5112 -0.6017
 1142SOL     OW 4268   3.642   4.494   3.124 -0.2198 -0.0404  0.4199
 1142SOL    HW1 4269   3.599   4.560   3.178  0.5061  0.5813  0.2512
 1142SOL    HW2 4270   3.664   4.423   3.184 -1.7767 -0.5451  0.4534
 1143SOL     OW 4271   7.555   6.520   5.315 -0.1784 -0.3174  0.3213
 1143SOL    HW1 4272   7.532   6.503   5.406 -0.5777  0.1296  0.3101
 1143SOL    HW2 4273   7.621   6.454   5.294 -0.6839 -0.9483  0.6772
 1144SOL     OW 4274   7.583   5.531   7.851 -0.1181 -0.1947  0.2949
 1144SOL    HW1 4275   7.582   5.484   7.935  0.6100  1.0162  1.0014
 1144SOL    HW2 4276   7.675   5.548   7.835 -0.1581 -1.2343 -1.2565
 1145SOL     OW 4277   4.816   6.386   5.197  0.0623  0.3655  0.2620
 1145SOL    HW1 4278   4.775   6.358   5.115  0.6846 -0.4651  0.2146
 1145SOL    HW2 4279   4.907   6.405   5.173 -0.0119  1.1646  0.5632
 1146SOL     OW 4280   5.827   5.219   7.415 -0.6897 -0.8947  0.2167
 1146SOL    HW1 4281   5.818   5.227   7.320  1.0659  0.8147  0.1035
 1146SOL    HW2 4282   5.738   5.211   7.447 -1.5623  1.2001 -1.4126
 1147SOL     OW 4283   4.152   1.402   1.540  0.3122 -0.0888  0.5757
 1147SOL    HW1 4284   4.081   1.433   1.597 -0.3808  0.0730 -0.3483
 1147SOL    HW2 4285   4.228   1.454   1.566 -0.3141  0.9003  0.4897
 1148SOL     OW 4286   1.423   3.792   5.908  0.3030 -0.1859 -0.1630
 1148SOL    HW1 4287   1.517   3.787   5.927  0.1190 -0.2993  0.7677
 1148SOL    HW2 4288   1.403   3.885   5.918  0.6063  0.0949 -1.8895
 1149SOL     OW 4289   1.882   4.081   3.677 -0.1539 -0.4922 -0.3180
 1149SOL    HW1 4290   1.828   4.147   3.720 -1.0152 -1.3847  0.0022
 1149SOL    HW2 4291   1.940   4.132   3.620  0.3716  0.6585  1.1596
 1150SOL     OW 4292   4.981   2.448   8.034 -0.5195  0.2342  0.0176
 1150SOL    HW1 4293   5.011   2.443   8.125  1.2532 -1.0663 -0.5693
 1150SOL    HW2 4294   5.055   2.414   7.983 -1.3343  1.2585 -1.9477
 1151SOL     OW 4295   4.643   2.858   6.966 -0.5578  0.9716 -0.3788
 1151SOL    HW1 4296   4.659   2.811   7.047  1.9337  1.1743 -0.6797
 1151SOL    HW2 4297   4.606   2.792   6.907  0.7615 -0.0632 -0.0917
 1152SOL     OW 4298   5.846   2.241   2.574 -0.6778  0.0595 -1.1135
 1152SOL    HW1 4299   5.834   2.296   2.496 -1.9250 -0.2472 -1.1618
 1152SOL    HW2 4300   5.862   2.303   2.645  0.0127  0.3672 -1.5259
 1153SOL     OW 4301   3.620   3.287   6.786  0.5056 -0.0217 -0.0289
 1153SOL    HW1 4302   3.557   3.339   6.737  1.9070  0.7611 -1.0690
 1153SOL    HW2 4303   3.693   3.274   6.725  1.8635  0.1080  1.5088
 1154SOL     OW 4304   4.041   1.492   1.284  0.2015  0.6534 -0.2657
 1154SOL    HW1 4305   3.959   1.448   1.308 -0.4372  1.2757 -1.2262
 1154SOL    HW2 4306   4.098   1.479   1.359 -0.8046  0.2571  0.4542
 1155SOL     OW 4307   1.636   6.320   0.528 -0.2573 -0.6406 -0.3008
 1155SOL    HW1 4308   1.597   6.327   0.441  0.7345 -0.2865 -0.7345
 1155SOL    HW2 4309   1.701   6.250   0.520  0.8942  0.3949 -0.2715
 1156SOL     OW 4310   8.101   4.084   2.112 -0.1940  0.5317  0.6602
 1156SOL    HW1 4311   8.101   4.107   2.019  0.9813 -1.3678  0.1104
 1156SOL    HW2 4312   8.011   4.057   2.130 -0.0995 -0.5698 -0.3763
 1157SOL     OW 4313   1.799   1.183   3.082  0.4669  0.6967  0.2421
 1157SOL    HW1 4314   1.765   1.171   2.993  0.5262  0.2790  0.2697
 1157SOL    HW2 4315   1.865   1.113   3.091  1.0650  1.2658  0.3182
 1158SOL     OW 4316   3.292   5.362   7.530  0.3887 -0.5099  0.3805
 1158SOL    HW1 4317   3.334   5.280   7.556  1.1367  0.5825  2.8487
 1158SOL    HW2 4318   3.363   5.414   7.491  0.4436 -0.1477  0.9624
 1159SOL     OW 4319   2.531   8.144   0.111 -0.1377 -0.2425 -0.5036
 1159SOL    HW1 4320   2.575   8.228   0.123  0.5796 -0.5752 -0.7345
 1159SOL    HW2 4321   2.440   8.166   0.091 -0.1969  0.4463  0.4751
 1160SOL     OW 4322   5.768   8.053   0.479 -0.2582  0.3115 -0.2678
 1160SOL    HW1 4323   5.825   7.978   0.491  0.9273  1.1651 -0.3944
 1160SOL    HW2 4324   5.824   8.120   0.439 -1.4385  1.0498 -0.7356
 1161SOL     OW 4325   1.756   6.805   7.692 -0.1074  0.1134 -0.0010
 1161SOL    HW1 4326   1.838   6.847   7.718 -0.5962  0.9679  0.2081
 1161SOL    HW2 4327   1.689   6.872   7.708 -1.0524 -1.0979  1.3305
 1162SOL     OW 4328   6.934   0.779   6.929 -0.0848  0.0076 -0.2740
 1162SOL    HW1 4329   7.021   0.812   6.904 -0.4559  1.7852  0.6147
 1162SOL    HW2 4330   6.947   0.740   7.015 -0.1241  0.0325 -0.2568
 1163SOL     OW 4331   6.382   6.498   7.475 -0.1048  0.5434 -0.3138
 1163SOL    HW1 4332   6.435   6.419   7.482 -0.6337 -0.0849 -2.5967
 1163SOL    HW2 4333   6.378   6.532   7.564  1.8137 -0.8839  0.3806
 1164SOL     OW 4334   0.587   2.010   1.714  0.3273 -0.5948  0.0995
 1164SOL    HW1 4335   0.500   1.970   1.720 -0.4022  0.6845 -1.3389
 1164SOL    HW2 4336   0.647   1.936   1.708 -0.7821 -1.4943 -0.2294
 1165SOL     OW 4337   2.181   3.407   2.615 -0.0905  0.6612  0.0211
 1165SOL    HW1 4338   2.166   3.497   2.647  1.7668  0.8748  0.3895
 1165SOL    HW2 4339   2.131   3.352   2.675  0.8766  1.2937  1.4778
 1166SOL     OW 4340   0.233   5.622   5.559  0.0982  0.1863  0.9838
 1166SOL    HW1 4341   0.156   5.583   5.517  1.0119 -0.5173 -0.0988
 1166SOL    HW2 4342   0.306   5.592   5.506  1.0563  1.4862  1.5375
 1167SOL     OW 4343   1.787   2.688   0.260  0.4259 -0.4104  0.8735
 1167SOL    HW1 4344   1.820   2.600   0.242 -0.1257 -0.3775 -0.4264
 1167SOL    HW2 4345   1.703   2.674   0.303 -0.1636 -0.5502 -0.2888
 1168SOL     OW 4346   2.367   4.478   7.184  0.3871  0.2937  0.4233
 1168SOL    HW1 4347   2.426   4.525   7.125  2.0397 -0.4496  1.4003
 1168SOL    HW2 4348   2.304   4.434   7.127 -1.1148  3.4303 -0.5455
 1169SOL     OW 4349   1.953   4.832   0.562  0.5859  1.1479 -0.0427
 1169SOL    HW1 4350   1.885   4.835   0.630  0.3660  2.5718 -0.3046
 1169SOL    HW2 4351   1.988   4.743   0.568 -0.0261  0.9740  1.3402
 1170SOL     OW 4352   3.918   5.918   3.210  0.0160  0.3278  0.4381
 1170SOL    HW1 4353   3.880   6.004   3.226  0.2694  0.4457  0.3962
 1170SOL    HW2 4354   4.007   5.935   3.181 -0.3536  0.1113 -0.8925
 1171SOL     OW 4355   7.231   1.831   0.968  0.4083  0.2360 -0.3037
 1171SOL    HW1 4356   7.285   1.786   0.902  0.8131  0.1432  0.0919
 1171SOL    HW2 4357   7.144   1.791   0.958  0.3302  0.5951 -1.1473
 1172SOL     OW 4358   4.833   0.094   1.818  0.1054 -0.2413  0.2700
 1172SOL    HW1 4359   4.898   0.024   1.830  0.7905  0.1833 -0.7636
 1172SOL    HW2 4360   4.808   0.086   1.726 -0.6340  0.1861  0.4306
 1173SOL     OW 4361   8.055   3.303   3.159 -0.0173 -0.0152 -0.0456
 1173SOL    HW1 4362   8.066   3.332   3.250  0.0463 -0.6054  0.1405
 1173SOL    HW2 4363   8.074   3.209   3.162 -2.2367 -0.5334 -0.2320
 1174SOL     OW 4364   0.865   7.532   7.935 -0.0129 -0.1264 -1.0002
 1174SOL    HW1 4365   0.923   7.569   8.002 -0.2649  0.7653 -1.2552
 1174SOL    HW2 4366   0.818   7.462   7.980 -2.1717  2.1930  0.6254
 1175SOL     OW 4367   3.758   5.466   4.622  0.2022  0.9515 -0.9274
 1175SOL    HW1 4368   3.672   5.424   4.614  0.4849  0.4759 -1.6554
 1175SOL    HW2 4369   3.758   5.534   4.555 -0.6750  2.9495  0.9827
 1176SOL     OW 4370   5.743   0.491   2.767 -0.3316 -0.4561 -0.0148
 1176SOL    HW1 4371   5.684   0.528   2.833  0.4546  0.7101  0.0777
 1176SOL    HW2 4372   5.690   0.483   2.688 -0.5609  0.8559 -0.0163
 1177SOL     OW 4373   7.037   1.673   3.418  0.2425 -0.0346 -0.6720
 1177SOL    HW1 4374   7.083   1.589   3.417  2.3100  1.0279 -1.8946
 1177SOL    HW2 4375   7.073   1.719   3.494 -1.0985 -0.3123  0.1698
 1178SOL     OW 4376   1.388   5.074   5.664 -0.1747 -0.2060 -0.4679
 1178SOL    HW1 4377   1.326   5.127   5.615  0.8084  1.1591 -0.3095
 1178SOL    HW2 4378   1.410   5.002   5.606 -2.8348 -1.4625 -0.0402
 1179SOL     OW 4379   6.025   6.304   7.748 -0.0812  0.2076 -0.0364
 1179SOL    HW1 4380   6.050   6.389   7.714  0.6147  0.2244  0.4938
 1179SOL    HW2 4381   5.981   6.323   7.831 -1.3230  0.1370 -0.6533
 1180SOL     OW 4382   5.611   0.694   6.168 -0.0849  0.6168  0.1859
 1180SOL    HW1 4383   5.522   0.687   6.134  0.3633  1.8440 -1.3864
 1180SOL    HW2 4384   5.663   0.720   6.092  1.5800  0.1956  1.1360
 1181SOL     OW 4385   0.468   3.484   6.585  0.7683 -0.1843 -0.0928
 1181SOL    HW1 4386   0.490   3.396   6.614  0.7680 -0.3107 -0.4683
 1181SOL    HW2 4387   0.384   3.503   6.627  2.2601  0.9154  2.6225
 1182SOL     OW 4388   2.223   3.719   7.425  0.3896  0.0294  0.2853
 1182SOL    HW1 4389   2.207   3.806   7.462  1.7579 -0.0057  1.0351
 1182SOL    HW2 4390   2.305   3.691   7.465  1.0513 -0.7458 -1.4839
 1183SOL     OW 4391   4.896   2.796   5.481  0.1676 -0.1514 -0.5011
 1183SOL    HW1 4392   4.950   2.843   5.417 -0.4772  3.3675  1.3062
 1183SOL    HW2 4393   4.812   2.782   5.437  1.0884 -1.8603 -1.8543
 1184SOL     OW 4394   1.217   0.802   6.855 -0.7373 -0.7645 -0.1660
 1184SOL    HW1 4395   1.209   0.810   6.950 -2.4925  3.0769 -0.4704
 1184SOL    HW2 4396   1.301   0.843   6.835 -1.9886  1.9243 -0.4028
 1185SOL     OW 4397   4.617   2.544   6.916 -0.4147 -0.3740  0.3018
 1185SOL    HW1 4398   4.589   2.548   7.007 -0.2894 -1.9099  0.4341
 1185SOL    HW2 4399   4.562   2.608   6.871 -0.4360  0.4425  1.4589
 1186SOL     OW 4400   2.984   1.375   8.177 -0.7439  0.6203  0.1367
 1186SOL    HW1 4401   2.952   1.462   8.198  0.4550  1.2440 -0.5206
 1186SOL    HW2 4402   3.009   1.338   8.262 -2.0543  0.5559  0.5220
 1187SOL     OW 4403   5.555   7.701   3.668 -0.7266  0.2690 -0.2670
 1187SOL    HW1 4404   5.618   7.766   3.637  1.2159 -0.5702  1.7006
 1187SOL    HW2 4405   5.479   7.753   3.697  0.1163  1.5310 -0.2556
 1188SOL     OW 4406   4.248   4.710   1.094 -0.1879  0.1124 -0.5627
 1188SOL    HW1 4407   4.180   4.706   1.161  0.1159  0.2819 -0.2402
 1188SOL    HW2 4408   4.229   4.637   1.035  1.0592 -1.7093  1.1743
 1189SOL     OW 4409   4.666   4.150   6.175 -0.1418  0.2215  0.3014
 1189SOL    HW1 4410   4.747   4.143   6.123  0.8490  1.3608  1.6140
 1189SOL    HW2 4411   4.665   4.070   6.227 -1.0442 -0.8392 -1.2677
 1190SOL     OW 4412   0.905   8.012   0.823 -0.4078  0.3345  0.1967
 1190SOL    HW1 4413   1.000   8.017   0.835 -0.2322  0.6771 -1.1715
 1190SOL    HW2 4414   0.893   7.959   0.744 -1.3069  1.1151 -0.2144
 1191SOL     OW 4415   1.365   0.107   6.297  0.0012 -0.2755 -0.3688
 1191SOL    HW1 4416   1.428   0.142   6.361 -0.2824 -1.8792  0.8494
 1191SOL    HW2 4417   1.289   0.166   6.304  0.4723  0.3228 -0.1831
 1192SOL     OW 4418   3.555   0.821   6.758 -0.2041 -0.1090  0.7125
 1192SOL    HW1 4419   3.581   0.752   6.818  1.2065 -0.8505 -0.6752
 1192SOL    HW2 4420   3.631   0.878   6.751 -0.2917 -0.1058 -0.4308
 1193SOL     OW 4421   7.122   4.505   4.140 -0.0917  0.1376  0.4086
 1193SOL    HW1 4422   7.199   4.456   4.112 -0.1988 -0.4144  1.0508
 1193SOL    HW2 4423   7.125   4.586   4.089  1.1918  0.3547  0.8008
 1194SOL     OW 4424   2.468   8.137   6.802  0.1601  0.3321  0.3084
 1194SOL    HW1 4425   2.547   8.116   6.851 -0.6322 -1.2017  0.9947
 1194SOL    HW2 4426   2.396   8.108   6.857 -0.7760 -1.3121 -1.6346
 1195SOL     OW 4427   5.943   2.109   8.056  0.0547  0.1880  0.3448
 1195SOL    HW1 4428   5.900   2.106   7.970 -0.0707  0.2061  0.4068
 1195SOL    HW2 4429   6.027   2.153   8.039  0.4735 -0.6989  0.0393
 1196SOL     OW 4430   6.077   1.535   0.602  0.4788  0.1024 -0.0539
 1196SOL    HW1 4431   6.107   1.499   0.518  1.7711  0.6050  0.1650
 1196SOL    HW2 4432   6.124   1.483   0.668 -1.8588 -1.5035  0.4818
 1197SOL     OW 4433   0.513   5.687   6.954  0.0580  0.0905 -0.1594
 1197SOL    HW1 4434   0.492   5.709   6.863 -1.7432  0.5608  0.3277
 1197SOL    HW2 4435   0.513   5.772   6.999  1.4593 -0.0773  0.2206
 1198SOL     OW 4436   4.171   1.497   8.108 -0.3715  0.3016  0.3547
 1198SOL    HW1 4437   4.237   1.556   8.142  1.6341 -0.6644 -1.6404
 1198SOL    HW2 4438   4.179   1.418   8.162 -0.3665  0.4272  0.5370
 1199SOL     OW 4439   3.394   6.498   2.927  0.5948 -0.3442 -0.2465
 1199SOL    HW1 4440   3.427   6.538   2.846  0.3157 -0.4260 -0.4027
 1199SOL    HW2 4441   3.396   6.569   2.991 -0.1373  0.0024 -0.5884
 1200SOL     OW 4442   1.327   2.672   7.205  0.1953  0.0632  0.3225
 1200SOL    HW1 4443   1.250   2.643   7.156  0.6344 -0.6879  0.0699
 1200SOL    HW2 4444   1.382   2.595   7.212 -0.4184 -0.2047  3.1601
 1201SOL     OW 4445   1.357   3.813   5.103 -0.4930  0.3169 -0.0244
 1201SOL    HW1 4446   1.264   3.823   5.084 -0.8167  1.5512  1.9543
 1201SOL    HW2 4447   1.400   3.875   5.043 -1.1071  1.0462  0.2761
 1202SOL     OW 4448   5.333   5.430   7.038 -0.2308  0.2274 -0.2592
 1202SOL    HW1 4449   5.380   5.511   7.057 -0.6965  0.7391 -1.1922
 1202SOL    HW2 4450   5.307   5.438   6.946 -2.3131  0.0657  0.2480
 1203SOL     OW 4451   6.122   7.974   2.255  0.0050  0.3104  0.5510
 1203SOL    HW1 4452   6.129   7.880   2.274 -1.0086  0.0651 -0.2129
 1203SOL    HW2 4453   6.182   8.015   2.318 -0.9529 -0.6795  2.1888
 1204SOL     OW 4454   3.667   4.222   8.198 -0.3127 -0.4865  0.0519
 1204SOL    HW1 4455   3.737   4.159   8.217 -0.5235 -0.6039  0.4464
 1204SOL    HW2 4456   3.591   4.167   8.179 -0.5744 -0.3557  0.6906
 1205SOL     OW 4457   3.249   2.346   2.093 -0.1836 -0.3453 -0.4829
 1205SOL    HW1 4458   3.270   2.436   2.117  1.7988 -0.9771  0.4319
 1205SOL    HW2 4459   3.215   2.307   2.174 -0.5953 -0.5492 -0.7486
 1206SOL     OW 4460   6.430   6.606   0.541 -0.0229 -0.2835  0.2872
 1206SOL    HW1 4461   6.443   6.552   0.463 -2.5692 -1.3071  0.4633
 1206SOL    HW2 4462   6.359   6.563   0.588  1.1999  0.5117  3.0344
 1207SOL     OW 4463   0.452   1.300   0.211 -0.0492 -0.4325  0.0186
 1207SOL    HW1 4464   0.359   1.304   0.229  0.3195  3.5627  2.2224
 1207SOL    HW2 4465   0.494   1.309   0.297  2.3346 -0.4010 -1.0540
 1208SOL     OW 4466   6.640   5.228   7.133  0.9639 -0.6557 -0.6712
 1208SOL    HW1 4467   6.631   5.182   7.050  1.2480 -1.3215 -0.3397
 1208SOL    HW2 4468   6.712   5.183   7.178  2.6123  1.3321 -1.1467
 1209SOL     OW 4469   4.790   3.605   0.195  0.0464 -0.6569  0.5074
 1209SOL    HW1 4470   4.761   3.696   0.208  0.2101 -0.7042  1.2102
 1209SOL    HW2 4471   4.725   3.569   0.135  1.1179  0.5073 -1.4870
 1210SOL     OW 4472   2.803   6.113   4.988  0.0777 -1.1307 -0.2659
 1210SOL    HW1 4473   2.748   6.179   5.029  1.7535  1.5203 -1.9872
 1210SOL    HW2 4474   2.743   6.042   4.964 -2.3260  0.9235 -0.6977
 1211SOL     OW 4475   3.190   6.340   2.861 -0.0724  0.3556  0.6770
 1211SOL    HW1 4476   3.262   6.395   2.892  1.4971 -0.3213 -1.5126
 1211SOL    HW2 4477   3.138   6.398   2.806  0.3251  0.2010  0.1342
 1212SOL     OW 4478   6.857   5.266   5.995 -0.0934 -0.6219  0.1232
 1212SOL    HW1 4479   6.790   5.326   5.962  0.9155 -0.5370 -1.8992
 1212SOL    HW2 4480   6.935   5.321   6.006  0.4974 -1.3126 -0.5486
 1213SOL     OW 4481   0.327   7.627   3.525  0.1945 -0.9328  0.0638
 1213SOL    HW1 4482   0.308   7.606   3.617 -0.7434  0.0943  0.1199
 1213SOL    HW2 4483   0.274   7.565   3.475 -2.8417  1.2739  0.2258
 1214SOL     OW 4484   1.080   5.841   3.921  0.1916 -0.1733 -0.1462
 1214SOL    HW1 4485   1.059   5.750   3.900 -0.3650 -0.3835  1.2084
 1214SOL    HW2 4486   1.168   5.837   3.958  0.2722 -0.1144 -0.3282
 1215SOL     OW 4487   6.621   4.545   6.268 -0.7107 -0.6118 -0.3984
 1215SOL    HW1 4488   6.658   4.506   6.348 -2.3679 -1.4474  0.0048
 1215SOL    HW2 4489   6.603   4.636   6.292 -0.6403 -0.6949 -0.0168
 1216SOL     OW 4490   4.698   6.320   4.929 -0.6632 -0.4798  0.4507
 1216SOL    HW1 4491   4.659   6.365   4.854 -0.5885  1.9223  1.7413
 1216SOL    HW2 4492   4.757   6.255   4.890  0.4413  1.6182 -1.6406
 1217SOL     OW 4493   1.880   0.804   5.918  0.3421  0.1297  0.7263
 1217SOL    HW1 4494   1.962   0.757   5.905  0.5588  0.2909  1.4493
 1217SOL    HW2 4495   1.836   0.755   5.988 -1.0314 -1.0458 -0.8720
 1218SOL     OW 4496   5.831   7.465   6.593 -0.5947 -0.1112  0.3125
 1218SOL    HW1 4497   5.923   7.443   6.609 -0.3938 -1.3707 -2.1548
 1218SOL    HW2 4498   5.782   7.392   6.632 -0.2277 -1.9374 -2.3723
 1219SOL     OW 4499   2.281   7.513   5.684  0.0305 -0.5172 -0.1346
 1219SOL    HW1 4500   2.332   7.489   5.607  0.2973  0.7012 -0.3564
 1219SOL    HW2 4501   2.322   7.593   5.716 -1.0151 -0.1671  0.3814
 1220SOL     OW 4502   0.085   3.915   0.693  0.7915  0.1129  0.0512
 1220SOL    HW1 4503   0.121   4.000   0.716 -0.9121  1.2675 -1.3808
 1220SOL    HW2 4504   0.055   3.878   0.776  0.9125  1.2030  0.5927
 1221SOL     OW 4505   5.240   7.823   4.413 -0.3623 -0.5986  0.3203
 1221SOL    HW1 4506   5.333   7.843   4.419 -0.5064  1.7713 -2.7746
 1221SOL    HW2 4507   5.196   7.906   4.432 -1.7092 -1.0606 -0.5982
 1222SOL     OW 4508   3.037   4.081   1.122  0.2340  0.1063  0.5615
 1222SOL    HW1 4509   3.107   4.059   1.184 -0.1266 -1.7498  0.3663
 1222SOL    HW2 4510   2.956   4.055   1.165 -0.2230  0.8457  0.1801
 1223SOL     OW 4511   2.117   0.303   1.681  0.5752 -0.0938 -0.1632
 1223SOL    HW1 4512   2.034   0.278   1.721  0.7771 -1.6694 -0.6408
 1223SOL    HW2 4513   2.127   0.241   1.608  2.3420 -0.1922  0.1338
 1224SOL     OW 4514   4.684   2.869   2.526 -0.1945  0.7531  0.3462
 1224SOL    HW1 4515   4.733   2.945   2.557  0.2015  0.6811 -0.0858
 1224SOL    HW2 4516   4.739   2.832   2.457 -0.7027  0.4727  0.0842
 1225SOL     OW 4517   2.622   4.052   2.997 -0.5415 -0.0721  0.0112
 1225SOL    HW1 4518   2.534   4.086   3.010  0.2274  1.7607  0.8048
 1225SOL    HW2 4519   2.666   4.067   3.080  1.2093  1.3047 -1.0906
 1226SOL     OW 4520   0.241   0.822   6.416 -0.1135 -0.6870  0.4762
 1226SOL    HW1 4521   0.178   0.879   6.460  0.4916  0.0438  0.4135
 1226SOL    HW2 4522   0.287   0.879   6.355  1.5268 -0.8866  1.4470
 1227SOL     OW 4523   0.968   1.867   3.645  0.3320 -0.1742 -0.5452
 1227SOL    HW1 4524   0.998   1.873   3.555 -2.4500 -0.6746 -1.6013
 1227SOL    HW2 4525   0.952   1.773   3.659 -0.3147  0.0219  0.0844
 1228SOL     OW 4526   3.517   0.591   6.456 -0.3728  0.1151  0.2246
 1228SOL    HW1 4527   3.576   0.516   6.466  0.5716  0.7647 -0.3044
 1228SOL    HW2 4528   3.575   0.667   6.453 -0.9566  0.5733 -3.0900
 1229SOL     OW 4529   4.950   5.099   7.348 -0.2181  0.3634 -0.0443
 1229SOL    HW1 4530   4.896   5.041   7.402 -0.5724  1.2508  0.5640
 1229SOL    HW2 4531   5.002   5.148   7.410 -0.3892  1.1638 -0.5214
 1230SOL     OW 4532   6.091   7.520   0.233  0.0809  0.1389 -0.4127
 1230SOL    HW1 4533   6.140   7.481   0.161  1.3368  2.2056 -0.7504
 1230SOL    HW2 4534   6.108   7.462   0.307  1.3051 -0.3756 -1.0594
 1231SOL     OW 4535   4.406   1.451   7.901 -0.1185  0.4049 -0.2351
 1231SOL    HW1 4536   4.326   1.494   7.931 -1.3131 -1.2527 -0.9064
 1231SOL    HW2 4537   4.437   1.402   7.977 -0.6461 -0.2137 -0.4085
 1232SOL     OW 4538   7.993   2.535   1.714  0.2358  0.1794 -0.0061
 1232SOL    HW1 4539   8.029   2.621   1.691 -0.1601  0.2527 -0.3482
 1232SOL    HW2 4540   7.901   2.551   1.734  0.0030 -0.2650 -0.7021
 1233SOL     OW 4541   0.605   3.501   7.532  0.5415  0.1195 -0.1291
 1233SOL    HW1 4542   0.533   3.448   7.566  0.0648 -0.0729 -1.3678
 1233SOL    HW2 4543   0.562   3.580   7.499  0.8920  0.0284 -0.8244
 1234SOL     OW 4544   3.209   0.912   3.305 -0.0934 -0.2260 -0.3271
 1234SOL    HW1 4545   3.181   0.828   3.342 -0.5114 -0.2718 -0.7355
 1234SOL    HW2 4546   3.165   0.978   3.359  0.5201 -0.2582  0.2205
 1235SOL     OW 4547   5.673   1.000   2.439 -0.3276 -0.4432  0.2540
 1235SOL    HW1 4548   5.727   1.038   2.508  1.7597 -1.4638 -0.7468
 1235SOL    HW2 4549   5.673   0.906   2.457  0.3216 -0.7311 -1.1630
 1236SOL     OW 4550   3.382   7.930   4.171 -0.2474 -0.0517  0.0069
 1236SOL    HW1 4551   3.353   7.888   4.252 -0.5118  0.3354  0.1168
 1236SOL    HW2 4552   3.460   7.979   4.197 -0.3824  0.1430  0.0501
 1237SOL     OW 4553   7.998   5.211   0.038 -0.0349  0.0918  0.4622
 1237SOL    HW1 4554   8.048   5.291   0.021 -0.1307  0.2214  0.7829
 1237SOL    HW2 4555   8.032   5.180   0.121  0.3157 -0.4482  0.1242
 1238SOL     OW 4556   5.840   3.700   5.725 -0.0259 -0.1114  0.5915
 1238SOL    HW1 4557   5.842   3.780   5.673  2.3841 -1.3387 -1.4211
 1238SOL    HW2 4558   5.766   3.650   5.690  1.5552 -0.9222 -1.8324
 1239SOL     OW 4559   2.728   8.196   5.375 -0.3958  0.3481  0.2569
 1239SOL    HW1 4560   2.800   8.141   5.406 -0.3205  0.4615  0.2856
 1239SOL    HW2 4561   2.693   8.150   5.299  1.0085  1.2668 -1.0220
 1240SOL     OW 4562   4.447   6.074   3.839  0.2653  0.2215  0.6364
 1240SOL    HW1 4563   4.395   6.098   3.762  0.0068  0.3508  0.8509
 1240SOL    HW2 4564   4.538   6.091   3.813  0.3469 -1.3342 -0.2463
 1241SOL     OW 4565   2.846   0.316   1.163  0.2750 -0.0208  0.3086
 1241SOL    HW1 4566   2.878   0.283   1.079 -0.2488  2.1440 -0.8101
 1241SOL    HW2 4567   2.924   0.320   1.219  0.5396 -1.9561  0.1448
 1242SOL     OW 4568   6.672   2.547   6.811  0.0812 -0.4889 -0.3418
 1242SOL    HW1 4569   6.756   2.543   6.857 -0.1777 -1.3689  0.0826
 1242SOL    HW2 4570   6.653   2.456   6.788 -0.3174 -0.1899 -1.2589
 1243SOL     OW 4571   1.514   4.936   3.858 -0.7230  0.3202 -0.0935
 1243SOL    HW1 4572   1.603   4.920   3.827 -1.1614 -1.4705 -0.5416
 1243SOL    HW2 4573   1.519   4.920   3.952 -0.1140  2.5111  0.3087
 1244SOL     OW 4574   1.462   3.154   4.703  0.1248 -0.4439 -0.1631
 1244SOL    HW1 4575   1.469   3.119   4.614  0.7603 -1.4786  0.2703
 1244SOL    HW2 4576   1.368   3.158   4.720  0.0105 -1.7546 -0.3221
 1245SOL     OW 4577   4.121   4.835   1.944 -0.4133  0.1393 -0.5419
 1245SOL    HW1 4578   4.154   4.838   1.855 -0.5964  1.0068 -0.5858
 1245SOL    HW2 4579   4.199   4.824   1.998 -0.3964 -1.6289 -0.8568
 1246SOL     OW 4580   3.917   0.103   7.136 -0.1601  0.5524 -0.0687
 1246SOL    HW1 4581   3.857   0.152   7.080  0.0844  0.1552 -0.6947
 1246SOL    HW2 4582   3.980   0.064   7.075  0.7554  0.9813  0.5737
 1247SOL     OW 4583   6.621   1.722   5.908  0.5448  0.1867 -0.5541
 1247SOL    HW1 4584   6.548   1.701   5.967  0.4623  1.1909 -0.2853
 1247SOL    HW2 4585   6.686   1.653   5.926 -0.0259 -0.2829 -0.2515
 1248SOL     OW 4586   5.676   0.656   5.184  0.0758 -0.5392  0.0755
 1248SOL    HW1 4587   5.627   0.737   5.176 -0.7354 -1.0942 -0.7541
 1248SOL    HW2 4588   5.741   0.674   5.253 -0.6651  0.5121  0.5289
 1249SOL     OW 4589   6.517   7.750   7.424 -0.2051  0.1985 -0.8173
 1249SOL    HW1 4590   6.447   7.684   7.422 -1.6253  1.6467 -1.0911
 1249SOL    HW2 4591   6.575   7.725   7.352 -0.2111 -1.2387 -0.3603
 1250SOL     OW 4592   3.124   6.549   4.404 -0.4137  0.0409 -0.0727
 1250SOL    HW1 4593   3.198   6.604   4.377 -1.1152  0.6796 -0.7219
 1250SOL    HW2 4594   3.049   6.586   4.359 -0.8789 -1.5471 -0.6775
 1251SOL     OW 4595   7.875   1.351   1.680  0.2910  0.1378 -0.2216
 1251SOL    HW1 4596   7.931   1.382   1.609  3.7413 -0.5188  1.9752
 1251SOL    HW2 4597   7.834   1.272   1.645  0.1638  1.0000 -2.1465
 1252SOL     OW 4598   2.376   5.853   7.940  0.2187  0.0257 -0.2976
 1252SOL    HW1 4599   2.299   5.833   7.886  1.4226 -0.2230 -1.9974
 1252SOL    HW2 4600   2.426   5.772   7.942  0.2598  0.0586  1.1642
 1253SOL     OW 4601   0.187   4.394   2.477 -0.1915 -0.5735  0.6651
 1253SOL    HW1 4602   0.109   4.420   2.525  0.5579 -1.2295  2.3086
 1253SOL    HW2 4603   0.158   4.324   2.419 -0.4865 -2.1666  2.6586
 1254SOL     OW 4604   0.056   3.058   3.146  0.6562  0.7805  0.2342
 1254SOL    HW1 4605   0.075   3.118   3.217  1.6045 -1.1675  1.7169
 1254SOL    HW2 4606   0.142   3.027   3.118  0.1787 -0.0372 -0.3595
 1255SOL     OW 4607   2.879   5.145   1.488 -0.2023  0.2831  0.0109
 1255SOL    HW1 4608   2.940   5.218   1.475 -1.2065  0.8963 -1.6686
 1255SOL    HW2 4609   2.932   5.067   1.476  0.5145  0.7819 -0.1146
 1256SOL     OW 4610   0.401   5.191   0.026 -0.3618 -0.2212  0.1592
 1256SOL    HW1 4611   0.461   5.130   0.069 -1.8441 -1.3094  0.7899
 1256SOL    HW2 4612   0.448   5.274   0.025 -0.2675 -0.0340  4.1675
 1257SOL     OW 4613   5.798   1.314   4.014  0.1476 -0.3480 -0.0167
 1257SOL    HW1 4614   5.881   1.270   4.034  0.4592  0.8695  1.5469
 1257SOL    HW2 4615   5.734   1.268   4.068  0.0292 -0.4768 -0.2674
 1258SOL     OW 4616   5.134   2.730   5.838  0.4444 -0.1793 -0.0077
 1258SOL    HW1 4617   5.117   2.732   5.932  2.8369  0.7923  0.4785
 1258SOL    HW2 4618   5.090   2.807   5.804 -0.7666 -0.7461  0.2159
 1259SOL     OW 4619   0.435   2.553   3.626  0.7940 -0.2185 -0.5060
 1259SOL    HW1 4620   0.515   2.500   3.629  0.7278 -0.4079 -1.6078
 1259SOL    HW2 4621   0.385   2.516   3.553 -0.2310 -0.0003  0.0711
 1260SOL     OW 4622   6.498   0.600   6.935 -0.0523 -0.6466  0.5840
 1260SOL    HW1 4623   6.469   0.670   6.994 -2.2898 -1.1253  0.1436
 1260SOL    HW2 4624   6.436   0.604   6.861  2.0813 -0.6820 -1.3138
 1261SOL     OW 4625   8.104   6.882   2.509  0.3941  0.7160 -0.5895
 1261SOL    HW1 4626   8.032   6.845   2.459 -0.5050 -0.2186  1.3329
 1261SOL    HW2 4627   8.068   6.962   2.548  0.5288  0.4806  0.0227
 1262SOL     OW 4628   5.843   5.167   5.308 -0.0988 -0.1743 -0.5645
 1262SOL    HW1 4629   5.814   5.256   5.329  0.6737 -0.1610  0.5241
 1262SOL    HW2 4630   5.899   5.177   5.231 -0.3312  0.2259 -0.6831
 1263SOL     OW 4631   0.286   7.926   3.304 -0.2712 -0.1686  0.1874
 1263SOL    HW1 4632   0.289   7.863   3.232 -1.1815  1.0899 -0.9951
 1263SOL    HW2 4633   0.373   7.919   3.345  0.1903 -1.0619 -0.8751
 1264SOL     OW 4634   1.248   5.950   7.108  0.5399 -0.0837  0.4009
 1264SOL    HW1 4635   1.311   6.017   7.083  1.2985 -0.6047  0.8652
 1264SOL    HW2 4636   1.298   5.868   7.104 -0.7037 -0.8337 -1.5316
 1265SOL     OW 4637   0.679   7.239   4.796 -0.6744  0.2534  0.0681
 1265SOL    HW1 4638   0.618   7.169   4.818 -0.1578  0.1796  1.3364
 1265SOL    HW2 4639   0.764   7.195   4.788 -0.1727  0.8240  1.7974
 1266SOL     OW 4640   4.691   5.221   6.582  0.3406 -0.1018 -0.3493
 1266SOL    HW1 4641   4.775   5.185   6.552  0.4162 -0.0197 -0.2336
 1266SOL    HW2 4642   4.645   5.243   6.501  0.3312 -0.3705 -0.4203
 1267SOL     OW 4643   4.060   0.894   1.381  0.0280  0.9674  0.0071
 1267SOL    HW1 4644   4.015   0.855   1.456 -2.6401 -0.0683 -1.9823
 1267SOL    HW2 4645   4.145   0.849   1.377  0.1472  0.9163  2.2274
 1268SOL     OW 4646   1.700   7.341   2.929 -0.1054 -0.5445  0.1046
 1268SOL    HW1 4647   1.776   7.353   2.871 -1.3843 -2.1987 -2.0713
 1268SOL    HW2 4648   1.726   7.269   2.987  0.8940  0.5915  1.1077
 1269SOL     OW 4649   3.550   6.852   6.156  0.2691  0.5464 -0.9854
 1269SOL    HW1 4650   3.635   6.894   6.148  0.7798 -0.5222 -1.4222
 1269SOL    HW2 4651   3.569   6.766   6.194 -0.8355  1.0050  0.7110
 1270SOL     OW 4652   1.218   4.992   6.029  0.0528 -0.1717 -0.4862
 1270SOL    HW1 4653   1.195   4.962   5.941  0.1331 -1.6663 -0.0169
 1270SOL    HW2 4654   1.314   4.995   6.029  0.0628 -0.4719 -0.3566
 1271SOL     OW 4655   2.336   0.811   1.132 -0.2957 -0.4901  0.2697
 1271SOL    HW1 4656   2.355   0.813   1.039  0.4612  0.4376  0.4215
 1271SOL    HW2 4657   2.242   0.826   1.138 -0.5371 -1.6127 -0.3685
 1272SOL     OW 4658   5.436   7.148   6.142  0.1292  0.6631  0.3840
 1272SOL    HW1 4659   5.531   7.149   6.149  0.4417 -3.7103 -0.1448
 1272SOL    HW2 4660   5.416   7.207   6.070  2.6726  0.0551 -0.9327
 1273SOL     OW 4661   3.505   6.376   4.994 -0.0525  0.3446  0.2390
 1273SOL    HW1 4662   3.552   6.412   5.070 -0.9890 -1.0427  1.5511
 1273SOL    HW2 4663   3.418   6.354   5.029  0.2827 -2.6659 -0.5298
 1274SOL     OW 4664   7.559   3.763   6.582 -0.2644  0.0638 -0.2416
 1274SOL    HW1 4665   7.616   3.737   6.509 -0.0110  1.3129 -0.5160
 1274SOL    HW2 4666   7.506   3.686   6.599  1.0441 -0.9210 -0.4338
 1275SOL     OW 4667   6.983   0.840   6.620 -0.4351 -0.2516 -0.2851
 1275SOL    HW1 4668   7.036   0.891   6.559 -1.2726 -1.6257 -2.2448
 1275SOL    HW2 4669   6.911   0.898   6.644  0.8840  0.9619  0.9466
 1276SOL     OW 4670   2.460   1.619   5.659  0.1585 -0.0459  0.5669
 1276SOL    HW1 4671   2.437   1.666   5.739 -0.7975  0.2894  0.1170
 1276SOL    HW2 4672   2.498   1.686   5.602 -0.0987 -0.0646  0.3699
 1277SOL     OW 4673   1.819   6.208   5.845 -0.4502 -0.0471 -0.1600
 1277SOL    HW1 4674   1.838   6.116   5.864 -0.2852  0.1059  0.4287
 1277SOL    HW2 4675   1.732   6.223   5.881 -0.3566  0.1021  0.0079
 1278SOL     OW 4676   7.826   1.651   6.125 -0.2382  0.7096  0.2032
 1278SOL    HW1 4677   7.874   1.673   6.206  0.3982 -1.5812  0.5162
 1278SOL    HW2 4678   7.876   1.694   6.056  0.2627  1.1882  0.8420
 1279SOL     OW 4679   1.951   1.941   7.097  0.3146  0.7209 -0.0291
 1279SOL    HW1 4680   1.973   1.891   7.175  0.0569  0.7828  0.0834
 1279SOL    HW2 4681   1.864   1.977   7.115  0.1353  0.5081 -0.4534
 1280SOL     OW 4682   2.781   0.831   0.509  0.1620  0.0047 -0.0613
 1280SOL    HW1 4683   2.791   0.824   0.414  1.5198 -1.6896  0.1448
 1280SOL    HW2 4684   2.852   0.777   0.544 -0.4332  0.4356  1.9226
 1281SOL     OW 4685   7.748   5.723   1.457  0.2051 -0.3147  0.3213
 1281SOL    HW1 4686   7.768   5.687   1.544 -0.0463  1.4712  1.1635
 1281SOL    HW2 4687   7.683   5.663   1.421 -1.7502  0.3222  2.5300
 1282SOL     OW 4688   3.466   2.898   6.341  0.2612 -0.4958  0.1718
 1282SOL    HW1 4689   3.496   2.965   6.403  0.5283 -0.6450  0.2054
 1282SOL    HW2 4690   3.523   2.909   6.265  0.1691 -0.5497  0.0958
 1283SOL     OW 4691   5.780   1.383   0.101 -0.4804 -0.8937 -0.0261
 1283SOL    HW1 4692   5.778   1.344   0.014 -3.3921 -0.7899 -0.1023
 1283SOL    HW2 4693   5.761   1.476   0.087  1.0420 -0.4610  0.5940
 1284SOL     OW 4694   4.726   0.072   3.582  0.0774 -0.5101  0.0451
 1284SOL    HW1 4695   4.808   0.115   3.608 -0.8918  1.0863  0.6640
 1284SOL    HW2 4696   4.661   0.108   3.642 -1.5167  0.1076 -1.9524
 1285SOL     OW 4697   3.377   2.710   3.133 -0.1485  0.1905 -0.0502
 1285SOL    HW1 4698   3.430   2.732   3.209 -1.9963 -1.6064  1.8907
 1285SOL    HW2 4699   3.305   2.656   3.168 -1.8936  0.4766 -2.8547
 1286SOL     OW 4700   1.254   8.057   3.447  0.1024 -0.2249  0.0855
 1286SOL    HW1 4701   1.234   7.975   3.401  1.2797  0.0128 -0.8937
 1286SOL    HW2 4702   1.186   8.064   3.514 -0.1612 -1.8825  0.0348
 1287SOL     OW 4703   5.024   7.885   3.701  0.3773  0.1880  1.3373
 1287SOL    HW1 4704   4.948   7.859   3.753 -0.7986  0.2014 -0.3098
 1287SOL    HW2 4705   4.991   7.952   3.641  1.6008 -0.0733  0.3202
 1288SOL     OW 4706   7.819   5.869   3.240 -0.0921 -0.1789 -0.7200
 1288SOL    HW1 4707   7.820   5.802   3.172  2.5382  0.6873 -1.6740
 1288SOL    HW2 4708   7.816   5.952   3.191 -0.7775  0.4381  0.3362
 1289SOL     OW 4709   5.971   5.681   1.920 -0.4223 -0.1815 -0.5327
 1289SOL    HW1 4710   5.975   5.754   1.858  1.0034  0.8858  0.7217
 1289SOL    HW2 4711   6.062   5.654   1.930 -0.8319 -1.4825 -0.2149
 1290SOL     OW 4712   6.946   0.959   4.862  0.7861  0.0294  0.2761
 1290SOL    HW1 4713   6.996   1.015   4.922 -1.1876  1.4928  0.6427
 1290SOL    HW2 4714   6.861   0.949   4.904 -0.0609 -0.3599 -1.4750
 1291SOL     OW 4715   4.680   2.110   2.660 -0.2423  0.4385  0.5089
 1291SOL    HW1 4716   4.591   2.146   2.662 -0.7712 -0.7222 -0.4462
 1291SOL    HW2 4717   4.669   2.018   2.683  0.6654  0.2070  0.0697
 1292SOL     OW 4718   1.658   7.221   0.705 -0.0475  0.0287 -0.2454
 1292SOL    HW1 4719   1.734   7.279   0.706 -0.0933  0.0896  1.3372
 1292SOL    HW2 4720   1.645   7.202   0.612  2.5443 -0.8492 -0.5183
 1293SOL     OW 4721   0.026   6.522   6.394 -0.0702  0.2616 -0.2517
 1293SOL    HW1 4722   0.021   6.429   6.413 -0.0145  0.2816 -0.1424
 1293SOL    HW2 4723  -0.040   6.536   6.326  0.8451 -0.1128 -1.2549
 1294SOL     OW 4724   5.082   7.230   4.588 -0.1126  0.5463 -0.4099
 1294SOL    HW1 4725   5.140   7.231   4.512 -1.4400  0.2625 -1.4750
 1294SOL    HW2 4726   4.997   7.259   4.554 -1.5695 -2.5148  0.1853
 1295SOL     OW 4727   7.297   1.392   3.300 -0.4881  0.2917  0.0428
 1295SOL    HW1 4728   7.304   1.487   3.295 -0.4929  0.2175 -1.6775
 1295SOL    HW2 4729   7.254   1.366   3.219 -0.8503 -1.1516  0.6671
 1296SOL     OW 4730   0.701   6.353   1.166 -0.0058  0.0113 -0.0233
 1296SOL    HW1 4731   0.729   6.435   1.205  0.7782 -0.2797  0.0326
 1296SOL    HW2 4732   0.621   6.329   1.214 -0.4967  0.9607 -0.3489
 1297SOL     OW 4733   6.164   2.760   7.708  0.1616  0.2164  0.4125
 1297SOL    HW1 4734   6.191   2.847   7.678 -0.1943  0.6320  1.2932
 1297SOL    HW2 4735   6.172   2.705   7.630  0.8189  0.9379 -0.0435
 1298SOL     OW 4736   7.050   1.475   3.146  0.1730  0.0511 -0.1967
 1298SOL    HW1 4737   7.057   1.380   3.147 -0.2309 -0.0246 -1.7113
 1298SOL    HW2 4738   6.956   1.492   3.140  0.0890  0.6159  2.0010
 1299SOL     OW 4739   1.580   5.151   3.453 -0.1009 -0.3654 -0.2654
 1299SOL    HW1 4740   1.500   5.108   3.421  0.1451 -0.2529 -1.0416
 1299SOL    HW2 4741   1.643   5.141   3.382  0.4876 -0.1775  0.2190
 1300SOL     OW 4742   7.189   7.910   7.045  0.0704 -0.3395  0.2360
 1300SOL    HW1 4743   7.170   7.993   7.089 -0.9475 -0.8349  0.7689
 1300SOL    HW2 4744   7.244   7.862   7.107 -0.2597 -0.5029  0.4045
 1301SOL     OW 4745   0.187   3.555   7.035  0.2229  0.5093 -0.4221
 1301SOL    HW1 4746   0.095   3.572   7.016  0.5651  1.3611 -1.3455
 1301SOL    HW2 4747   0.218   3.635   7.078  0.6668  0.4250 -0.5857
 1302SOL     OW 4748   3.996   6.408   0.073 -0.5336 -1.2265  0.5475
 1302SOL    HW1 4749   3.969   6.430   0.163 -1.9423 -1.2398  0.1591
 1302SOL    HW2 4750   4.033   6.320   0.080 -0.3341 -1.0966  1.1707
 1303SOL     OW 4751   1.338   7.814   2.343  0.1293 -0.3433  0.6662
 1303SOL    HW1 4752   1.343   7.787   2.251  0.6163  0.7215  0.3647
 1303SOL    HW2 4753   1.416   7.777   2.384  0.3298 -0.1534  0.4604
 1304SOL     OW 4754   1.986   4.573   5.077 -0.4230 -0.0725  0.3041
 1304SOL    HW1 4755   1.979   4.484   5.042  0.8928 -0.2486  0.4133
 1304SOL    HW2 4756   2.012   4.626   5.002 -1.3626  0.2578  0.2056
 1305SOL     OW 4757   6.020   5.381   5.478 -0.3941 -0.3603 -0.1241
 1305SOL    HW1 4758   5.960   5.436   5.528 -0.3350  1.1390 -1.6338
 1305SOL    HW2 4759   5.971   5.358   5.399  0.6496  0.0652 -0.9150
 1306SOL     OW 4760   6.921   3.262   6.993 -0.4252 -0.2715 -0.3793
 1306SOL    HW1 4761   6.826   3.269   6.992 -0.4780 -0.8508 -0.1399
 1306SOL    HW2 4762   6.943   3.257   7.086 -0.0768  0.8251 -0.3927
 1307SOL     OW 4763   2.769   6.231   1.590 -0.0330  0.3538  0.1248
 1307SOL    HW1 4764   2.719   6.149   1.590  0.5795 -0.0506  1.3101
 1307SOL    HW2 4765   2.814   6.232   1.505 -0.1995 -0.4524  0.0200
 1308SOL     OW 4766   1.099   2.225   6.111  0.6641  0.1006 -0.3656
 1308SOL    HW1 4767   1.130   2.154   6.054  0.5500  0.7296 -1.2299
 1308SOL    HW2 4768   1.115   2.305   6.060  0.0234  0.6312  0.2537
 1309SOL     OW 4769   2.492   0.307   2.197 -0.1734  0.3466 -0.0974
 1309SOL    HW1 4770   2.503   0.396   2.230  0.1157  0.0772  0.5632
 1309SOL    HW2 4771   2.430   0.315   2.125 -0.6625  0.9872  0.3838
 1310SOL     OW 4772   0.902   2.346   2.494 -0.3128 -0.4921 -0.3374
 1310SOL    HW1 4773   0.879   2.415   2.431  1.2595  0.7395  0.3415
 1310SOL    HW2 4774   0.879   2.383   2.579  2.3722  0.1202  0.2164
 1311SOL     OW 4775   5.048   7.929   4.137  0.0346  0.0516 -0.0089
 1311SOL    HW1 4776   5.139   7.942   4.111  0.6271 -0.8097  1.5547
 1311SOL    HW2 4777   5.040   7.974   4.221 -1.1432  0.5970 -0.4005
 1312SOL     OW 4778   5.463   5.183   2.615 -0.2785 -0.3593  0.6997
 1312SOL    HW1 4779   5.509   5.144   2.689 -1.1390 -1.4747  0.6697
 1312SOL    HW2 4780   5.370   5.177   2.638 -0.5113  0.0984 -0.0769
 1313SOL     OW 4781   7.204   7.696   0.365  0.1090  0.9241 -0.5088
 1313SOL    HW1 4782   7.210   7.781   0.322 -1.3733  1.5787  0.4740
 1313SOL    HW2 4783   7.148   7.644   0.307 -2.0295  1.8602  0.5969
 1314SOL     OW 4784   8.056   4.682   6.810 -1.2978 -0.0275 -0.3128
 1314SOL    HW1 4785   8.142   4.656   6.776 -0.8983 -0.3575  0.8841
 1314SOL    HW2 4786   8.000   4.606   6.795 -0.8608 -0.5573  0.6414
 1315SOL     OW 4787   2.310   7.754   3.873 -0.0608 -0.5117  0.2632
 1315SOL    HW1 4788   2.300   7.845   3.844  0.9857  0.0846  1.6225
 1315SOL    HW2 4789   2.226   7.732   3.913 -1.7567 -1.5466 -3.4381
 1316SOL     OW 4790   7.622   3.617   8.183  0.2106  0.5393 -0.1704
 1316SOL    HW1 4791   7.622   3.708   8.215 -1.2022  0.5752 -0.2153
 1316SOL    HW2 4792   7.688   3.617   8.113  0.0938  1.5779 -0.3044
 1317SOL     OW 4793   2.707   0.969   7.976 -0.0077  0.4262 -0.3251
 1317SOL    HW1 4794   2.673   1.044   8.024 -2.2527  0.8491 -2.4095
 1317SOL    HW2 4795   2.730   1.003   7.890  1.2756 -0.8348 -0.5234
 1318SOL     OW 4796   3.044   4.620   6.699  0.3637 -0.0715  0.1182
 1318SOL    HW1 4797   3.048   4.660   6.612 -0.1756 -1.4081 -0.5512
 1318SOL    HW2 4798   2.997   4.684   6.753  0.7825  0.8159 -0.5391
 1319SOL     OW 4799   4.216   7.611   5.324 -0.2846  0.9496  0.0849
 1319SOL    HW1 4800   4.171   7.594   5.241 -0.7765  0.5053  0.4347
 1319SOL    HW2 4801   4.289   7.549   5.325 -1.4278 -0.4502  0.8569
 1320SOL     OW 4802   2.474   5.486   4.158 -0.6424 -0.0971 -0.2919
 1320SOL    HW1 4803   2.428   5.406   4.184 -2.2327  0.7776 -0.2582
 1320SOL    HW2 4804   2.404   5.552   4.150  0.7501  1.6032  0.8958
 1321SOL     OW 4805   4.074   5.504   3.258  0.0006 -0.2279  0.1538
 1321SOL    HW1 4806   3.999   5.522   3.201 -0.2363  0.2981  0.6196
 1321SOL    HW2 4807   4.117   5.589   3.268  0.2868 -0.4011  0.4105
 1322SOL     OW 4808   2.720   1.654   4.323  0.5298 -0.2071 -0.1129
 1322SOL    HW1 4809   2.694   1.657   4.415  0.4321  2.2858 -0.1462
 1322SOL    HW2 4810   2.659   1.593   4.282 -0.3295 -0.2665  1.2131
 1323SOL     OW 4811   6.435   5.371   5.708 -0.2502 -0.1406 -0.5001
 1323SOL    HW1 4812   6.390   5.451   5.736  1.2733  0.2805  0.9439
 1323SOL    HW2 4813   6.371   5.301   5.722 -0.7514  0.5249  0.6585
 1324SOL     OW 4814   5.049   5.545   7.845  0.1794 -0.1981  0.0355
 1324SOL    HW1 4815   5.023   5.483   7.913 -0.2061  1.5251  1.5653
 1324SOL    HW2 4816   4.968   5.592   7.823  0.4129 -0.3623 -1.2643
 1325SOL     OW 4817   4.782   4.013   0.687 -0.0683  0.7609  0.1747
 1325SOL    HW1 4818   4.864   4.022   0.736  1.4328  1.9377 -2.3541
 1325SOL    HW2 4819   4.767   3.918   0.684  2.5894  0.3024 -1.3458
 1326SOL     OW 4820   3.066   1.949   3.875  0.0593  0.3485  0.3698
 1326SOL    HW1 4821   3.084   1.985   3.962 -0.6873  2.9712 -0.4681
 1326SOL    HW2 4822   3.094   2.018   3.815  1.1077 -1.6439 -1.5356
 1327SOL     OW 4823   6.865   1.506   6.925  0.0177 -0.4136  0.1675
 1327SOL    HW1 4824   6.814   1.579   6.891  0.8995  0.4279  0.6234
 1327SOL    HW2 4825   6.851   1.509   7.020  2.8196  1.3917  0.6386
 1328SOL     OW 4826   5.722   0.203   7.395 -0.0579 -0.4794  0.1914
 1328SOL    HW1 4827   5.690   0.114   7.412  1.0321 -1.3307 -1.8282
 1328SOL    HW2 4828   5.690   0.224   7.307  0.4199  0.8010  0.2941
 1329SOL     OW 4829   3.825   5.956   6.856  0.3145  0.5054 -0.1157
 1329SOL    HW1 4830   3.765   5.926   6.788  1.6074  0.2334 -1.1818
 1329SOL    HW2 4831   3.860   5.875   6.894 -0.4572  0.6542  0.9444
 1330SOL     OW 4832   3.775   4.700   5.646  0.1598 -0.1672 -0.4429
 1330SOL    HW1 4833   3.702   4.759   5.624 -0.3280 -0.2760  0.7857
 1330SOL    HW2 4834   3.837   4.711   5.574  0.7597  2.9397  0.4207
 1331SOL     OW 4835   5.698   3.038   4.781 -0.1306  0.0415 -0.7659
 1331SOL    HW1 4836   5.654   2.995   4.854 -1.9531  0.3654 -1.6286
 1331SOL    HW2 4837   5.757   2.970   4.746  1.8312  0.2900  1.7563
 1332SOL     OW 4838   6.080   1.611   4.907 -0.0140  0.2676  0.0742
 1332SOL    HW1 4839   5.995   1.645   4.878 -0.7347 -0.2705  1.4363
 1332SOL    HW2 4840   6.086   1.524   4.868 -0.7100 -0.2195  1.0086
 1333SOL     OW 4841   2.580   2.818   7.613  0.3817 -0.2096  0.3334
 1333SOL    HW1 4842   2.637   2.778   7.546 -0.6103 -0.3140 -0.4745
 1333SOL    HW2 4843   2.494   2.820   7.572 -0.4090 -0.9114  1.8789
 1334SOL     OW 4844   1.214   2.028   5.239 -0.7619 -0.5085  0.2280
 1334SOL    HW1 4845   1.254   2.104   5.196  0.1339 -1.4706 -0.6868
 1334SOL    HW2 4846   1.262   2.019   5.321 -0.0557 -0.7910 -0.2079
 1335SOL     OW 4847   6.704   8.005   7.222  0.4494 -0.0987 -0.3332
 1335SOL    HW1 4848   6.688   7.916   7.252 -0.0232  0.2176  0.3767
 1335SOL    HW2 4849   6.655   8.012   7.140 -1.7976  0.3282  0.9595
 1336SOL     OW 4850   7.305   4.736   4.230 -0.5031  0.3982 -0.1311
 1336SOL    HW1 4851   7.385   4.775   4.266  0.3564  0.7853 -2.2955
 1336SOL    HW2 4852   7.255   4.709   4.306  1.6355  0.2541  1.3050
 1337SOL     OW 4853   1.089   2.044   1.544  0.0643 -0.0184 -0.2279
 1337SOL    HW1 4854   1.112   1.969   1.489  0.2760  1.0412 -1.6391
 1337SOL    HW2 4855   1.051   2.107   1.484  0.4575  1.2617  0.8202
 1338SOL     OW 4856   2.956   2.836   2.104 -0.2329  0.1412 -0.3386
 1338SOL    HW1 4857   2.893   2.839   2.176 -0.7026  0.9500 -0.7769
 1338SOL    HW2 4858   2.940   2.916   2.054 -0.4408 -0.7813 -1.8033
 1339SOL     OW 4859   5.393   6.144   7.934 -0.5692 -0.4489 -0.0880
 1339SOL    HW1 4860   5.323   6.133   7.998  0.4649 -2.2798  0.8308
 1339SOL    HW2 4861   5.470   6.105   7.977  0.5532 -0.1965 -1.7885
 1340SOL     OW 4862   0.244   0.090   4.133 -0.3081  0.7067  0.3073
 1340SOL    HW1 4863   0.245   0.177   4.093 -1.0734  0.4361 -0.3364
 1340SOL    HW2 4864   0.246   0.029   4.059  2.3660  0.0989  0.7718
 1341SOL     OW 4865   3.223   3.242   2.701 -0.6663 -0.3708  0.2375
 1341SOL    HW1 4866   3.272   3.159   2.705 -1.2128 -0.9366 -2.6426
 1341SOL    HW2 4867   3.214   3.269   2.793 -0.9930 -3.8028  1.3515
 1342SOL     OW 4868   4.095   6.517   5.621 -0.2691 -0.2934 -0.3848
 1342SOL    HW1 4869   4.171   6.490   5.674 -1.2208 -2.5040 -0.0331
 1342SOL    HW2 4870   4.076   6.606   5.652  0.0524 -0.9836  2.0825
 1343SOL     OW 4871   7.994   2.218   6.772  0.1510  0.1056  0.4973
 1343SOL    HW1 4872   8.017   2.190   6.684  0.9939  2.7973 -0.2402
 1343SOL    HW2 4873   8.045   2.161   6.830  0.5409 -0.8920 -0.7745
 1344SOL     OW 4874   6.353   6.229   6.874  0.0132 -0.1542 -0.1315
 1344SOL    HW1 4875   6.270   6.199   6.910  0.0497  0.1667  0.2236
 1344SOL    HW2 4876   6.332   6.256   6.785 -0.0796 -0.9328 -0.3584
 1345SOL     OW 4877   2.845   3.810   0.038 -0.1103 -0.4258 -0.0052
 1345SOL    HW1 4878   2.935   3.790   0.012  0.1015 -1.0843  1.1786
 1345SOL    HW2 4879   2.839   3.781   0.129 -2.0309 -2.0011 -0.5832
 1346SOL     OW 4880   0.442   6.099   2.828 -0.2786  0.2256 -0.3655
 1346SOL    HW1 4881   0.521   6.048   2.811  0.0965  0.7359 -0.1586
 1346SOL    HW2 4882   0.468   6.163   2.894 -0.5183  1.2561 -1.2563
 1347SOL     OW 4883   5.945   3.800   2.804  0.2814  0.9911 -0.1673
 1347SOL    HW1 4884   6.030   3.797   2.759  1.9336  0.9423  2.7138
 1347SOL    HW2 4885   5.894   3.865   2.755  1.5094  0.2184 -2.6390
 1348SOL     OW 4886   7.623   5.215   0.518  0.0246 -0.4644 -0.1431
 1348SOL    HW1 4887   7.594   5.192   0.606  1.0908  1.5166  0.7843
 1348SOL    HW2 4888   7.545   5.201   0.463 -0.1759 -3.4241  0.7189
 1349SOL     OW 4889   2.915   5.215   2.698 -0.2295 -0.1800 -0.2103
 1349SOL    HW1 4890   2.897   5.303   2.663 -1.3832 -0.0705  0.5942
 1349SOL    HW2 4891   2.934   5.162   2.621 -2.6964  0.0531 -1.0517
 1350SOL     OW 4892   2.033   3.914   5.374  0.3842 -0.5376 -0.3589
 1350SOL    HW1 4893   2.121   3.950   5.364 -0.6669  1.7973 -2.7702
 1350SOL    HW2 4894   1.977   3.975   5.325 -2.5467 -2.0826  0.7990
 1351SOL     OW 4895   4.302   5.986   0.077 -0.4054  0.2252 -0.0547
 1351SOL    HW1 4896   4.286   5.920   0.144 -0.0820 -1.1791 -1.3115
 1351SOL    HW2 4897   4.371   6.041   0.114 -0.8390  0.0152  1.1073
 1352SOL     OW 4898   5.670   1.919   1.515 -0.2407 -0.4360  0.1324
 1352SOL    HW1 4899   5.608   1.870   1.461  0.1076 -1.5752  0.7198
 1352SOL    HW2 4900   5.681   1.865   1.593 -0.5051  1.0227  1.2237
 1353SOL     OW 4901   0.483   3.339   7.202  0.2025  0.4814  0.2622
 1353SOL    HW1 4902   0.425   3.289   7.260  0.0375  1.7397  1.2263
 1353SOL    HW2 4903   0.477   3.429   7.234 -2.4438  1.9699 -3.6383
 1354SOL     OW 4904   6.973   7.878   8.020  0.7892  0.0042 -0.0429
 1354SOL    HW1 4905   6.915   7.851   8.091  2.6063 -0.8069  1.2109
 1354SOL    HW2 4906   6.959   7.973   8.012  2.6297  0.7475  3.5271
 1355SOL     OW 4907   1.271   6.184   5.312  0.0008 -0.0718  0.2896
 1355SOL    HW1 4908   1.329   6.128   5.261 -0.8971  0.2737 -1.1675
 1355SOL    HW2 4909   1.296   6.273   5.290 -0.9385  0.0799 -0.2042
 1356SOL     OW 4910   2.023   2.632   7.484  0.1948  0.1265 -0.4885
 1356SOL    HW1 4911   1.944   2.683   7.465  1.1511  3.4011  3.0510
 1356SOL    HW2 4912   2.090   2.670   7.427  0.1351  0.4015 -0.3781
 1357SOL     OW 4913   5.525   6.188   6.765  0.0546 -0.7180  0.5512
 1357SOL    HW1 4914   5.575   6.140   6.699  0.5067 -0.6282  0.8248
 1357SOL    HW2 4915   5.435   6.189   6.731  0.4316  0.0319 -0.4539
 1358SOL     OW 4916   0.275   6.002   0.669  0.4436  0.8132  0.3308
 1358SOL    HW1 4917   0.354   6.032   0.623  0.9660 -0.4832  0.3142
 1358SOL    HW2 4918   0.285   5.907   0.672 -0.9700  0.6591  0.6380
 1359SOL     OW 4919   5.425   5.273   1.741 -0.8018  0.4935 -0.3144
 1359SOL    HW1 4920   5.476   5.201   1.779 -1.1357  0.1406 -0.5235
 1359SOL    HW2 4921   5.488   5.345   1.733  0.0016 -0.2924 -1.6692
 1360SOL     OW 4922   7.765   6.723   2.730  0.0578  0.4401  0.1005
 1360SOL    HW1 4923   7.822   6.678   2.668 -0.4012  0.3838 -0.2747
 1360SOL    HW2 4924   7.742   6.656   2.795 -0.1269  0.2928 -0.1178
 1361SOL     OW 4925   4.132   1.217   0.308  0.1824 -0.3255 -0.1446
 1361SOL    HW1 4926   4.226   1.220   0.323  0.1929 -2.5249  0.5411
 1361SOL    HW2 4927   4.105   1.131   0.339 -2.1790  0.4858  0.2722
 1362SOL     OW 4928   2.809   3.244   4.274  0.5537 -0.4105  0.2789
 1362SOL    HW1 4929   2.719   3.260   4.302  0.5732  0.1312  0.0330
 1362SOL    HW2 4930   2.850   3.330   4.272  0.7141 -0.4974 -0.8700
 1363SOL     OW 4931   2.124   3.126   4.038 -0.0028  0.1369  0.4586
 1363SOL    HW1 4932   2.216   3.140   4.015 -0.4137 -0.4129 -1.8086
 1363SOL    HW2 4933   2.076   3.179   3.975 -1.2588 -0.7902  0.6081
 1364SOL     OW 4934   1.003   0.474   6.299 -0.5697 -0.3056 -0.0706
 1364SOL    HW1 4935   0.923   0.437   6.261 -1.5233  0.5212  1.0359
 1364SOL    HW2 4936   0.972   0.550   6.349  0.9875  0.3547 -0.0649
 1365SOL     OW 4937   4.795   0.729   1.212 -0.3431 -0.4524  0.5816
 1365SOL    HW1 4938   4.755   0.646   1.190 -0.6386  0.0271 -0.8328
 1365SOL    HW2 4939   4.889   0.712   1.211 -0.3591 -0.5592 -0.7603
 1366SOL     OW 4940   0.282   0.939   7.795 -0.0654  0.1332 -0.2953
 1366SOL    HW1 4941   0.221   0.941   7.869 -0.2708  1.1636 -0.4749
 1366SOL    HW2 4942   0.369   0.940   7.835 -0.1644 -0.4585 -0.0539
 1367SOL     OW 4943   7.762   1.735   0.611  0.0965 -0.0110  0.0064
 1367SOL    HW1 4944   7.688   1.674   0.611  0.5680 -0.6558  2.4719
 1367SOL    HW2 4945   7.833   1.686   0.569 -0.0011 -0.5660  0.4705
 1368SOL     OW 4946   4.935   4.953   6.603 -0.7604 -0.6756  0.3312
 1368SOL    HW1 4947   5.000   4.969   6.535  0.1207 -1.5456  0.9399
 1368SOL    HW2 4948   4.872   4.893   6.563 -1.2141  0.1829 -0.2663
 1369SOL     OW 4949   6.624   8.082   7.700 -0.0824 -0.1963 -0.3327
 1369SOL    HW1 4950   6.559   8.069   7.631  0.3702 -0.4482 -0.7148
 1369SOL    HW2 4951   6.574   8.074   7.781 -0.6903  0.4866 -0.6236
 1370SOL     OW 4952   3.380   6.214   5.334 -0.0234 -0.2160 -0.4473
 1370SOL    HW1 4953   3.369   6.171   5.419  3.2723  1.3295  0.9405
 1370SOL    HW2 4954   3.430   6.151   5.282  0.2108 -0.1474 -0.3064
 1371SOL     OW 4955   3.828   8.116   4.465  1.1637  0.1634  0.2392
 1371SOL    HW1 4956   3.803   8.117   4.373  1.1266 -1.5202  0.1942
 1371SOL    HW2 4957   3.896   8.048   4.471  2.2104  1.2523  1.2089
 1372SOL     OW 4958   5.485   0.482   5.042 -0.0659 -0.2737  0.0403
 1372SOL    HW1 4959   5.457   0.466   5.132 -0.1223  0.4662  0.1675
 1372SOL    HW2 4960   5.538   0.562   5.049  0.0312 -0.2857 -0.5676
 1373SOL     OW 4961   2.149   3.406   2.101 -0.8133 -0.1996  0.7310
 1373SOL    HW1 4962   2.106   3.488   2.124  1.0706  0.2599  3.0243
 1373SOL    HW2 4963   2.127   3.347   2.173 -1.6664 -1.5754 -0.6032
 1374SOL     OW 4964   4.833   0.735   0.364 -0.1783 -0.0600  0.2902
 1374SOL    HW1 4965   4.741   0.707   0.367 -0.1102 -0.2658  0.5400
 1374SOL    HW2 4966   4.870   0.685   0.291 -0.2145 -0.1403  0.3258
 1375SOL     OW 4967   4.710   4.498   6.885 -0.1242  0.3216  0.0385
 1375SOL    HW1 4968   4.689   4.509   6.792 -3.1646 -2.4196  0.2013
 1375SOL    HW2 4969   4.757   4.415   6.889  1.5471  1.2493  0.8737
 1376SOL     OW 4970   3.876   2.441   5.907 -0.2463  0.1789 -0.6848
 1376SOL    HW1 4971   3.926   2.363   5.884  1.7219  1.5871 -1.4489
 1376SOL    HW2 4972   3.855   2.429   6.000  2.1595 -0.2216 -0.1053
 1377SOL     OW 4973   5.872   4.662   0.587 -0.2548  0.1746 -0.1921
 1377SOL    HW1 4974   5.903   4.571   0.586  0.8410  0.5261 -1.2116
 1377SOL    HW2 4975   5.817   4.670   0.510  0.0451  0.5044 -0.3726
 1378SOL     OW 4976   5.710   2.052   6.782 -0.4382  0.4078  0.2858
 1378SOL    HW1 4977   5.769   2.115   6.741  0.1199  0.5809  1.3067
 1378SOL    HW2 4978   5.690   2.090   6.868 -1.7593  0.1761  0.1065
 1379SOL     OW 4979   5.124   4.847   2.903  0.1273  0.3423 -0.0125
 1379SOL    HW1 4980   5.103   4.811   2.990 -0.2667 -0.8142 -0.5690
 1379SOL    HW2 4981   5.215   4.823   2.889  0.1862  0.5157  0.0709
 1380SOL     OW 4982   5.685   2.062   1.993 -0.2858 -0.4221  0.1399
 1380SOL    HW1 4983   5.658   2.125   1.925  0.0582 -1.5026 -1.0456
 1380SOL    HW2 4984   5.615   2.065   2.058 -0.0287  1.5461  0.3809
 1381SOL     OW 4985   1.312   7.007   5.358  0.2197 -0.1292 -0.0209
 1381SOL    HW1 4986   1.281   6.917   5.364  1.0913 -0.3981  0.5719
 1381SOL    HW2 4987   1.338   7.017   5.266 -0.6023 -0.2324 -0.2681
 1382SOL     OW 4988   0.445   2.142   0.899  0.4103  0.4286  0.0181
 1382SOL    HW1 4989   0.352   2.123   0.886  0.5441 -0.1857 -0.0699
 1382SOL    HW2 4990   0.453   2.236   0.879  0.5744 -0.3334 -4.4077
 1383SOL     OW 4991   6.087   6.841   3.795  0.0046 -0.4684  0.2579
 1383SOL    HW1 4992   6.027   6.771   3.769  0.8544 -1.2441  0.3341
 1383SOL    HW2 4993   6.163   6.829   3.738 -0.8967  2.0877 -1.6521
 1384SOL     OW 4994   7.088   6.749   3.347  0.5528 -0.2272  0.0434
 1384SOL    HW1 4995   7.106   6.688   3.275 -1.7630 -1.5151  0.4463
 1384SOL    HW2 4996   7.009   6.797   3.318  0.4449  0.2660  1.1160
 1385SOL     OW 4997   2.188   0.611   7.561 -0.7736 -0.2035  0.7379
 1385SOL    HW1 4998   2.157   0.634   7.649  0.5052 -1.8720  1.6850
 1385SOL    HW2 4999   2.111   0.573   7.519 -1.4766  0.8632  1.0132
 1386SOL     OW 5000   0.047   1.091   0.217 -0.0183 -0.1390  0.7238
 1386SOL    HW1 5001  -0.044   1.069   0.194  0.5461  0.7807 -3.0256
 1386SOL    HW2 5002   0.099   1.019   0.180  0.9929  1.4095 -1.0400
 1387SOL     OW 5003   3.923   6.831   0.464  0.0589  0.1779  0.0514
 1387SOL    HW1 5004   3.921   6.913   0.513 -0.9491  0.3771 -0.3052
 1387SOL    HW2 5005   3.888   6.854   0.378  0.6029 -0.4428 -0.3483
 1388SOL     OW 5006   3.915   1.305   2.555 -0.6765  0.2901  0.2104
 1388SOL    HW1 5007   3.997   1.291   2.508 -1.1753  0.6561 -0.8085
 1388SOL    HW2 5008   3.870   1.373   2.505 -0.2131  2.4568  2.5864
 1389SOL     OW 5009   3.622   4.821   5.093  0.3049  0.4707  0.1072
 1389SOL    HW1 5010   3.591   4.743   5.047 -0.3719 -1.2701  3.2681
 1389SOL    HW2 5011   3.556   4.888   5.074 -0.1078 -0.2478 -1.1071
 1390SOL     OW 5012   2.093   1.474   6.311 -0.4425 -0.1074 -0.3123
 1390SOL    HW1 5013   2.145   1.454   6.388 -1.6608 -4.0497 -0.2945
 1390SOL    HW2 5014   2.156   1.512   6.249  1.1395  0.5637  1.6081
 1391SOL     OW 5015   0.693   0.584   0.519  0.0883 -0.0436  0.1701
 1391SOL    HW1 5016   0.703   0.509   0.577  1.0552  0.4604  0.6840
 1391SOL    HW2 5017   0.631   0.641   0.564  0.7862  0.3162  0.6954
 1392SOL     OW 5018   1.115   3.395   2.008  0.4003  0.2757 -0.1008
 1392SOL    HW1 5019   1.122   3.489   1.989 -0.7223  0.7530  1.5872
 1392SOL    HW2 5020   1.095   3.355   1.924 -1.5991  1.9062 -0.4760
 1393SOL     OW 5021   1.643   3.485   3.997  0.6947  0.6999  0.2333
 1393SOL    HW1 5022   1.551   3.458   3.997  0.4651  1.4608 -0.3324
 1393SOL    HW2 5023   1.640   3.581   4.001  1.4597  0.7381  0.0279
 1394SOL     OW 5024   4.721   4.368   5.839  0.4595  0.2583 -0.1255
 1394SOL    HW1 5025   4.760   4.296   5.888  1.6725  1.9764  1.5918
 1394SOL    HW2 5026   4.641   4.331   5.802 -0.6506 -1.1680  3.2768
 1395SOL     OW 5027   5.153   1.629   2.515 -0.1665  0.0454 -0.0931
 1395SOL    HW1 5028   5.174   1.564   2.448 -0.5612  1.0242 -1.1991
 1395SOL    HW2 5029   5.069   1.602   2.551 -1.1762  0.8486 -1.7597
 1396SOL     OW 5030   6.360   4.194   1.699 -0.6027 -0.2655 -0.0184
 1396SOL    HW1 5031   6.399   4.192   1.787 -0.7003  1.0587  0.0855
 1396SOL    HW2 5032   6.371   4.105   1.666  1.3881 -0.2754  0.4952
 1397SOL     OW 5033   2.563   3.155   5.114 -0.0338  0.9387  0.5500
 1397SOL    HW1 5034   2.624   3.178   5.044 -0.7284  0.1307 -0.3520
 1397SOL    HW2 5035   2.598   3.073   5.150  0.4271  1.4541  1.2826
 1398SOL     OW 5036   6.077   8.138   4.386 -0.2683 -0.5282  0.5619
 1398SOL    HW1 5037   5.981   8.143   4.394 -0.3656 -0.7781 -0.3532
 1398SOL    HW2 5038   6.093   8.052   4.348  0.2348  0.0239 -0.5115
 1399SOL     OW 5039   8.093   3.796   3.661 -0.5567 -0.4154 -0.5255
 1399SOL    HW1 5040   8.037   3.765   3.590 -0.6065  0.8573 -1.0726
 1399SOL    HW2 5041   8.139   3.871   3.624 -0.7999  0.4549  0.8711
 1400SOL     OW 5042   0.563   1.855   6.680 -0.3100  0.3692 -0.4271
 1400SOL    HW1 5043   0.579   1.785   6.743 -0.9377  0.3131 -0.3217
 1400SOL    HW2 5044   0.493   1.907   6.719 -1.8657 -0.5960 -1.7714
 1401SOL     OW 5045   2.003   3.186   0.217 -0.1308  0.2564 -0.1963
 1401SOL    HW1 5046   2.076   3.242   0.242 -1.0347  1.4811 -0.1804
 1401SOL    HW2 5047   1.949   3.241   0.160 -2.1419  0.1501  1.4794
 1402SOL     OW 5048   6.111   6.047   3.072  0.1305  0.1935 -0.0897
 1402SOL    HW1 5049   6.136   5.962   3.108  2.3323  0.5386 -0.6519
 1402SOL    HW2 5050   6.106   6.033   2.977  1.0408  0.7776 -0.2406
 1403SOL     OW 5051   4.296   7.204   2.926 -0.0594 -0.4487 -0.0285
 1403SOL    HW1 5052   4.208   7.168   2.916 -0.2589  0.2053 -0.7644
 1403SOL    HW2 5053   4.292   7.289   2.881  1.7506 -1.6938 -2.8484
 1404SOL     OW 5054   1.542   8.129   4.260 -0.5600 -0.2217 -0.1978
 1404SOL    HW1 5055   1.576   8.039   4.262 -0.6085 -0.2331  0.2748
 1404SOL    HW2 5056   1.453   8.120   4.225 -0.4678 -0.3205 -0.4135
 1405SOL     OW 5057   1.882   6.612   2.871 -0.2582 -0.2631  0.2524
 1405SOL    HW1 5058   1.914   6.665   2.945 -0.6235  0.1229  0.1368
 1405SOL    HW2 5059   1.822   6.670   2.824  1.1662  0.0371 -1.2663
 1406SOL     OW 5060   8.183   1.524   1.520 -0.0027  0.1408  0.1107
 1406SOL    HW1 5061   8.205   1.446   1.470 -0.1467 -0.4976  1.0096
 1406SOL    HW2 5062   8.096   1.550   1.489  0.5700  0.7131 -1.0888
 1407SOL     OW 5063   6.713   2.130   4.442  0.1549 -0.5807 -0.3892
 1407SOL    HW1 5064   6.727   2.213   4.398  0.1144  0.1857  0.9790
 1407SOL    HW2 5065   6.768   2.068   4.394  0.0061  0.1712 -1.5738
 1408SOL     OW 5066   5.247   7.805   2.234 -0.5382 -0.0128 -0.5197
 1408SOL    HW1 5067   5.186   7.812   2.307 -0.1094 -1.8607  0.0646
 1408SOL    HW2 5068   5.333   7.817   2.273 -0.4029  1.0521 -1.0963
 1409SOL     OW 5069   1.420   1.626   4.493 -0.2302 -0.0136  0.1178
 1409SOL    HW1 5070   1.425   1.530   4.483 -0.8328 -0.0473  0.0889
 1409SOL    HW2 5071   1.370   1.639   4.573  0.5111  0.2827  0.5399
 1410SOL     OW 5072   5.816   4.033   2.145 -0.5094 -0.3663  0.2461
 1410SOL    HW1 5073   5.801   4.039   2.051 -0.6846 -1.4559  0.2006
 1410SOL    HW2 5074   5.866   4.112   2.166  1.8035 -1.3539 -1.1897
 1411SOL     OW 5075   1.634   1.074   6.956  0.4205 -0.4579 -0.1240
 1411SOL    HW1 5076   1.678   1.025   7.025 -0.3227  0.3649  0.9772
 1411SOL    HW2 5077   1.701   1.134   6.922  0.0448  1.4497  2.1679
 1412SOL     OW 5078   7.761   5.213   4.309  0.1197  1.0463  0.9540
 1412SOL    HW1 5079   7.742   5.123   4.335 -0.4794  1.1656  0.9420
 1412SOL    HW2 5080   7.787   5.206   4.217  2.0320  0.6498  1.4819
 1413SOL     OW 5081   5.659   1.885   2.498 -0.0092 -0.4251 -0.0270
 1413SOL    HW1 5082   5.631   1.795   2.512 -1.4923  0.1904  1.2682
 1413SOL    HW2 5083   5.583   1.927   2.456 -0.1668  0.7173  1.3472
 1414SOL     OW 5084   7.655   7.642   6.726 -0.4742  0.0779 -0.1137
 1414SOL    HW1 5085   7.629   7.731   6.704 -0.3195  0.2499  0.3922
 1414SOL    HW2 5086   7.589   7.587   6.685 -0.2380  0.3936 -0.9343
 1415SOL     OW 5087   2.320   6.738   2.148  0.0424 -0.4909 -0.2907
 1415SOL    HW1 5088   2.280   6.765   2.230  0.8994  0.2212 -0.0868
 1415SOL    HW2 5089   2.390   6.677   2.174 -0.7040 -1.5158 -0.6193
 1416SOL     OW 5090   6.226   4.988   1.362 -0.5681 -0.5520  0.4274
 1416SOL    HW1 5091   6.300   4.929   1.346  2.0621  1.9626  2.4295
 1416SOL    HW2 5092   6.190   5.006   1.275  0.3965 -2.7227 -0.4919
 1417SOL     OW 5093   2.947   5.916   4.697  0.2282 -0.0216 -0.4223
 1417SOL    HW1 5094   2.893   5.845   4.731 -1.2660  1.2330 -0.0708
 1417SOL    HW2 5095   3.029   5.874   4.671 -0.9418 -2.0103 -1.0664
 1418SOL     OW 5096   0.940   6.869   7.343 -0.1358 -0.2065 -0.1534
 1418SOL    HW1 5097   0.951   6.888   7.249  0.9948 -0.0184  0.0010
 1418SOL    HW2 5098   1.024   6.832   7.370  0.3827  1.8480  1.2738
 1419SOL     OW 5099   7.120   2.248   0.222  0.2612 -0.4820  0.0738
 1419SOL    HW1 5100   7.112   2.322   0.161  0.3815 -0.8345 -0.3806
 1419SOL    HW2 5101   7.037   2.248   0.270 -0.0448 -0.4981 -0.4429
 1420SOL     OW 5102   4.049   6.843   6.959 -0.2783 -0.0280 -0.3439
 1420SOL    HW1 5103   4.115   6.819   6.894  0.7417  0.4151  0.4888
 1420SOL    HW2 5104   4.057   6.939   6.967  0.3402 -0.1703  1.1358
 1421SOL     OW 5105   5.453   4.561   1.934 -0.6394  0.6803  0.4525
 1421SOL    HW1 5106   5.422   4.472   1.919  1.5514 -0.3511  1.6416
 1421SOL    HW2 5107   5.433   4.578   2.026 -0.9989  1.4366  0.2473
 1422SOL     OW 5108   7.684   5.922   7.268 -0.2945 -0.1868  0.1369
 1422SOL    HW1 5109   7.651   5.930   7.179 -1.1114 -0.3787  0.4141
 1422SOL    HW2 5110   7.693   5.828   7.282  1.8503 -0.1192 -0.4451
 1423SOL     OW 5111   5.095   4.286   0.987 -0.8514 -0.1637 -0.5430
 1423SOL    HW1 5112   5.011   4.303   0.944 -1.2710  0.7212  0.5874
 1423SOL    HW2 5113   5.084   4.199   1.025 -1.7689  0.4869  0.7366
 1424SOL     OW 5114   0.247   5.239   4.898  0.3518 -0.1080 -0.2984
 1424SOL    HW1 5115   0.238   5.334   4.912 -0.6891 -0.3688  1.0420
 1424SOL    HW2 5116   0.331   5.217   4.937  0.5642  0.2556 -0.5481
 1425SOL     OW 5117   1.073   7.651   8.067 -0.4305  0.3803  0.4621
 1425SOL    HW1 5118   1.155   7.676   8.109 -0.1263 -0.3136  0.2990
 1425SOL    HW2 5119   1.017   7.621   8.139 -0.8872  1.7233  0.6872
 1426SOL     OW 5120   6.151   6.567   5.174 -0.6998  0.1354  0.2066
 1426SOL    HW1 5121   6.197   6.506   5.231  1.7795  2.4205  0.8793
 1426SOL    HW2 5122   6.074   6.594   5.224 -0.2906 -0.3079  1.1001
 1427SOL     OW 5123   5.989   4.269   3.988 -0.1241 -0.4668  0.1851
 1427SOL    HW1 5124   5.998   4.273   4.083  0.0236 -0.6316  0.1799
 1427SOL    HW2 5125   5.924   4.336   3.966 -0.9132 -1.1093  0.4993
 1428SOL     OW 5126   1.152   3.994   0.101 -0.2568  0.5059 -0.4497
 1428SOL    HW1 5127   1.086   3.942   0.053  1.0906 -0.1195 -1.7063
 1428SOL    HW2 5128   1.157   3.952   0.187 -3.5777  2.3701  0.8318
 1429SOL     OW 5129   5.502   3.528   1.882  0.0073 -0.8523 -0.3500
 1429SOL    HW1 5130   5.587   3.490   1.858 -0.3485 -1.8201 -0.1481
 1429SOL    HW2 5131   5.445   3.508   1.808 -0.7010 -2.5205  0.5833
 1430SOL     OW 5132   3.351   6.973   5.188 -0.2007 -0.5811 -0.2196
 1430SOL    HW1 5133   3.366   6.894   5.136  0.2939 -0.0348 -0.9225
 1430SOL    HW2 5134   3.427   7.029   5.169 -0.8283  0.3026 -0.1791
 1431SOL     OW 5135   3.092   4.737   5.038 -0.7659  0.1128  0.2088
 1431SOL    HW1 5136   3.054   4.691   4.963 -1.1814  2.3700 -1.0499
 1431SOL    HW2 5137   3.184   4.748   5.016 -0.4733 -0.8104  0.9014
 1432SOL     OW 5138   2.905   0.876   2.325  0.6843 -0.2772  0.0540
 1432SOL    HW1 5139   2.941   0.960   2.353 -0.7744 -0.4278  2.6671
 1432SOL    HW2 5140   2.888   0.829   2.407 -2.7869 -1.2820 -1.1028
 1433SOL     OW 5141   3.656   2.791   4.850 -0.6780 -0.3368  0.3208
 1433SOL    HW1 5142   3.727   2.767   4.790 -0.3920  0.8111  0.1638
 1433SOL    HW2 5143   3.685   2.874   4.888  0.2670 -2.0871  3.8685
 1434SOL     OW 5144   8.041   0.852   7.489 -0.0532  0.1181 -0.1960
 1434SOL    HW1 5145   8.095   0.882   7.415  1.4882 -0.2227  0.7602
 1434SOL    HW2 5146   8.090   0.877   7.567 -1.0807 -0.6072  0.7177
 1435SOL     OW 5147   6.726   2.818   0.509 -0.4164 -0.7249 -0.2854
 1435SOL    HW1 5148   6.652   2.837   0.566  0.9300 -0.3579  1.4179
 1435SOL    HW2 5149   6.741   2.899   0.460  0.5520  0.1781  1.4115
 1436SOL     OW 5150   1.958   2.302   1.151 -0.1129 -0.5471 -0.1417
 1436SOL    HW1 5151   2.036   2.290   1.096 -0.7995  0.0069 -1.2614
 1436SOL    HW2 5152   1.925   2.388   1.128 -0.8959 -0.6448  0.5492
 1437SOL     OW 5153   1.403   0.685   0.181 -0.3570  0.2349  0.1333
 1437SOL    HW1 5154   1.438   0.774   0.184 -0.1835  0.1717 -0.0074
 1437SOL    HW2 5155   1.308   0.697   0.175 -0.2793  0.4401 -1.1379
 1438SOL     OW 5156   1.882   4.400   0.315 -0.0232 -0.4941 -0.3217
 1438SOL    HW1 5157   1.873   4.332   0.248 -1.2621 -0.9560  0.2890
 1438SOL    HW2 5158   1.974   4.427   0.308  0.3220 -1.7288 -1.0609
 1439SOL     OW 5159   0.894   7.127   3.411 -0.1432  0.0772  0.4083
 1439SOL    HW1 5160   0.853   7.062   3.355  0.1420 -1.8900  2.3181
 1439SOL    HW2 5161   0.936   7.075   3.480 -0.3846  2.3163  2.3621
 1440SOL     OW 5162   0.545   1.320   6.067  0.0811  0.8921 -0.7181
 1440SOL    HW1 5163   0.621   1.262   6.056 -0.3123  0.4858 -1.4018
 1440SOL    HW2 5164   0.581   1.400   6.103  0.5260 -0.0758  1.1095
 1441SOL     OW 5165   2.507   5.215   1.691  0.7747  0.5478 -0.2033
 1441SOL    HW1 5166   2.522   5.310   1.686  0.2201  0.5852 -1.4081
 1441SOL    HW2 5167   2.484   5.189   1.602  2.2583 -0.9726 -0.1990
 1442SOL     OW 5168   7.263   7.431   0.114  0.6165  0.3338 -0.0203
 1442SOL    HW1 5169   7.210   7.510   0.100  0.4543  0.5140  1.5012
 1442SOL    HW2 5170   7.266   7.420   0.209 -0.9976 -2.6025 -0.2014
 1443SOL     OW 5171   0.641   0.088   3.632 -0.0787 -0.5592  0.0301
 1443SOL    HW1 5172   0.643   0.151   3.560 -0.8010 -0.0138  0.4660
 1443SOL    HW2 5173   0.625   0.004   3.590 -0.5788 -0.2367 -0.4396
 1444SOL     OW 5174   3.516   4.792   1.153  0.1375 -0.0106  0.2154
 1444SOL    HW1 5175   3.462   4.852   1.101 -1.0754  0.0401  1.4690
 1444SOL    HW2 5176   3.469   4.709   1.151  1.1228 -0.5819 -0.3926
 1445SOL     OW 5177   0.879   6.470   5.410  0.1746 -0.2386  0.0776
 1445SOL    HW1 5178   0.870   6.375   5.405 -1.9899 -0.1439  0.8199
 1445SOL    HW2 5179   0.937   6.493   5.338  0.8963 -2.1327  0.0005
 1446SOL     OW 5180   4.264   3.867   5.617  0.5476  0.0257  0.1188
 1446SOL    HW1 5181   4.278   3.804   5.546  0.6268  2.1081 -1.8224
 1446SOL    HW2 5182   4.352   3.882   5.653  0.9089  0.8682 -1.0840
 1447SOL     OW 5183   0.587   5.237   0.978  0.2957 -0.1186  0.4600
 1447SOL    HW1 5184   0.527   5.162   0.980  0.9654 -0.6548  0.8726
 1447SOL    HW2 5185   0.672   5.200   1.001  1.1082  0.3540 -1.5555
 1448SOL     OW 5186   3.318   5.988   7.926  0.4207 -0.3126  0.1120
 1448SOL    HW1 5187   3.271   5.993   7.843 -0.2187 -0.2427  0.4743
 1448SOL    HW2 5188   3.392   5.931   7.908  0.5855  0.1260 -0.6464
 1449SOL     OW 5189   2.405   7.517   3.466  0.4023 -0.1747 -0.3166
 1449SOL    HW1 5190   2.448   7.539   3.384  1.0459 -0.3063 -0.0240
 1449SOL    HW2 5191   2.316   7.493   3.441  0.4015  0.4115 -0.8992
 1450SOL     OW 5192   6.320   5.233   6.777 -0.4200 -0.9797 -0.5914
 1450SOL    HW1 5193   6.333   5.165   6.710 -1.2819 -2.3951  0.6213
 1450SOL    HW2 5194   6.258   5.195   6.838 -1.0641  1.0034  0.0627
 1451SOL     OW 5195   2.470   0.986   5.358 -0.3264  0.5163 -0.6247
 1451SOL    HW1 5196   2.440   1.060   5.305  0.9930  1.4446 -0.1441
 1451SOL    HW2 5197   2.563   1.004   5.372  0.1113 -1.4463 -0.7997
 1452SOL     OW 5198   5.170   7.114   7.443 -0.2683 -0.1883  0.0089
 1452SOL    HW1 5199   5.129   7.096   7.358  1.0212  1.3697 -0.9908
 1452SOL    HW2 5200   5.101   7.156   7.494 -0.7458 -0.1680 -0.6399
 1453SOL     OW 5201   3.624   2.743   2.461  0.6616  0.1017  0.0735
 1453SOL    HW1 5202   3.538   2.785   2.463  1.0573  0.9253  0.1681
 1453SOL    HW2 5203   3.666   2.769   2.542  0.2400 -1.9989  1.0272
 1454SOL     OW 5204   4.762   4.661   5.840  0.1587 -0.5247 -0.0668
 1454SOL    HW1 5205   4.847   4.691   5.871  1.1664 -2.9885 -0.2362
 1454SOL    HW2 5206   4.762   4.567   5.856 -1.8712 -0.8635 -1.6059
 1455SOL     OW 5207   2.120   8.053   7.716 -0.3549 -0.2345  0.2507
 1455SOL    HW1 5208   2.052   8.120   7.718  0.1544  0.4302 -1.9317
 1455SOL    HW2 5209   2.202   8.102   7.717  0.0353 -0.8671 -0.2394
 1456SOL     OW 5210   3.142   2.843   0.358 -0.2247 -0.0513  0.4376
 1456SOL    HW1 5211   3.065   2.898   0.351  0.6845  1.0904 -1.0995
 1456SOL    HW2 5212   3.108   2.755   0.373 -1.7346  0.7250  1.8740
 1457SOL     OW 5213   2.125   4.183   1.469  0.1742  0.4084  0.0927
 1457SOL    HW1 5214   2.171   4.104   1.440 -0.2251 -0.5664  1.9724
 1457SOL    HW2 5215   2.032   4.164   1.455  0.0998  0.7567  0.0829
 1458SOL     OW 5216   2.217   1.903   7.895 -0.4377 -0.2357 -0.2506
 1458SOL    HW1 5217   2.311   1.894   7.912 -0.2093  1.7449 -0.2915
 1458SOL    HW2 5218   2.207   1.991   7.860 -2.2852 -0.5336 -0.5574
 1459SOL     OW 5219   2.346   6.362   5.980 -0.3507 -0.2161  0.1350
 1459SOL    HW1 5220   2.259   6.402   5.984  0.4862  1.6869  3.7335
 1459SOL    HW2 5221   2.329   6.268   5.975 -2.5483  0.1682 -0.7545
 1460SOL     OW 5222   4.502   7.477   5.265  0.1821 -0.1791  0.1409
 1460SOL    HW1 5223   4.429   7.432   5.221 -0.3551 -0.0766  0.9200
 1460SOL    HW2 5224   4.507   7.437   5.351  2.3844 -1.6316 -0.5696
 1461SOL     OW 5225   6.662   5.059   3.844 -0.0578  0.2732  0.0658
 1461SOL    HW1 5226   6.709   5.123   3.898 -1.2832  1.2091  0.0802
 1461SOL    HW2 5227   6.655   4.982   3.900  0.5266  0.4946  0.4568
 1462SOL     OW 5228   0.824   5.769   4.785 -0.2639  0.2222 -0.0741
 1462SOL    HW1 5229   0.744   5.804   4.823 -1.4634 -0.6935 -1.6225
 1462SOL    HW2 5230   0.805   5.761   4.692  1.4217 -0.5872 -0.3885
 1463SOL     OW 5231   4.901   4.441   2.722 -0.4941 -0.0129 -0.2189
 1463SOL    HW1 5232   4.831   4.482   2.772 -0.3469  0.3216 -0.2791
 1463SOL    HW2 5233   4.886   4.347   2.731 -0.5857  0.0479  0.2822
 1464SOL     OW 5234   4.348   7.597   5.916 -0.2941 -0.3902 -0.1494
 1464SOL    HW1 5235   4.285   7.592   5.988  0.3747 -0.2915  0.4469
 1464SOL    HW2 5236   4.348   7.689   5.891 -0.4493 -0.4067 -0.2158
 1465SOL     OW 5237   4.064   1.583   7.713  0.5676 -0.3229  0.1770
 1465SOL    HW1 5238   4.095   1.492   7.718  0.3849 -0.5895 -2.2639
 1465SOL    HW2 5239   3.985   1.584   7.767  0.7871 -1.5245  0.5528
 1466SOL     OW 5240   2.783   8.199   0.369 -0.1289 -0.0533  0.1067
 1466SOL    HW1 5241   2.709   8.140   0.380  0.5261 -1.6355 -2.8150
 1466SOL    HW2 5242   2.857   8.153   0.408 -0.2384  0.4530  0.9273
 1467SOL     OW 5243   3.929   3.901   0.677 -0.4139  0.4821  0.7569
 1467SOL    HW1 5244   3.982   3.894   0.756  1.7619 -1.1225 -0.7404
 1467SOL    HW2 5245   3.841   3.920   0.709  0.5546  0.7473  3.4934
 1468SOL     OW 5246   1.847   6.749   3.619  0.1905 -0.0965  0.4832
 1468SOL    HW1 5247   1.835   6.760   3.525 -0.3372  0.3863  0.6006
 1468SOL    HW2 5248   1.763   6.716   3.650  0.5142 -0.7268  0.7236
 1469SOL     OW 5249   1.282   5.021   3.778  0.2777 -0.1206 -0.1767
 1469SOL    HW1 5250   1.366   4.980   3.795  0.7702  0.2605 -1.5247
 1469SOL    HW2 5251   1.224   4.988   3.846  1.0269 -1.8685 -0.3508
 1470SOL     OW 5252   5.971   1.062   0.997  0.8284 -0.8850  0.9251
 1470SOL    HW1 5253   6.064   1.069   1.018  1.7032  0.0054 -2.6549
 1470SOL    HW2 5254   5.960   1.115   0.918 -2.8624 -0.5752  1.4823
 1471SOL     OW 5255   0.701   4.718   0.960  0.2189  0.0443 -0.1889
 1471SOL    HW1 5256   0.762   4.645   0.966 -0.2709 -0.5263 -1.7246
 1471SOL    HW2 5257   0.667   4.714   0.871 -1.1144  1.1097  0.2354
 1472SOL     OW 5258   3.028   2.975   5.611  0.2392 -0.5478  0.3080
 1472SOL    HW1 5259   2.987   2.949   5.529  0.6524  0.6436 -0.3095
 1472SOL    HW2 5260   2.955   3.006   5.665  0.1159  0.0333 -0.1716
 1473SOL     OW 5261   0.633   1.557   4.656 -0.7698 -0.6816  0.4144
 1473SOL    HW1 5262   0.621   1.615   4.581  1.0700 -0.4575  0.2627
 1473SOL    HW2 5263   0.727   1.552   4.668 -0.9940 -1.5837  2.0542
 1474SOL     OW 5264   1.381   5.180   0.118  0.4023 -0.1565 -0.1426
 1474SOL    HW1 5265   1.351   5.262   0.156  1.3308  0.5146 -0.7886
 1474SOL    HW2 5266   1.315   5.157   0.053  0.5024  0.4771 -0.4714
 1475SOL     OW 5267   0.118   6.241   2.230 -0.0610 -0.5111  0.2632
 1475SOL    HW1 5268   0.087   6.181   2.162 -2.7061 -0.2946  1.1601
 1475SOL    HW2 5269   0.117   6.327   2.189  0.2090 -0.6157  0.0327
 1476SOL     OW 5270   0.505   7.238   2.665 -0.1800 -0.0288  0.2970
 1476SOL    HW1 5271   0.586   7.276   2.630  0.6154 -0.6371  1.4008
 1476SOL    HW2 5272   0.482   7.294   2.739  0.2419 -0.8667  1.0876
 1477SOL     OW 5273   3.117   0.606   5.688 -0.1117 -0.4573 -0.2736
 1477SOL    HW1 5274   3.184   0.544   5.659  1.1341 -0.2099  1.8190
 1477SOL    HW2 5275   3.071   0.559   5.759  1.2718  1.1461  1.7882
 1478SOL     OW 5276   7.645   7.663   2.947 -0.3162 -0.3677 -0.0029
 1478SOL    HW1 5277   7.624   7.684   2.856 -0.0456  1.0606  0.2276
 1478SOL    HW2 5278   7.707   7.732   2.973  0.5979 -1.4822  0.8874
 1479SOL     OW 5279   4.703   7.455   6.329 -0.3345  0.7267  0.0415
 1479SOL    HW1 5280   4.769   7.524   6.321 -1.6648  2.1319  0.6193
 1479SOL    HW2 5281   4.725   7.410   6.411  2.4458 -1.7438 -1.8665
 1480SOL     OW 5282   8.072   1.792   5.647 -0.4597 -0.0409  0.2998
 1480SOL    HW1 5283   8.046   1.740   5.571  2.0813 -1.8174  0.5248
 1480SOL    HW2 5284   8.106   1.874   5.609  0.2585 -0.6727 -0.4569
 1481SOL     OW 5285   7.020   0.292   6.791 -0.0121 -1.1845 -0.1304
 1481SOL    HW1 5286   6.942   0.347   6.786 -1.4458 -3.1561 -0.3981
 1481SOL    HW2 5287   7.035   0.280   6.885  1.0384  0.5331 -0.0172
 1482SOL     OW 5288   0.634   3.986   6.359 -0.4383 -0.3090  0.3556
 1482SOL    HW1 5289   0.725   4.009   6.340  0.0458 -0.7005  2.0608
 1482SOL    HW2 5290   0.607   3.933   6.283  0.7355 -0.1516 -0.1970
 1483SOL     OW 5291   4.722   3.126   6.754 -0.2652  0.1795 -0.5061
 1483SOL    HW1 5292   4.791   3.127   6.820 -0.0211 -0.9013 -0.7262
 1483SOL    HW2 5293   4.721   3.216   6.719 -0.3465  0.7418  0.8862
 1484SOL     OW 5294   7.950   2.129   0.936 -0.1506 -0.1618 -0.0090
 1484SOL    HW1 5295   7.941   2.092   0.848 -1.7257 -0.7115  0.3724
 1484SOL    HW2 5296   7.864   2.122   0.975  0.0917  1.6639  0.9858
 1485SOL     OW 5297   2.406   7.423   2.946 -0.2847  0.0125  0.2344
 1485SOL    HW1 5298   2.348   7.481   2.994 -2.4769 -0.6182 -1.4789
 1485SOL    HW2 5299   2.493   7.461   2.958 -0.7256  0.2579  4.0238
 1486SOL     OW 5300   4.950   6.318   3.091  0.2042 -0.6223  0.2774
 1486SOL    HW1 5301   4.989   6.385   3.036  0.0561 -0.6768  0.1052
 1486SOL    HW2 5302   4.939   6.361   3.176  0.0393 -0.4013  0.1468
 1487SOL     OW 5303   5.325   1.570   8.046  0.1637 -0.0522 -0.1835
 1487SOL    HW1 5304   5.280   1.525   8.118  0.7742 -1.0385 -0.3915
 1487SOL    HW2 5305   5.367   1.646   8.087 -1.0621  0.4734  0.1372
 1488SOL     OW 5306   7.856   8.147   4.434  0.6210  0.0283  0.5718
 1488SOL    HW1 5307   7.878   8.055   4.426  0.6077  0.0986 -0.4277
 1488SOL    HW2 5308   7.760   8.148   4.440  0.7043 -0.1285  2.5855
 1489SOL     OW 5309   3.457   5.901   2.214  0.1084  0.1024  0.5324
 1489SOL    HW1 5310   3.489   5.910   2.124  0.7727  1.1125  0.8447
 1489SOL    HW2 5311   3.517   5.954   2.266 -0.1777 -0.5753  1.6039
 1490SOL     OW 5312   7.404   1.648   1.524 -0.4504 -0.2661 -0.3431
 1490SOL    HW1 5313   7.327   1.593   1.540 -1.0678  0.5826 -0.3482
 1490SOL    HW2 5314   7.462   1.593   1.471 -0.5770 -1.2975  0.5490
 1491SOL     OW 5315   6.071   6.021   5.893 -0.2129  0.1993 -0.0806
 1491SOL    HW1 5316   6.065   5.997   5.986 -1.8460  1.1345  0.1026
 1491SOL    HW2 5317   6.021   5.953   5.848  0.8677 -0.4452 -0.3372
 1492SOL     OW 5318   3.775   5.825   0.872  0.4699 -0.5966  0.5864
 1492SOL    HW1 5319   3.684   5.796   0.873  0.7792 -1.6527  1.6493
 1492SOL    HW2 5320   3.807   5.803   0.785 -0.2880 -0.2170  0.2094
 1493SOL     OW 5321   5.992   4.943   0.585  0.4656  0.1757  0.3176
 1493SOL    HW1 5322   5.944   5.025   0.596  1.2148  0.8396 -1.1641
 1493SOL    HW2 5323   5.924   4.875   0.593 -0.7691  1.0788 -1.7409
 1494SOL     OW 5324   2.727   5.398   3.406 -0.1511 -0.1002 -0.2712
 1494SOL    HW1 5325   2.648   5.431   3.363 -1.7114 -0.3100  2.2254
 1494SOL    HW2 5326   2.708   5.305   3.422  0.8952 -0.3088 -0.2249
 1495SOL     OW 5327   6.051   1.186   0.528 -0.1111  0.1672 -0.1845
 1495SOL    HW1 5328   5.994   1.223   0.461  0.1023  0.7771 -0.0390
 1495SOL    HW2 5329   6.092   1.110   0.485 -2.0594 -1.1451  0.1577
 1496SOL     OW 5330   3.750   1.053   1.411  0.4664  0.0297  0.3729
 1496SOL    HW1 5331   3.663   1.012   1.411 -0.5525  2.0794  0.6633
 1496SOL    HW2 5332   3.808   0.986   1.448 -1.2623 -0.8447  1.6496
 1497SOL     OW 5333   4.319   7.786   7.661 -0.1312  0.8731  0.1184
 1497SOL    HW1 5334   4.383   7.724   7.626 -0.8433 -0.4965  1.1694
 1497SOL    HW2 5335   4.241   7.773   7.606  0.6663  3.1709 -1.7505
 1498SOL     OW 5336   2.053   5.557   1.865 -0.3739  0.0894  0.4357
 1498SOL    HW1 5337   2.109   5.620   1.911 -0.0645  0.1754 -0.0469
 1498SOL    HW2 5338   2.091   5.472   1.887  1.3285  0.2281 -1.5962
 1499SOL     OW 5339   6.480   0.148   7.161  0.0659  0.4884  0.2940
 1499SOL    HW1 5340   6.450   0.238   7.148  3.0098  1.7363  1.2701
 1499SOL    HW2 5341   6.449   0.101   7.084 -3.5270  1.6727  0.8205
 1500SOL     OW 5342   2.868   5.882   2.627 -0.4034 -0.0169 -0.8577
 1500SOL    HW1 5343   2.776   5.858   2.616 -0.2074 -0.7257 -0.9534
 1500SOL    HW2 5344   2.913   5.839   2.555  0.0507  0.0500 -0.6151
 1501SOL     OW 5345   6.400   7.405   2.387 -0.3781  0.6143 -0.5167
 1501SOL    HW1 5346   6.389   7.348   2.463 -0.0792 -0.2317 -1.1004
 1501SOL    HW2 5347   6.493   7.400   2.365 -0.5428  0.4555 -1.2300
 1502SOL     OW 5348   2.082   4.617   0.890  0.0087  0.1524  0.1207
 1502SOL    HW1 5349   2.093   4.601   0.984 -1.5530  0.6410  0.4201
 1502SOL    HW2 5350   2.138   4.692   0.872  0.2982  0.0751  0.6730
 1503SOL     OW 5351   0.799   0.674   8.124 -0.5054 -0.5393 -0.4587
 1503SOL    HW1 5352   0.767   0.585   8.143 -1.2348 -0.6726 -2.1337
 1503SOL    HW2 5353   0.852   0.664   8.045 -1.2816  0.6398 -1.1552
 1504SOL     OW 5354   4.873   4.546   1.799  0.5181 -0.8668 -0.2841
 1504SOL    HW1 5355   4.839   4.591   1.722  0.6841  0.2760  0.2851
 1504SOL    HW2 5356   4.810   4.568   1.868  1.5004 -0.1102  0.3904
 1505SOL     OW 5357   3.967   2.176   4.629  0.1956 -0.5059  0.3151
 1505SOL    HW1 5358   3.994   2.085   4.640 -1.0387 -1.1331 -1.3911
 1505SOL    HW2 5359   3.879   2.179   4.666  0.9023  0.4807  2.0114
 1506SOL     OW 5360   3.525   4.622   6.115  0.0768 -0.4357  0.1560
 1506SOL    HW1 5361   3.430   4.630   6.124 -0.0834 -0.3344 -1.3801
 1506SOL    HW2 5362   3.537   4.550   6.053  0.8979  1.1925 -1.6789
 1507SOL     OW 5363   7.714   7.314   7.972  0.4370  0.2186 -0.3177
 1507SOL    HW1 5364   7.681   7.224   7.975 -0.1043  0.4375  0.7065
 1507SOL    HW2 5365   7.647   7.365   8.017  0.8279  1.1137 -0.7366
 1508SOL     OW 5366   6.450   4.210   2.775 -0.4899  0.0301 -0.1289
 1508SOL    HW1 5367   6.420   4.284   2.827 -0.9572 -0.0065 -0.3410
 1508SOL    HW2 5368   6.471   4.141   2.838  0.1809  0.4217  0.0847
 1509SOL     OW 5369   6.265   5.969   5.513  0.5839 -0.7042 -0.1077
 1509SOL    HW1 5370   6.290   6.060   5.527 -0.7829  0.3980 -3.7825
 1509SOL    HW2 5371   6.170   5.968   5.525  0.6057 -1.7360  0.1095
 1510SOL     OW 5372   6.773   6.599   3.377 -0.2606  0.2070 -0.0016
 1510SOL    HW1 5373   6.836   6.557   3.318 -1.4420  0.2461 -1.3612
 1510SOL    HW2 5374   6.766   6.540   3.452 -0.1783 -0.8633 -0.8163
 1511SOL     OW 5375   2.696   7.527   2.027 -0.2078  0.3493 -0.9777
 1511SOL    HW1 5376   2.791   7.542   2.025 -0.2365  0.5677 -0.7290
 1511SOL    HW2 5377   2.665   7.558   1.942  0.0127 -0.2018 -1.2665
 1512SOL     OW 5378   5.497   6.533   1.648  0.2558 -0.0064 -0.3362
 1512SOL    HW1 5379   5.488   6.505   1.739 -0.7745  0.1663 -0.3731
 1512SOL    HW2 5380   5.580   6.494   1.619  0.5130 -0.2032  0.6151
 1513SOL     OW 5381   2.865   1.419   4.229  0.0678  0.1804 -0.3554
 1513SOL    HW1 5382   2.776   1.439   4.257  0.0116 -1.5539  0.8775
 1513SOL    HW2 5383   2.877   1.470   4.149 -1.0843  2.4488  0.8474
 1514SOL     OW 5384   7.176   2.767   7.318 -0.7353 -0.0397 -0.2096
 1514SOL    HW1 5385   7.209   2.724   7.239 -1.9522 -1.4522 -0.0023
 1514SOL    HW2 5386   7.117   2.835   7.287 -0.0642  0.3934 -0.5341
 1515SOL     OW 5387   8.134   5.387   1.302 -0.3336  0.3880  0.3196
 1515SOL    HW1 5388   8.136   5.292   1.295  0.4865  0.3081  1.5067
 1515SOL    HW2 5389   8.047   5.411   1.270 -1.0889 -0.8751  1.3363
 1516SOL     OW 5390   0.690   3.533   6.180  0.2878 -0.1929  0.1540
 1516SOL    HW1 5391   0.636   3.455   6.187 -0.2711 -0.0135 -1.6734
 1516SOL    HW2 5392   0.777   3.501   6.159 -0.3107 -0.3409 -2.4396
 1517SOL     OW 5393   2.901   8.179   3.378 -0.0512 -0.5957  0.1195
 1517SOL    HW1 5394   2.933   8.251   3.323  1.5161 -0.8126  0.6818
 1517SOL    HW2 5395   2.812   8.205   3.402 -0.6751 -0.3756 -2.2584
 1518SOL     OW 5396   0.981   5.769   6.741  0.0114 -0.0914 -0.0128
 1518SOL    HW1 5397   0.969   5.820   6.821  0.7872 -2.1230  1.4970
 1518SOL    HW2 5398   0.962   5.679   6.768  0.6862 -0.8772 -2.0296
 1519SOL     OW 5399   4.877   3.829   6.663 -0.2965  0.0861  0.0651
 1519SOL    HW1 5400   4.895   3.827   6.569 -0.4258  2.9602 -0.1152
 1519SOL    HW2 5401   4.961   3.851   6.703 -0.6288  0.7325  0.4230
 1520SOL     OW 5402   4.129   4.026   0.975 -0.2108 -0.0705  0.0725
 1520SOL    HW1 5403   4.213   4.002   1.013  0.2961  0.9468 -0.3886
 1520SOL    HW2 5404   4.146   4.106   0.926 -0.8286 -1.2931 -2.3184
 1521SOL     OW 5405   4.309   0.185   7.129 -0.1031 -0.1786  0.3960
 1521SOL    HW1 5406   4.348   0.243   7.063 -0.7633 -1.0933 -0.8304
 1521SOL    HW2 5407   4.281   0.244   7.199 -0.1576  0.9212 -0.5259
 1522SOL     OW 5408   7.519   0.498   0.897 -0.1608 -0.1182  0.9008
 1522SOL    HW1 5409   7.430   0.523   0.922 -1.4679 -3.7913  0.6459
 1522SOL    HW2 5410   7.558   0.577   0.861 -3.3423  1.6329  0.9939
 1523SOL     OW 5411   0.747   3.992   4.411  0.1854 -0.8903 -0.2177
 1523SOL    HW1 5412   0.692   4.056   4.457  1.0486  0.4724 -0.9833
 1523SOL    HW2 5413   0.687   3.950   4.349 -0.1196  0.2672 -0.7462
 1524SOL     OW 5414   2.881   2.336   0.055  0.2186  0.8148 -0.0211
 1524SOL    HW1 5415   2.962   2.371   0.018 -0.8591  2.1991 -1.2467
 1524SOL    HW2 5416   2.812   2.386   0.011 -1.2704  0.3678  1.6894
 1525SOL     OW 5417   7.932   6.000   7.215 -0.2982  0.2551 -0.1787
 1525SOL    HW1 5418   7.957   6.085   7.250 -1.5677  0.4629  0.2569
 1525SOL    HW2 5419   7.844   5.984   7.249 -0.9843 -0.2323 -2.0240
 1526SOL     OW 5420   4.212   2.482   7.989 -0.7580 -0.6652  0.1474
 1526SOL    HW1 5421   4.185   2.473   7.897 -1.1082 -0.7731  0.2611
 1526SOL    HW2 5422   4.137   2.452   8.039  0.2579 -2.8412  0.4612
 1527SOL     OW 5423   0.269   2.745   5.950 -0.4580 -0.5761  0.1052
 1527SOL    HW1 5424   0.275   2.805   6.024  1.4516 -0.6825  0.1022
 1527SOL    HW2 5425   0.235   2.664   5.987 -0.3154 -0.3658  0.7063
 1528SOL     OW 5426   5.361   2.683   5.720 -0.2754 -0.5445  0.1699
 1528SOL    HW1 5427   5.289   2.712   5.776  1.4793  0.1224  2.2272
 1528SOL    HW2 5428   5.334   2.596   5.689 -1.0838 -1.2473  2.6096
 1529SOL     OW 5429   2.772   6.126   0.891  0.1671  0.0567 -0.0838
 1529SOL    HW1 5430   2.794   6.063   0.959 -0.1693  0.3872  0.3405
 1529SOL    HW2 5431   2.708   6.184   0.932  0.0407  0.3275 -0.6485
 1530SOL     OW 5432   1.014   6.316   5.685 -0.0810 -0.2279  0.9791
 1530SOL    HW1 5433   0.954   6.254   5.728 -0.1736 -0.0866  1.0547
 1530SOL    HW2 5434   1.060   6.263   5.620 -2.1227  0.1713 -0.8974
 1531SOL     OW 5435   4.489   2.938   1.899 -0.4342  0.1466 -0.4388
 1531SOL    HW1 5436   4.505   2.964   1.809 -0.4878 -1.2710 -0.8839
 1531SOL    HW2 5437   4.470   2.844   1.894 -1.5132  0.2603  0.9248
 1532SOL     OW 5438   4.626   0.982   5.545  0.3479  0.3111  0.3920
 1532SOL    HW1 5439   4.604   0.990   5.638 -1.5825  0.4316 -0.0377
 1532SOL    HW2 5440   4.549   0.941   5.506  1.5361 -0.6710 -1.0136
 1533SOL     OW 5441   0.486   4.055   3.295 -0.0727  0.2209 -0.0850
 1533SOL    HW1 5442   0.535   4.135   3.274 -0.1959  0.0922 -0.9234
 1533SOL    HW2 5443   0.394   4.081   3.289 -0.1126  0.0247 -0.3621
 1534SOL     OW 5444   3.000   5.984   3.093  0.2105  0.1077 -0.0849
 1534SOL    HW1 5445   2.944   5.945   3.160  0.7041 -0.5551 -0.0467
 1534SOL    HW2 5446   2.984   5.931   3.015  0.4896  0.1672 -0.1830
 1535SOL     OW 5447   3.609   3.745   8.155 -0.2221  0.0343 -0.4313
 1535SOL    HW1 5448   3.544   3.709   8.215 -0.4036 -0.7219 -1.0649
 1535SOL    HW2 5449   3.558   3.791   8.088 -0.0228  0.8670 -0.0202
 1536SOL     OW 5450   2.130   8.000   0.366 -0.2201  0.4370  0.1907
 1536SOL    HW1 5451   2.145   7.967   0.278  1.3769  0.9596  0.2376
 1536SOL    HW2 5452   2.147   8.094   0.361  0.5010  0.3827  1.1648
 1537SOL     OW 5453   3.733   0.318   6.809  0.1951  0.6215  0.4458
 1537SOL    HW1 5454   3.800   0.347   6.747  0.8230  0.3258  0.9662
 1537SOL    HW2 5455   3.748   0.372   6.887  0.1683  0.1885  0.7532
 1538SOL     OW 5456   4.017   4.557   7.871 -0.1928 -0.3287  0.1289
 1538SOL    HW1 5457   3.992   4.470   7.900  3.1840 -0.8341  2.0471
 1538SOL    HW2 5458   4.058   4.544   7.786 -0.0244 -0.5904  0.2485
 1539SOL     OW 5459   1.549   1.102   1.643  0.3968  0.4799 -0.2846
 1539SOL    HW1 5460   1.641   1.103   1.670  0.3618  3.3050 -0.0095
 1539SOL    HW2 5461   1.506   1.046   1.707  1.5855  0.9363  0.9548
 1540SOL     OW 5462   0.005   7.063   3.379  0.1682 -0.6651 -0.4337
 1540SOL    HW1 5463   0.086   7.102   3.345  0.4229 -0.9854 -0.1948
 1540SOL    HW2 5464  -0.046   7.041   3.301  1.1571 -2.2888 -0.6678
 1541SOL     OW 5465   1.876   6.517   4.211  0.2172  0.4459 -0.2362
 1541SOL    HW1 5466   1.815   6.488   4.143 -2.6594  1.9779  1.4834
 1541SOL    HW2 5467   1.914   6.598   4.176 -0.4342  0.6636 -0.4572
 1542SOL     OW 5468   1.609   4.344   0.968  0.5715  0.0059  0.0074
 1542SOL    HW1 5469   1.684   4.375   0.917 -0.0447  0.0484 -0.8903
 1542SOL    HW2 5470   1.629   4.252   0.986  1.3154  0.2893  0.6702
 1543SOL     OW 5471   1.364   5.796   5.067 -0.5553 -0.3331  0.5145
 1543SOL    HW1 5472   1.354   5.820   4.975 -2.4221 -2.6879 -0.0204
 1543SOL    HW2 5473   1.325   5.709   5.072 -0.1769 -0.4089  3.4916
 1544SOL     OW 5474   6.591   2.067   2.961  0.1366  0.4796  0.2748
 1544SOL    HW1 5475   6.595   2.075   2.866  0.7544 -0.8003  0.1727
 1544SOL    HW2 5476   6.532   1.994   2.976  0.7995  0.0504  0.8383
 1545SOL     OW 5477   1.207   4.758   4.154 -0.1773  0.4724 -0.2570
 1545SOL    HW1 5478   1.155   4.713   4.220 -1.9079  2.2406 -0.2934
 1545SOL    HW2 5479   1.285   4.788   4.201 -0.1656 -0.4442  0.3327
 1546SOL     OW 5480   2.432   4.589   5.926  0.0305  0.5704 -0.1175
 1546SOL    HW1 5481   2.480   4.636   5.994 -1.7493  1.6331  0.4509
 1546SOL    HW2 5482   2.447   4.641   5.847  0.6687  0.2883 -0.1964
 1547SOL     OW 5483   7.363   5.496   0.669 -0.0030 -0.1533  0.1060
 1547SOL    HW1 5484   7.424   5.509   0.741 -0.6587 -0.2504  0.6859
 1547SOL    HW2 5485   7.344   5.584   0.637  0.8010 -0.1474 -0.3959
 1548SOL     OW 5486   3.712   4.142   0.396  0.2341 -0.6148 -0.2132
 1548SOL    HW1 5487   3.630   4.114   0.355  0.7069  0.2004 -1.7811
 1548SOL    HW2 5488   3.686   4.176   0.482 -1.2494  0.7028 -1.1405
 1549SOL     OW 5489   5.581   3.461   5.257 -0.1381 -0.1257  0.6875
 1549SOL    HW1 5490   5.572   3.409   5.337 -1.0914 -0.9526  0.0620
 1549SOL    HW2 5491   5.675   3.462   5.240  0.2500  1.2963  2.5913
 1550SOL     OW 5492   7.799   5.427   0.193 -0.0114 -0.2140 -0.3815
 1550SOL    HW1 5493   7.829   5.429   0.102 -1.6360 -1.9091 -1.0151
 1550SOL    HW2 5494   7.706   5.404   0.188 -0.5555  1.2102  1.6541
 1551SOL     OW 5495   6.485   4.256   7.170 -0.3464  0.0389  0.0120
 1551SOL    HW1 5496   6.569   4.268   7.124 -0.2197  0.9307  0.4463
 1551SOL    HW2 5497   6.422   4.304   7.117 -0.4000  0.1753  0.1995
 1552SOL     OW 5498   1.537   2.649   2.055 -0.0356 -0.3457  0.2912
 1552SOL    HW1 5499   1.501   2.692   2.133  1.5951  0.9496  0.3737
 1552SOL    HW2 5500   1.521   2.555   2.071 -2.3649  0.0553  0.7743
 1553SOL     OW 5501   3.106   7.541   5.619 -1.0890 -0.5275 -0.2131
 1553SOL    HW1 5502   3.027   7.587   5.590 -0.6746 -0.3180 -1.0478
 1553SOL    HW2 5503   3.147   7.512   5.538  0.2353  0.2703  0.1464
 1554SOL     OW 5504   2.086   7.351   3.076 -0.1811  0.0895  0.2499
 1554SOL    HW1 5505   2.039   7.311   3.150  2.4659 -0.7906  1.5627
 1554SOL    HW2 5506   2.176   7.320   3.085  0.2998  0.0999 -3.3037
 1555SOL     OW 5507   3.201   2.533   6.736  0.0853  0.3700 -0.3944
 1555SOL    HW1 5508   3.291   2.522   6.766 -0.1496 -1.8728 -0.3735
 1555SOL    HW2 5509   3.147   2.493   6.804 -0.8226  0.3407 -1.1025
 1556SOL     OW 5510   6.873   1.685   7.860  1.1395 -0.0345 -0.3938
 1556SOL    HW1 5511   6.933   1.715   7.791  1.9050 -0.9175 -0.1296
 1556SOL    HW2 5512   6.810   1.756   7.868  1.6748  0.5680 -1.2491
 1557SOL     OW 5513   5.724   3.016   3.830 -0.0973  0.5245 -0.1370
 1557SOL    HW1 5514   5.708   3.001   3.923 -0.3906  3.0114  0.2964
 1557SOL    HW2 5515   5.804   2.966   3.811 -0.6297 -0.8924  1.1485
 1558SOL     OW 5516   5.454   1.136   6.513  0.1471 -0.3612  0.1015
 1558SOL    HW1 5517   5.363   1.163   6.525  0.5365  0.8683  0.4369
 1558SOL    HW2 5518   5.484   1.116   6.602  1.0883  2.3176  0.4940
 1559SOL     OW 5519   5.301   7.162   7.898  0.1759  0.3086  0.3895
 1559SOL    HW1 5520   5.249   7.163   7.818  2.8916  1.8561 -1.5258
 1559SOL    HW2 5521   5.364   7.091   7.884  1.0956  1.0212  0.8232
 1560SOL     OW 5522   3.471   3.081   4.187  0.0247 -0.1758  0.3336
 1560SOL    HW1 5523   3.550   3.110   4.142 -0.0877  1.9872  1.4213
 1560SOL    HW2 5524   3.490   3.093   4.280 -1.6447  0.5720  0.6034
 1561SOL     OW 5525   2.302   5.332   0.033 -0.5551 -0.0230 -0.2405
 1561SOL    HW1 5526   2.209   5.331   0.059 -0.9115  0.1587 -1.4642
 1561SOL    HW2 5527   2.308   5.270  -0.039  0.4710 -0.6920  0.3944
 1562SOL     OW 5528   5.493   1.781   4.062  0.1645 -0.2056 -0.6890
 1562SOL    HW1 5529   5.487   1.872   4.032  0.0661  0.2483  0.6006
 1562SOL    HW2 5530   5.579   1.752   4.034  0.9018  0.8719  0.3415
 1563SOL     OW 5531   2.570   4.892   1.236  0.1503  0.4523  0.0115
 1563SOL    HW1 5532   2.492   4.933   1.198 -0.5701 -0.4891  0.4161
 1563SOL    HW2 5533   2.578   4.809   1.188  0.8072  0.4621  0.0973
 1564SOL     OW 5534   5.313   0.616   1.367  0.5985  0.2849  0.7490
 1564SOL    HW1 5535   5.348   0.664   1.292 -0.4508  1.3305  0.9080
 1564SOL    HW2 5536   5.346   0.527   1.355  0.8872  0.5517 -0.6630
 1565SOL     OW 5537   3.889   7.252   0.964 -0.4190 -0.3418  0.2692
 1565SOL    HW1 5538   3.976   7.264   1.002 -1.1196 -0.9020  2.1503
 1565SOL    HW2 5539   3.895   7.170   0.916  0.3522  0.1332 -0.4856
 1566SOL     OW 5540   1.567   7.883   8.054  0.3717 -0.0434 -0.0563
 1566SOL    HW1 5541   1.651   7.887   8.009 -0.1958  0.4965 -1.0960
 1566SOL    HW2 5542   1.538   7.974   8.058 -1.4793 -0.4449 -2.2903
 1567SOL     OW 5543   5.871   0.442   0.633  0.2528 -0.0020 -0.1226
 1567SOL    HW1 5544   5.913   0.363   0.599 -0.6027 -0.6160  0.1896
 1567SOL    HW2 5545   5.942   0.503   0.648  0.8133 -0.2675 -1.5285
 1568SOL     OW 5546   1.536   3.693   5.534  0.8329  0.2113 -0.1339
 1568SOL    HW1 5547   1.533   3.659   5.444 -2.1786  2.4380 -1.0647
 1568SOL    HW2 5548   1.609   3.754   5.534  0.8646  0.1916 -1.0936
 1569SOL     OW 5549   4.009   7.857   2.930 -0.7703 -0.0022 -0.0776
 1569SOL    HW1 5550   3.914   7.851   2.941 -0.6145  0.4922  2.0693
 1569SOL    HW2 5551   4.025   7.949   2.910 -0.8538 -0.4735 -2.6335
 1570SOL     OW 5552   6.894   0.474   5.398  0.2550  0.2363  0.1431
 1570SOL    HW1 5553   6.982   0.466   5.435  0.2766 -0.9708 -0.1411
 1570SOL    HW2 5554   6.873   0.387   5.366 -0.6934  0.7199 -0.6096
 1571SOL     OW 5555   0.918   5.488   5.063 -0.3857 -0.6728 -0.3548
 1571SOL    HW1 5556   0.926   5.394   5.078 -1.9030 -1.0099 -1.4001
 1571SOL    HW2 5557   0.866   5.520   5.136 -1.6127 -1.0339 -1.0436
 1572SOL     OW 5558   4.209   7.331   7.082  0.2900  0.3580 -0.4260
 1572SOL    HW1 5559   4.154   7.346   7.159  0.7261 -0.7452  0.1252
 1572SOL    HW2 5560   4.193   7.407   7.026 -1.6137  0.1970 -0.1827
 1573SOL     OW 5561   6.674   2.363   3.685 -0.8157  0.3951  0.3745
 1573SOL    HW1 5562   6.679   2.442   3.631 -0.3430  1.1829  1.5352
 1573SOL    HW2 5563   6.596   2.317   3.653 -1.8599  1.9822  0.5174
 1574SOL     OW 5564   1.711   6.188   7.975 -0.3144  0.0945 -0.0198
 1574SOL    HW1 5565   1.665   6.105   7.984  1.3200 -0.9863 -1.0685
 1574SOL    HW2 5566   1.747   6.186   7.887  0.8415  1.3528  0.3906
 1575SOL     OW 5567   4.645   2.178   0.371  0.1723  0.2318  0.3508
 1575SOL    HW1 5568   4.684   2.260   0.403  2.1621 -0.4145 -0.2820
 1575SOL    HW2 5569   4.699   2.110   0.410 -1.0387 -0.7842  0.3061
 1576SOL     OW 5570   1.450   2.299   1.589  0.2356 -0.3130  0.1030
 1576SOL    HW1 5571   1.395   2.373   1.612  0.7896 -0.0925  0.7183
 1576SOL    HW2 5572   1.399   2.222   1.615  0.2782 -0.1076  0.7900
 1577SOL     OW 5573   3.043   6.279   6.011  0.0941  0.0967 -0.1976
 1577SOL    HW1 5574   2.993   6.197   6.012  0.6879 -0.3116 -1.6514
 1577SOL    HW2 5575   3.036   6.310   5.921 -0.6891  2.0345  0.4775
 1578SOL     OW 5576   4.254   4.023   0.554 -0.0560 -0.4614  0.0096
 1578SOL    HW1 5577   4.163   4.017   0.584  0.7697 -2.6399  2.4877
 1578SOL    HW2 5578   4.285   3.933   0.552  2.0176  0.2126 -0.9896
 1579SOL     OW 5579   5.037   3.091   3.416 -0.2826  0.0333 -0.2261
 1579SOL    HW1 5580   5.123   3.067   3.450 -0.4286  1.9094  1.6947
 1579SOL    HW2 5581   5.056   3.145   3.339  0.2977  0.7732  0.4211
 1580SOL     OW 5582   7.560   0.964   3.075 -0.3634 -0.2464 -0.2028
 1580SOL    HW1 5583   7.532   0.872   3.076  0.9738 -0.6834 -1.3300
 1580SOL    HW2 5584   7.489   1.010   3.030 -0.8795 -0.7644  0.0626
 1581SOL     OW 5585   6.107   0.782   0.479  0.1000 -0.6399  0.4707
 1581SOL    HW1 5586   6.143   0.865   0.450 -1.5521  0.3843  1.1623
 1581SOL    HW2 5587   6.068   0.744   0.400 -1.3254  0.4762  0.5823
 1582SOL     OW 5588   0.646   5.831   7.508 -0.2954  0.3839  0.2346
 1582SOL    HW1 5589   0.607   5.902   7.560  1.5617  1.7528 -0.1002
 1582SOL    HW2 5590   0.666   5.763   7.572 -0.9110  0.7112  0.7903
 1583SOL     OW 5591   5.651   3.322   3.122  0.8832  0.1128  0.1854
 1583SOL    HW1 5592   5.682   3.390   3.062 -1.3487  0.7116 -0.3837
 1583SOL    HW2 5593   5.566   3.354   3.152  0.1515 -2.0545  0.5537
 1584SOL     OW 5594   7.594   7.785   2.707 -0.0046  0.7052  0.2760
 1584SOL    HW1 5595   7.634   7.835   2.637 -3.6190  0.4510 -2.2632
 1584SOL    HW2 5596   7.524   7.841   2.741 -2.1156 -1.2774 -0.4777
 1585SOL     OW 5597   0.622   0.007   3.927  0.2310 -0.1758  0.2651
 1585SOL    HW1 5598   0.578   0.006   3.842 -0.3506  0.3327  0.5459
 1585SOL    HW2 5599   0.603  -0.079   3.965 -0.3509 -0.0435  0.2900
 1586SOL     OW 5600   2.116   4.092   6.326 -0.0180  0.3041  0.1304
 1586SOL    HW1 5601   2.127   4.160   6.393 -1.5883  0.6180  0.0978
 1586SOL    HW2 5602   2.141   4.011   6.370 -0.2140  0.6222  0.8369
 1587SOL     OW 5603   4.941   4.987   3.477  0.0792  0.3529 -0.0687
 1587SOL    HW1 5604   4.904   4.907   3.512 -2.1532  1.7444  0.9746
 1587SOL    HW2 5605   4.912   4.989   3.385 -1.6061  0.8578  0.4300
 1588SOL     OW 5606   0.382   7.927   2.907 -0.0570 -0.2252 -0.0633
 1588SOL    HW1 5607   0.349   8.009   2.871  0.1965 -0.1433 -0.1125
 1588SOL    HW2 5608   0.463   7.952   2.952  1.1194 -0.7569 -1.7805
 1589SOL     OW 5609   2.994   8.150   5.228  0.3873  0.4810 -0.0695
 1589SOL    HW1 5610   3.050   8.227   5.238 -1.0607  1.5563  0.0063
 1589SOL    HW2 5611   2.923   8.179   5.171 -1.0939 -0.2646  1.3133
 1590SOL     OW 5612   4.528   2.483   7.826  0.0063  0.5386 -0.1855
 1590SOL    HW1 5613   4.443   2.452   7.795  0.7498  0.6132 -2.4254
 1590SOL    HW2 5614   4.536   2.571   7.790  0.1007  1.4567  1.9143
 1591SOL     OW 5615   5.915   7.325   7.960 -0.5889  0.0695 -0.2825
 1591SOL    HW1 5616   5.926   7.405   8.013  0.2774  1.1745 -2.0500
 1591SOL    HW2 5617   5.884   7.260   8.023 -3.6636  2.3544  0.8679
 1592SOL     OW 5618   5.916   3.273   0.638  0.2883  0.6621  0.4341
 1592SOL    HW1 5619   5.834   3.242   0.677  1.2339 -0.0942  1.9266
 1592SOL    HW2 5620   5.956   3.327   0.706  0.8653  1.3651 -0.4321
 1593SOL     OW 5621   2.741   0.284   7.703 -0.1267  0.2870 -0.0698
 1593SOL    HW1 5622   2.783   0.305   7.620 -0.6939  0.2100 -0.3755
 1593SOL    HW2 5623   2.751   0.364   7.756  0.1916  0.3505 -0.2231
 1594SOL     OW 5624   2.447   1.525   3.772  0.0043  0.3612 -0.6077
 1594SOL    HW1 5625   2.387   1.480   3.713 -0.7666 -0.5144  0.7894
 1594SOL    HW2 5626   2.471   1.459   3.838  2.5267  0.6627 -1.0981
 1595SOL     OW 5627   3.518   0.119   7.333  0.3917  0.7174  0.1259
 1595SOL    HW1 5628   3.499   0.175   7.408 -0.3989 -0.0799  0.5445
 1595SOL    HW2 5629   3.433   0.106   7.291  0.7667  0.8451 -0.6881
 1596SOL     OW 5630   5.357   1.539   4.119 -0.5736 -0.1733  0.0612
 1596SOL    HW1 5631   5.408   1.619   4.101 -0.8473 -0.3817 -1.9295
 1596SOL    HW2 5632   5.301   1.530   4.042 -3.0011 -0.4629  1.7631
 1597SOL     OW 5633   3.287   0.083   6.907 -0.3183 -0.0282  0.7568
 1597SOL    HW1 5634   3.272   0.020   6.837 -0.1789  0.8452 -0.0921
 1597SOL    HW2 5635   3.382   0.097   6.906 -0.6205  2.9227 -1.6259
 1598SOL     OW 5636   5.849   3.846   7.545 -0.9268 -0.2812 -0.0825
 1598SOL    HW1 5637   5.765   3.803   7.530 -0.2686 -0.8243 -2.5670
 1598SOL    HW2 5638   5.888   3.856   7.458  1.1045  0.9743  0.8793
 1599SOL     OW 5639   4.148   7.769   4.208 -0.2760  0.7134 -0.3584
 1599SOL    HW1 5640   4.133   7.746   4.300  0.1189 -0.4223 -0.5610
 1599SOL    HW2 5641   4.238   7.802   4.206 -0.5525  1.4967 -0.2132
 1600SOL     OW 5642   8.033   7.184   2.810  0.3419  0.3653 -0.1254
 1600SOL    HW1 5643   8.005   7.275   2.821 -0.6141 -0.1340  1.8729
 1600SOL    HW2 5644   8.128   7.187   2.821  0.6521  1.3848 -2.3415
 1601SOL     OW 5645   5.029   7.035   8.066 -0.1078  0.2664  0.0988
 1601SOL    HW1 5646   5.057   6.944   8.059 -0.5202  0.1787 -0.4498
 1601SOL    HW2 5647   4.983   7.053   7.984 -4.2817 -0.5044  1.9979
 1602SOL     OW 5648   6.559   5.439   0.121 -0.2996 -0.0513  0.0913
 1602SOL    HW1 5649   6.580   5.482   0.038 -0.0705  2.2563  1.2584
 1602SOL    HW2 5650   6.463   5.440   0.124 -0.2981  1.8046  0.7393
 1603SOL     OW 5651   2.999   2.049   0.935 -0.3194 -0.3391 -0.1477
 1603SOL    HW1 5652   3.062   2.067   0.866 -0.8629  3.1309  0.1131
 1603SOL    HW2 5653   2.939   1.985   0.897  2.0513 -2.1598 -1.1010
 1604SOL     OW 5654   2.524   0.780   2.587  0.7662  0.4555 -1.1645
 1604SOL    HW1 5655   2.552   0.862   2.547  0.1413  1.2732 -0.0066
 1604SOL    HW2 5656   2.431   0.794   2.608  1.2019  0.3450  1.1135
 1605SOL     OW 5657   2.594   7.048   2.723  0.0574  0.6017 -0.9887
 1605SOL    HW1 5658   2.554   7.103   2.656 -2.3399  1.1607  0.7203
 1605SOL    HW2 5659   2.644   7.109   2.777 -1.0046  0.8301 -0.2234
 1606SOL     OW 5660   0.146   1.397   0.621 -0.2862 -0.0619 -0.0679
 1606SOL    HW1 5661   0.234   1.423   0.648  0.0280 -2.2413  1.3037
 1606SOL    HW2 5662   0.096   1.478   0.616  1.6065  1.1486 -0.1810
 1607SOL     OW 5663   3.024   4.793   5.311 -0.6467 -0.2789  0.0709
 1607SOL    HW1 5664   3.028   4.777   5.217 -1.9265 -1.3164  0.1671
 1607SOL    HW2 5665   3.065   4.716   5.350 -0.0634  0.1766  0.3787
 1608SOL     OW 5666   2.270   7.100   2.247  0.5949  0.1855 -0.1612
 1608SOL    HW1 5667   2.268   7.055   2.332 -0.5971 -1.2229 -0.8744
 1608SOL    HW2 5668   2.218   7.179   2.260  0.1360 -0.1919  0.3381
 1609SOL     OW 5669   7.387   1.489   4.321  0.6044  0.3244 -0.2757
 1609SOL    HW1 5670   7.299   1.451   4.328  1.3275 -1.3648 -0.0170
 1609SOL    HW2 5671   7.389   1.556   4.389  0.4787 -1.6526  1.7635
 1610SOL     OW 5672   5.018   6.496   5.805  0.1101  0.0436  0.5407
 1610SOL    HW1 5673   4.986   6.519   5.893  0.5219 -2.4065  1.4064
 1610SOL    HW2 5674   4.942   6.510   5.748  0.2361  3.1047  0.9224
 1611SOL     OW 5675   7.038   6.338   3.038  0.1196  0.2540  0.1957
 1611SOL    HW1 5676   7.031   6.344   3.134 -1.2414  1.0313  0.0710
 1611SOL    HW2 5677   7.004   6.250   3.018 -1.1449  0.6892  0.3239
 1612SOL     OW 5678   3.484   0.516   7.704  0.0528  0.2058 -0.1362
 1612SOL    HW1 5679   3.400   0.503   7.747  0.4010  1.1259  0.8633
 1612SOL    HW2 5680   3.503   0.609   7.714  1.4224 -0.0712  0.1082
 1613SOL     OW 5681   7.128   1.380   0.941 -0.2869 -0.5012  0.0047
 1613SOL    HW1 5682   7.153   1.333   1.020 -1.6650 -0.0637  0.7315
 1613SOL    HW2 5683   7.051   1.333   0.908  0.1898 -0.5932 -0.9942
 1614SOL     OW 5684   3.538   5.685   6.145  0.5135 -0.2281 -0.1980
 1614SOL    HW1 5685   3.470   5.674   6.212  1.4442  0.8176  0.9640
 1614SOL    HW2 5686   3.494   5.663   6.063 -1.4554  1.1320  0.4164
 1615SOL     OW 5687   1.988   5.472   7.170 -0.6051 -0.6683  0.4663
 1615SOL    HW1 5688   1.957   5.509   7.253 -0.8773 -1.3655  0.6809
 1615SOL    HW2 5689   1.910   5.434   7.130 -0.3767 -0.7821  0.1262
 1616SOL     OW 5690   0.509   3.524   1.608 -0.7227 -0.2170  0.2762
 1616SOL    HW1 5691   0.550   3.456   1.555  0.6982  0.0572  0.9582
 1616SOL    HW2 5692   0.571   3.597   1.606 -1.8464  0.7628  0.2093
 1617SOL     OW 5693   3.477   3.508   5.239 -0.0364 -0.2905  0.5170
 1617SOL    HW1 5694   3.539   3.478   5.306  1.5924 -0.8019 -1.1264
 1617SOL    HW2 5695   3.435   3.428   5.208  0.8038 -0.3349 -0.5445
 1618SOL     OW 5696   3.175   2.717   2.868  0.0055  0.4104  0.5619
 1618SOL    HW1 5697   3.201   2.634   2.827  0.6936  0.3035  1.1880
 1618SOL    HW2 5698   3.227   2.721   2.948  0.1486  1.5633  0.4220
 1619SOL     OW 5699   4.546   2.471   3.013 -0.0841  0.2055 -0.4593
 1619SOL    HW1 5700   4.479   2.538   3.028 -1.4743 -1.4288  0.9820
 1619SOL    HW2 5701   4.614   2.489   3.078  0.1258  0.8816 -0.8511
 1620SOL     OW 5702   6.988   6.324   1.449 -0.1417 -0.2231 -0.0861
 1620SOL    HW1 5703   7.004   6.377   1.371  0.1600 -1.0070 -0.5680
 1620SOL    HW2 5704   6.897   6.345   1.473 -0.2876 -0.0705 -0.7252
 1621SOL     OW 5705   2.432   3.687   5.500  0.1760  0.0870 -0.1480
 1621SOL    HW1 5706   2.426   3.767   5.447 -1.5130  0.8425  1.1117
 1621SOL    HW2 5707   2.401   3.618   5.442 -0.7873  0.7485 -0.4420
 1622SOL     OW 5708   4.035   1.781   2.580 -0.2952  0.3082  0.4224
 1622SOL    HW1 5709   4.020   1.794   2.486 -0.2111 -0.7874  0.2401
 1622SOL    HW2 5710   3.968   1.834   2.623 -1.1130 -0.1198 -0.2903
 1623SOL     OW 5711   1.980   8.075   5.059 -0.3921 -0.1927  0.4576
 1623SOL    HW1 5712   1.911   8.009   5.052  0.1039 -0.6241 -0.5900
 1623SOL    HW2 5713   1.935   8.154   5.085 -0.7134 -1.4446  4.3681
 1624SOL     OW 5714   6.023   7.914   2.657  0.3001  0.0843 -0.2956
 1624SOL    HW1 5715   5.977   7.845   2.705 -2.0209  1.5662 -0.2110
 1624SOL    HW2 5716   6.092   7.869   2.609  1.3265 -1.7680  2.6804
 1625SOL     OW 5717   2.238   6.612   4.855 -0.6360  0.3415 -0.3068
 1625SOL    HW1 5718   2.245   6.588   4.947 -1.2164  0.7859 -0.1383
 1625SOL    HW2 5719   2.287   6.545   4.808  1.2533  1.1068  0.4619
 1626SOL     OW 5720   0.802   4.248   5.674  0.0140 -0.0504  0.1987
 1626SOL    HW1 5721   0.870   4.305   5.711 -0.1047  1.1965 -1.3883
 1626SOL    HW2 5722   0.837   4.160   5.684  0.2754  0.2604  2.5795
 1627SOL     OW 5723   4.900   5.846   3.073 -0.3443  0.7880 -0.4399
 1627SOL    HW1 5724   4.913   5.872   3.164  0.1980  1.6266 -0.7452
 1627SOL    HW2 5725   4.959   5.772   3.061 -0.5486  0.5562 -0.0729
 1628SOL     OW 5726   3.698   3.537   2.806 -0.5516  0.4840 -0.5892
 1628SOL    HW1 5727   3.610   3.499   2.806 -0.5115  0.3899 -0.5196
 1628SOL    HW2 5728   3.723   3.540   2.899 -0.3587  0.2207 -0.6315
 1629SOL     OW 5729   2.019   1.803   6.762  0.6098  0.2432 -0.6577
 1629SOL    HW1 5730   2.025   1.832   6.671 -1.4409  0.7648 -0.6908
 1629SOL    HW2 5731   2.065   1.720   6.765  2.2818  1.0862 -1.7283
 1630SOL     OW 5732   2.978   5.049   7.460 -0.1217  0.1426  0.0894
 1630SOL    HW1 5733   2.943   5.054   7.371  1.3483 -0.5946 -0.5612
 1630SOL    HW2 5734   2.979   5.140   7.490 -0.6357  0.3994 -0.6284
 1631SOL     OW 5735   3.874   1.729   6.382 -0.3244  0.2449  0.0468
 1631SOL    HW1 5736   3.896   1.727   6.288 -1.5368 -0.4830 -0.2359
 1631SOL    HW2 5737   3.958   1.746   6.425  0.2694  0.5169 -1.1633
 1632SOL     OW 5738   5.735   4.738   6.325  0.1344  0.1382 -0.3116
 1632SOL    HW1 5739   5.723   4.821   6.278  1.6478  0.7752  0.3776
 1632SOL    HW2 5740   5.762   4.676   6.258  1.0101  0.7201 -0.5016
 1633SOL     OW 5741   6.497   3.159   2.577 -0.0793  0.0239  0.2497
 1633SOL    HW1 5742   6.436   3.184   2.509  1.3720 -1.0865 -1.5561
 1633SOL    HW2 5743   6.573   3.215   2.564  0.3835 -0.4873  0.6606
 1634SOL     OW 5744   4.951   3.668   1.896 -0.3883  0.1768 -0.2825
 1634SOL    HW1 5745   4.964   3.735   1.828 -0.6604  1.3139  0.7565
 1634SOL    HW2 5746   4.979   3.710   1.977 -0.6181 -0.9612  0.4084
 1635SOL     OW 5747   4.785   2.071   2.955  0.2084 -0.0014  0.2467
 1635SOL    HW1 5748   4.858   2.100   3.010 -0.0086 -0.6753  0.9080
 1635SOL    HW2 5749   4.823   2.056   2.869  0.2581  2.6633 -0.2862
 1636SOL     OW 5750   2.807   6.868   4.991 -0.1618 -0.6094 -0.0281
 1636SOL    HW1 5751   2.773   6.925   4.922 -0.2901 -1.5542 -0.7664
 1636SOL    HW2 5752   2.764   6.784   4.977  0.9442 -1.2554  0.2734
 1637SOL     OW 5753   6.512   1.608   2.747 -0.0759 -0.1788  0.2102
 1637SOL    HW1 5754   6.458   1.583   2.672 -1.0076  1.9871  0.0820
 1637SOL    HW2 5755   6.451   1.612   2.820  0.3708  0.0042  0.5761
 1638SOL     OW 5756   8.173   1.028   1.445  0.0308  0.0330  0.1320
 1638SOL    HW1 5757   8.130   0.955   1.401  0.0536 -1.0618  1.8169
 1638SOL    HW2 5758   8.139   1.025   1.535 -0.4780  2.5282  0.0928
 1639SOL     OW 5759   0.831   4.865   2.310 -0.0449 -0.4622  0.5670
 1639SOL    HW1 5760   0.869   4.842   2.225 -2.1975  0.7186 -0.8193
 1639SOL    HW2 5761   0.901   4.848   2.373  3.2908  2.6930 -1.8374
 1640SOL     OW 5762   3.958   0.136   3.717  0.1522 -0.4787  0.6806
 1640SOL    HW1 5763   3.916   0.067   3.665  0.3841 -0.0881 -0.0315
 1640SOL    HW2 5764   3.931   0.218   3.676  0.5458 -0.1750  1.0156
 1641SOL     OW 5765   2.021   6.416   8.036 -0.2025  0.0630 -0.0145
 1641SOL    HW1 5766   2.013   6.368   7.954  0.6182  0.9348 -0.6304
 1641SOL    HW2 5767   1.934   6.412   8.076 -0.2866 -1.4425 -0.3100
 1642SOL     OW 5768   3.894   0.480   1.900  0.3532 -0.1823  0.2963
 1642SOL    HW1 5769   3.988   0.471   1.881  0.2242  1.4247 -1.4125
 1642SOL    HW2 5770   3.876   0.573   1.887 -1.7752 -0.7154 -1.0184
 1643SOL     OW 5771   7.230   4.961   1.890  0.0553 -0.2113  0.0067
 1643SOL    HW1 5772   7.135   4.959   1.905  0.0643  0.2540  0.1584
 1643SOL    HW2 5773   7.247   4.884   1.836 -0.1937 -1.1389  1.1902
 1644SOL     OW 5774   4.220   4.614   5.583 -0.3861  0.5149 -0.3689
 1644SOL    HW1 5775   4.219   4.573   5.669 -0.8654  1.9208  0.3298
 1644SOL    HW2 5776   4.303   4.588   5.544 -0.0072  0.1585  0.6583
 1645SOL     OW 5777   1.864   5.839   0.846 -0.1860 -0.2063  0.7507
 1645SOL    HW1 5778   1.792   5.902   0.856  0.8462  1.1534 -0.0944
 1645SOL    HW2 5779   1.865   5.819   0.753  1.6441  1.2052  0.4209
 1646SOL     OW 5780   0.554   4.322   3.317  0.3253 -0.2775 -0.6137
 1646SOL    HW1 5781   0.566   4.413   3.344 -1.3070 -0.3830  0.5910
 1646SOL    HW2 5782   0.642   4.283   3.323  0.4132  0.1837  2.9506
 1647SOL     OW 5783   7.271   3.063   5.299  0.3622  0.6205 -0.1485
 1647SOL    HW1 5784   7.193   3.077   5.244  0.5962 -1.9184 -1.2575
 1647SOL    HW2 5785   7.344   3.068   5.237  0.8941  0.6761  0.4806
 1648SOL     OW 5786   7.496   6.967   6.348 -0.5005 -0.2670  0.2998
 1648SOL    HW1 5787   7.531   7.039   6.400  0.6688 -0.3710 -0.3053
 1648SOL    HW2 5788   7.407   6.995   6.325  0.5399  1.8880 -1.5354
 1649SOL     OW 5789   4.040   7.052   4.567  0.5086  0.0581  0.0230
 1649SOL    HW1 5790   3.981   7.083   4.498  0.2904  0.5257  0.4150
 1649SOL    HW2 5791   4.014   6.960   4.581  1.4355 -0.4641 -1.4307
 1650SOL     OW 5792   5.891   2.180   5.784  0.1997  0.2302 -0.3526
 1650SOL    HW1 5793   5.897   2.092   5.747 -0.3315 -0.4310  1.0882
 1650SOL    HW2 5794   5.982   2.212   5.783  0.6937 -1.0501  0.7954
 1651SOL     OW 5795   5.637   5.660   3.342  0.3272 -0.5964 -0.0983
 1651SOL    HW1 5796   5.688   5.725   3.294 -0.7002  0.6406  0.4147
 1651SOL    HW2 5797   5.640   5.689   3.433 -0.3115 -1.1527  0.1126
 1652SOL     OW 5798   5.797   2.760   2.314 -0.0908 -0.2123  0.2914
 1652SOL    HW1 5799   5.819   2.840   2.268  0.9978  0.7561  2.3810
 1652SOL    HW2 5800   5.703   2.768   2.332  0.0888  0.8218  0.8493
 1653SOL     OW 5801   7.768   7.420   5.081  0.2400 -0.0660  0.0428
 1653SOL    HW1 5802   7.787   7.502   5.125  0.1434  1.2784 -2.2350
 1653SOL    HW2 5803   7.694   7.441   5.023  1.5498 -1.1206 -2.1499
 1654SOL     OW 5804   0.760   0.730   7.275 -0.5324 -0.2206  0.4510
 1654SOL    HW1 5805   0.716   0.783   7.341 -1.4589  0.2319 -0.5005
 1654SOL    HW2 5806   0.749   0.779   7.193  0.5381 -0.7955 -0.0586
 1655SOL     OW 5807   6.027   2.704   4.915  0.4536 -0.3804  0.4524
 1655SOL    HW1 5808   6.037   2.641   4.987 -0.5774  0.4430  1.3645
 1655SOL    HW2 5809   6.036   2.790   4.957  0.0997  0.1091 -0.4437
 1656SOL     OW 5810   0.674   2.420   5.966  0.0255  0.1483  0.1771
 1656SOL    HW1 5811   0.711   2.361   5.900 -0.1138  0.8199 -0.5179
 1656SOL    HW2 5812   0.670   2.505   5.923 -0.3086  0.5497  0.9735
 1657SOL     OW 5813   7.044   4.857   4.132  0.0636  0.2695  0.2524
 1657SOL    HW1 5814   7.021   4.818   4.047  0.0229 -0.1663  0.4582
 1657SOL    HW2 5815   7.135   4.832   4.145  0.7384  2.0883 -0.6132
 1658SOL     OW 5816   0.082   2.803   7.122  0.4501  0.0709 -0.2760
 1658SOL    HW1 5817   0.005   2.745   7.122  0.4391  0.0858 -0.1204
 1658SOL    HW2 5818   0.045   2.891   7.126  0.5014  0.0430  1.9712
 1659SOL     OW 5819   0.791   1.263   2.518  0.0428 -0.5799 -0.5998
 1659SOL    HW1 5820   0.708   1.235   2.555  0.2630 -1.3857 -0.7027
 1659SOL    HW2 5821   0.767   1.308   2.436 -0.3714  0.3560  0.0137
 1660SOL     OW 5822   4.922   2.942   6.906 -0.0310  0.1014 -0.5126
 1660SOL    HW1 5823   4.828   2.940   6.925  0.0225  1.0846 -0.0583
 1660SOL    HW2 5824   4.964   2.932   6.992  0.2285  2.3256 -0.3010
 1661SOL     OW 5825   5.890   2.649   5.638  0.0251 -0.1466 -0.4818
 1661SOL    HW1 5826   5.952   2.647   5.566  0.3477 -0.8193 -0.1979
 1661SOL    HW2 5827   5.945   2.650   5.717 -0.2807 -1.9948 -0.1923
 1662SOL     OW 5828   2.048   4.363   4.902  0.1614  0.2039  0.1054
 1662SOL    HW1 5829   2.048   4.394   4.812 -1.1800 -0.2800 -0.0845
 1662SOL    HW2 5830   2.140   4.364   4.928  0.6740 -0.5361 -1.5770
 1663SOL     OW 5831   1.726   4.967   6.711  0.1031 -0.0397  0.3610
 1663SOL    HW1 5832   1.795   4.974   6.778 -0.5489 -2.5718  1.4445
 1663SOL    HW2 5833   1.675   4.890   6.738 -0.3555 -1.0463 -2.9225
 1664SOL     OW 5834   1.451   3.975   0.812 -0.3870  0.7820  0.4424
 1664SOL    HW1 5835   1.497   3.970   0.728 -0.0125  0.0107  0.6826
 1664SOL    HW2 5836   1.359   3.963   0.790 -0.3240  0.8922  0.1081
 1665SOL     OW 5837   0.893   1.000   3.337 -0.2834 -0.3536 -0.1118
 1665SOL    HW1 5838   0.825   0.982   3.272 -0.6796  0.8375 -0.0451
 1665SOL    HW2 5839   0.923   0.913   3.364 -2.6784 -0.9751  0.8230
 1666SOL     OW 5840   1.684   0.984   3.478  0.0041 -0.3358  0.0400
 1666SOL    HW1 5841   1.611   0.923   3.472  0.0371 -0.4025  0.3020
 1666SOL    HW2 5842   1.655   1.061   3.430 -0.1963 -0.4026  0.0521
 1667SOL     OW 5843   0.265   5.831   2.927 -0.0226  0.1368 -0.2000
 1667SOL    HW1 5844   0.323   5.893   2.883 -0.0601  0.1805 -0.1870
 1667SOL    HW2 5845   0.322   5.784   2.988  0.4865 -1.3190 -1.7058
 1668SOL     OW 5846   3.344   7.740   2.127  0.0902  0.1726 -0.1975
 1668SOL    HW1 5847   3.413   7.769   2.186 -0.3806  0.8124  0.0474
 1668SOL    HW2 5848   3.389   7.726   2.043  0.4568  0.9387 -0.1414
 1669SOL     OW 5849   4.959   1.628   6.459  0.0664  0.5417 -0.2217
 1669SOL    HW1 5850   5.027   1.677   6.507 -0.8301  0.5942  1.0362
 1669SOL    HW2 5851   4.878   1.675   6.478 -0.1923  1.2707 -2.8023
 1670SOL     OW 5852   6.783   0.817   2.533 -0.6570 -0.4803  0.8816
 1670SOL    HW1 5853   6.860   0.875   2.536 -1.5342  0.8248 -0.5266
 1670SOL    HW2 5854   6.819   0.730   2.549  1.1406  0.0899  0.2595
 1671SOL     OW 5855   2.696   1.997   3.896  0.2986  0.2893 -0.5743
 1671SOL    HW1 5856   2.693   1.906   3.867  0.2699  0.1974 -0.2877
 1671SOL    HW2 5857   2.615   2.009   3.945  0.0302  0.6378 -1.0998
 1672SOL     OW 5858   3.803   5.116   1.855  0.3335 -0.0432 -0.1994
 1672SOL    HW1 5859   3.851   5.082   1.779 -0.2470 -0.6205 -0.3195
 1672SOL    HW2 5860   3.795   5.040   1.913 -1.6306 -0.3501 -0.7972
 1673SOL     OW 5861   3.820   2.817   7.926 -0.1468  0.2370  0.3549
 1673SOL    HW1 5862   3.752   2.770   7.877  1.3808 -0.7030 -0.9578
 1673SOL    HW2 5863   3.811   2.785   8.015 -1.3640  0.0655  0.1883
 1674SOL     OW 5864   2.245   1.273   7.710  0.7369 -0.2071 -0.6204
 1674SOL    HW1 5865   2.190   1.267   7.633 -1.3999 -0.1498  0.8227
 1674SOL    HW2 5866   2.277   1.363   7.710 -0.6053  0.2895 -0.5810
 1675SOL     OW 5867   5.236   3.832   4.949  0.0778 -0.8218 -0.0844
 1675SOL    HW1 5868   5.307   3.823   5.012 -0.6250 -0.4092  0.7915
 1675SOL    HW2 5869   5.156   3.824   5.001 -0.5446 -2.1155 -1.1631
 1676SOL     OW 5870   6.612   4.904   4.321 -0.3651 -0.1098 -0.0324
 1676SOL    HW1 5871   6.683   4.963   4.296 -0.8338  0.2749 -0.4560
 1676SOL    HW2 5872   6.532   4.953   4.304 -0.7356 -0.1751  1.3486
 1677SOL     OW 5873   2.287   2.856   7.591 -0.5028  0.2715 -0.2587
 1677SOL    HW1 5874   2.247   2.812   7.666  0.2784  0.1805  0.1222
 1677SOL    HW2 5875   2.236   2.826   7.516 -1.9670  1.1851  0.3298
 1678SOL     OW 5876   7.854   6.754   7.745  0.5089  0.3745 -0.0646
 1678SOL    HW1 5877   7.774   6.740   7.796  0.2808 -1.5069 -0.8362
 1678SOL    HW2 5878   7.924   6.752   7.810 -0.0064  1.5061  0.5557
 1679SOL     OW 5879   2.763   1.411   5.994  0.0413  0.0230 -0.3457
 1679SOL    HW1 5880   2.753   1.405   5.899  0.2593  1.8004 -0.5097
 1679SOL    HW2 5881   2.858   1.417   6.008 -0.0207  0.3454 -0.0542
 1680SOL     OW 5882   6.477   5.086   3.291 -0.4435  0.2823  0.1614
 1680SOL    HW1 5883   6.525   5.123   3.365 -2.2299  1.3310  0.8677
 1680SOL    HW2 5884   6.499   4.993   3.293  2.4669  0.8650 -0.3250
 1681SOL     OW 5885   6.728   0.131   3.278 -0.5192  0.3334  0.7266
 1681SOL    HW1 5886   6.772   0.063   3.328  0.5190  0.5368  0.1138
 1681SOL    HW2 5887   6.685   0.186   3.344 -0.8240 -0.5271  1.2598
 1682SOL     OW 5888   7.113   6.465   4.830 -0.4893  0.2546  0.0533
 1682SOL    HW1 5889   7.188   6.488   4.885 -0.4382  1.2927 -0.4209
 1682SOL    HW2 5890   7.071   6.549   4.811 -0.8521 -0.1528 -1.0007
 1683SOL     OW 5891   6.870   0.170   3.023 -0.4020 -0.4179  0.0051
 1683SOL    HW1 5892   6.821   0.252   3.026 -1.3121 -0.9637  0.7522
 1683SOL    HW2 5893   6.803   0.102   3.037  0.3113 -1.2947 -0.7103
 1684SOL     OW 5894   5.069   8.156   1.795  0.1628 -0.9940  0.2514
 1684SOL    HW1 5895   5.063   8.098   1.719  0.2210 -1.9442  0.9524
 1684SOL    HW2 5896   5.153   8.201   1.785 -0.5459  0.1074 -1.0741
 1685SOL     OW 5897   7.379   3.937   3.139 -0.0092  0.0653  0.0394
 1685SOL    HW1 5898   7.351   3.905   3.224  1.1986  2.4797  1.4336
 1685SOL    HW2 5899   7.347   4.028   3.135  0.0933  0.0661 -2.0145
 1686SOL     OW 5900   0.760   3.314   2.446  0.0186  0.2030  0.2933
 1686SOL    HW1 5901   0.755   3.363   2.364 -0.1458  0.4944  0.4759
 1686SOL    HW2 5902   0.740   3.223   2.421  1.3068  0.0344 -0.2048
 1687SOL     OW 5903   6.191   2.154   6.100 -0.0348 -0.2882  0.2943
 1687SOL    HW1 5904   6.284   2.144   6.080 -0.3041  0.0652 -1.1963
 1687SOL    HW2 5905   6.163   2.229   6.049 -1.4282 -1.1884 -0.3176
 1688SOL     OW 5906   5.030   6.211   0.719  0.2893  0.3949  0.1386
 1688SOL    HW1 5907   5.030   6.286   0.778  2.3160 -0.9159  1.9906
 1688SOL    HW2 5908   4.958   6.157   0.750  0.9008  0.0542  1.0330
 1689SOL     OW 5909   2.666   0.187   3.732  0.3058  0.5541 -0.1333
 1689SOL    HW1 5910   2.583   0.139   3.730  1.0208 -0.7539  0.2126
 1689SOL    HW2 5911   2.640   0.279   3.736 -1.1357  0.1607  0.3878
 1690SOL     OW 5912   2.991   3.211   6.206 -0.4490  0.4426 -0.0162
 1690SOL    HW1 5913   3.037   3.205   6.290  0.6343 -1.7660 -0.6878
 1690SOL    HW2 5914   3.030   3.287   6.163  1.2450 -0.2188  0.2599
 1691SOL     OW 5915   7.756   3.046   1.055 -0.5908 -0.0432  0.1332
 1691SOL    HW1 5916   7.726   3.000   1.133  0.4489 -0.0618  0.5358
 1691SOL    HW2 5917   7.851   3.053   1.066 -0.0895 -1.9150 -2.0712
 1692SOL     OW 5918   3.263   6.895   0.824 -0.2621  0.4191 -0.0297
 1692SOL    HW1 5919   3.174   6.867   0.803  0.2028 -0.0515 -1.4557
 1692SOL    HW2 5920   3.280   6.967   0.764  0.4418  0.2815  0.0024
 1693SOL     OW 5921   0.563   7.993   7.173  0.8862  0.5028 -0.3286
 1693SOL    HW1 5922   0.641   7.978   7.227  1.5048  1.5973 -0.8707
 1693SOL    HW2 5923   0.595   7.989   7.083 -0.2281 -1.8014 -0.6909
 1694SOL     OW 5924   3.103   2.497   6.483 -0.1183 -0.0918  0.0194
 1694SOL    HW1 5925   3.139   2.527   6.567 -0.0758  0.8479 -0.3192
 1694SOL    HW2 5926   3.051   2.420   6.505  0.0526  0.0298  0.8822
 1695SOL     OW 5927   5.176   1.195   0.846  0.1228 -0.1439 -0.3619
 1695SOL    HW1 5928   5.158   1.289   0.844  2.5711  0.4282  0.9742
 1695SOL    HW2 5929   5.103   1.157   0.896 -0.8209  1.0255 -0.8004
 1696SOL     OW 5930   0.870   5.807   2.916  0.3001 -0.0478 -0.0847
 1696SOL    HW1 5931   0.904   5.755   2.844  0.0221  0.0737 -0.3048
 1696SOL    HW2 5932   0.880   5.898   2.888  0.8863  0.0242  0.3473
 1697SOL     OW 5933   8.051   6.296   4.435 -0.3377 -0.1798 -0.0302
 1697SOL    HW1 5934   8.003   6.213   4.431  0.6250 -0.6976 -2.2246
 1697SOL    HW2 5935   8.067   6.319   4.344 -0.6083  2.4777  0.5264
 1698SOL     OW 5936   6.656   5.762   1.308  0.5383 -0.1036  0.0497
 1698SOL    HW1 5937   6.669   5.854   1.331 -0.5850  0.3719 -1.0731
 1698SOL    HW2 5938   6.716   5.748   1.235 -1.0281  0.4950 -1.4289
 1699SOL     OW 5939   5.171   3.123   6.094 -0.1425  0.6447  0.4125
 1699SOL    HW1 5940   5.210   3.118   6.181 -1.4608  0.6049  1.0385
 1699SOL    HW2 5941   5.077   3.127   6.111 -0.4583  0.0031 -1.0337
 1700SOL     OW 5942   0.167   5.956   2.503  0.3566 -0.5010 -0.4046
 1700SOL    HW1 5943   0.262   5.950   2.490  0.7168  0.7452  1.2256
 1700SOL    HW2 5944   0.138   5.866   2.518  1.7632 -0.6853  1.7150
 1701SOL     OW 5945   5.406   1.070   6.791  0.2780  0.0388 -0.0400
 1701SOL    HW1 5946   5.314   1.047   6.803  0.7785 -1.2506  1.7657
 1701SOL    HW2 5947   5.454   0.993   6.820  1.9843  1.7043  1.9197
 1702SOL     OW 5948   4.273   2.356   3.658  0.2861  0.1960 -0.1755
 1702SOL    HW1 5949   4.314   2.362   3.744  0.1847 -1.2388 -0.0077
 1702SOL    HW2 5950   4.290   2.266   3.629 -0.7934  0.2634 -1.0886
 1703SOL     OW 5951   1.894   5.583   2.808  0.0963  0.6173  0.0219
 1703SOL    HW1 5952   1.957   5.555   2.874 -1.2596 -2.2200  0.2798
 1703SOL    HW2 5953   1.834   5.641   2.855  0.9556  1.1522  0.4644
 1704SOL     OW 5954   2.362   7.077   1.373 -0.2572  0.3496 -0.1842
 1704SOL    HW1 5955   2.340   6.989   1.343 -2.6683  1.5876 -2.4234
 1704SOL    HW2 5956   2.410   7.116   1.300 -0.6995  1.4362  0.0842
 1705SOL     OW 5957   5.815   0.284   4.885 -0.3294  0.6001  0.5087
 1705SOL    HW1 5958   5.843   0.373   4.863  1.2832  0.1470  0.5733
 1705SOL    HW2 5959   5.784   0.248   4.802  2.5717  0.0275 -0.4805
 1706SOL     OW 5960   2.762   4.325   0.666  0.1289 -0.6548  0.4976
 1706SOL    HW1 5961   2.855   4.346   0.653  0.5721 -1.6740  1.8503
 1706SOL    HW2 5962   2.755   4.232   0.647 -0.9085 -0.3219 -0.9091
 1707SOL     OW 5963   6.410   3.382   0.644 -0.3219  0.2169  0.3598
 1707SOL    HW1 5964   6.328   3.364   0.598  0.8361 -0.0144 -1.7710
 1707SOL    HW2 5965   6.469   3.415   0.575  1.1777  0.9940  1.9430
 1708SOL     OW 5966   8.060   3.975   0.848  0.1963  0.3187 -0.7322
 1708SOL    HW1 5967   8.115   3.900   0.868  1.4021  1.4271  0.2720
 1708SOL    HW2 5968   8.009   3.948   0.772  0.1402 -1.7189 -0.0108
 1709SOL     OW 5969   6.270   2.059   3.989 -0.2579 -0.4849  0.0959
 1709SOL    HW1 5970   6.296   1.995   3.923  0.3167 -0.9037  0.7190
 1709SOL    HW2 5971   6.333   2.130   3.980 -0.8464 -0.0293 -0.5408
 1710SOL     OW 5972   2.011   0.470   3.342  0.1684  0.0133 -0.0032
 1710SOL    HW1 5973   1.981   0.440   3.428 -0.6370 -0.5492 -0.4632
 1710SOL    HW2 5974   2.021   0.390   3.291 -1.1612  0.4359 -0.9863
 1711SOL     OW 5975   7.870   4.039   2.263 -0.1154 -0.3975 -0.2831
 1711SOL    HW1 5976   7.910   3.952   2.261 -1.9329 -1.2685 -1.0735
 1711SOL    HW2 5977   7.784   4.026   2.224 -0.8754  1.5455  0.6495
 1712SOL     OW 5978   0.840   3.601   3.988  0.2517 -0.0212  0.6466
 1712SOL    HW1 5979   0.760   3.595   3.935  0.5657  1.1346 -0.0004
 1712SOL    HW2 5980   0.813   3.574   4.075 -0.6423 -0.4884  0.2420
 1713SOL     OW 5981   5.288   1.626   3.429 -0.2591  0.4140  0.1194
 1713SOL    HW1 5982   5.334   1.548   3.459 -2.2493 -0.9267 -0.1680
 1713SOL    HW2 5983   5.309   1.633   3.337 -2.1179 -1.3975 -0.5267
 1714SOL     OW 5984   0.850   0.386   6.028 -0.2322  0.1253 -0.5192
 1714SOL    HW1 5985   0.823   0.420   5.943 -0.7830  2.1394  0.4137
 1714SOL    HW2 5986   0.896   0.304   6.008 -1.5739 -0.1602 -2.6170
 1715SOL     OW 5987   7.048   2.073   0.889  0.1609 -0.0041 -0.3765
 1715SOL    HW1 5988   7.131   2.038   0.856  1.1260  2.0302 -0.2797
 1715SOL    HW2 5989   7.060   2.168   0.887 -2.0049  0.3251  0.1266
 1716SOL     OW 5990   5.597   4.937   3.400 -0.6744  0.2179  0.2921
 1716SOL    HW1 5991   5.508   4.910   3.378 -0.5800  1.1502 -1.5014
 1716SOL    HW2 5992   5.641   4.941   3.315  0.9405  0.2369  1.1121
 1717SOL     OW 5993   7.173   6.995   4.752  0.9768 -0.1345 -0.5022
 1717SOL    HW1 5994   7.256   6.948   4.749 -0.1477 -2.2810 -0.0221
 1717SOL    HW2 5995   7.107   6.927   4.746 -0.7966  1.2023  2.0297
 1718SOL     OW 5996   7.848   2.652   1.199 -0.4572 -0.8859 -0.7700
 1718SOL    HW1 5997   7.823   2.702   1.120  0.8353 -0.2020 -0.7816
 1718SOL    HW2 5998   7.905   2.583   1.166  2.8486  1.3274 -0.2542
 1719SOL     OW 5999   4.338   2.616   1.008  0.0028  0.8137  0.1153
 1719SOL    HW1 6000   4.391   2.591   0.933 -0.5908  1.5933 -0.5872
 1719SOL    HW2 6001   4.369   2.560   1.079 -0.1345 -0.6941 -0.9614
 1720SOL     OW 6002   6.902   5.268   7.866 -0.1090 -0.1691  0.2489
 1720SOL    HW1 6003   6.946   5.224   7.939 -0.2040  1.5011  1.3624
 1720SOL    HW2 6004   6.817   5.224   7.859  1.1574 -2.6226 -1.1459
 1721SOL     OW 6005   6.733   5.266   5.212 -0.1455 -0.3635  0.2860
 1721SOL    HW1 6006   6.674   5.323   5.261 -0.5731 -0.2720 -0.3109
 1721SOL    HW2 6007   6.820   5.287   5.244 -0.3400  0.3214  0.3743
 1722SOL     OW 6008   4.955   4.921   4.271 -0.8937 -0.3877  0.4659
 1722SOL    HW1 6009   4.962   4.963   4.185 -1.5730 -0.6432  0.2763
 1722SOL    HW2 6010   5.043   4.927   4.308 -0.3865 -1.0050 -0.5903
 1723SOL     OW 6011   3.842   7.378   5.614  0.3698  0.3843  0.1958
 1723SOL    HW1 6012   3.922   7.390   5.565 -0.0876 -0.7655 -0.9050
 1723SOL    HW2 6013   3.831   7.283   5.619 -1.5099  0.4964 -0.7217
 1724SOL     OW 6014   5.392   2.491   5.310  0.0434  0.0675  0.7939
 1724SOL    HW1 6015   5.432   2.558   5.366  1.0302 -0.4767  0.7634
 1724SOL    HW2 6016   5.322   2.454   5.363 -0.3163  0.9124  0.9238
 1725SOL     OW 6017   2.318   2.099   2.115 -0.0032 -0.2534  0.3786
 1725SOL    HW1 6018   2.380   2.147   2.169 -0.6148  0.0673  0.8130
 1725SOL    HW2 6019   2.263   2.168   2.075 -1.5369 -0.5989  1.7969
 1726SOL     OW 6020   2.507   4.427   0.376  0.5538  0.1841  0.6291
 1726SOL    HW1 6021   2.484   4.426   0.469 -2.2339 -1.1935  0.0165
 1726SOL    HW2 6022   2.486   4.340   0.345  1.6312  0.5538 -1.2983
 1727SOL     OW 6023   7.585   4.019   4.213  0.0052 -0.1068 -0.0721
 1727SOL    HW1 6024   7.490   4.022   4.202  0.2199 -0.1317 -2.5554
 1727SOL    HW2 6025   7.607   3.926   4.207  0.2421 -0.0492 -0.1222
 1728SOL     OW 6026   4.163   5.180   5.179 -0.3373  0.3314  0.0345
 1728SOL    HW1 6027   4.213   5.153   5.255 -1.9269 -0.0231  1.0055
 1728SOL    HW2 6028   4.168   5.105   5.119 -1.2780 -0.4915  0.9501
 1729SOL     OW 6029   3.501   1.304   1.363  0.0110 -0.1297 -0.5046
 1729SOL    HW1 6030   3.472   1.244   1.432  0.3328 -0.5929 -0.7666
 1729SOL    HW2 6031   3.566   1.254   1.313  0.2531  0.4218 -0.7532
 1730SOL     OW 6032   3.021   7.529   4.664  0.4589 -0.1187  0.0633
 1730SOL    HW1 6033   2.957   7.515   4.734  0.5308  1.4183  0.4710
 1730SOL    HW2 6034   3.019   7.448   4.613 -1.8720 -0.0892  0.0062
 1731SOL     OW 6035   2.293   1.434   4.168  0.1659 -0.2944 -0.2953
 1731SOL    HW1 6036   2.277   1.344   4.194 -5.0427  0.3766 -0.0526
 1731SOL    HW2 6037   2.217   1.457   4.114  1.6793  3.7236 -1.0944
 1732SOL     OW 6038   1.856   7.856   6.125 -0.0676 -0.1323 -0.3372
 1732SOL    HW1 6039   1.853   7.772   6.171  0.0723  0.2921  0.4743
 1732SOL    HW2 6040   1.900   7.915   6.186 -0.1195  0.5226 -0.9166
 1733SOL     OW 6041   4.972   4.771   6.188  0.6637 -0.0012 -0.3559
 1733SOL    HW1 6042   4.969   4.786   6.094 -0.7879 -0.8910 -0.4666
 1733SOL    HW2 6043   4.997   4.679   6.197  0.4305 -0.0192  0.1275
 1734SOL     OW 6044   7.367   4.104   5.097 -0.5950 -0.5727 -0.4508
 1734SOL    HW1 6045   7.325   4.025   5.062 -1.1304 -0.4568 -0.0869
 1734SOL    HW2 6046   7.331   4.114   5.185  0.4747 -0.6653  0.0128
 1735SOL     OW 6047   8.116   3.832   4.103 -0.3908  0.0380 -0.0349
 1735SOL    HW1 6048   8.169   3.901   4.064  0.7524  0.0129  1.3771
 1735SOL    HW2 6049   8.044   3.878   4.146 -0.8342  0.1686 -0.9026
 1736SOL     OW 6050   1.572   4.902   3.202 -0.1529 -0.3382  0.0955
 1736SOL    HW1 6051   1.657   4.925   3.241  1.0485 -1.3295 -1.7804
 1736SOL    HW2 6052   1.568   4.955   3.122 -1.1294 -0.5918 -0.0308
 1737SOL     OW 6053   6.563   7.750   3.280 -0.3191  1.1878  0.2465
 1737SOL    HW1 6054   6.577   7.772   3.188  1.1455  0.5841  0.2862
 1737SOL    HW2 6055   6.579   7.832   3.327  1.2303  1.0091  0.1040
 1738SOL     OW 6056   4.306   5.730   2.908  0.0337 -0.0963  0.1594
 1738SOL    HW1 6057   4.396   5.710   2.883 -0.6739 -1.7532 -1.3488
 1738SOL    HW2 6058   4.264   5.644   2.914 -1.8893  0.6900 -1.0608
 1739SOL     OW 6059   7.134   1.752   3.670 -0.2163 -0.3763 -0.4339
 1739SOL    HW1 6060   7.053   1.749   3.720  0.0939  0.1195  0.1032
 1739SOL    HW2 6061   7.203   1.749   3.736  0.2079  2.4529 -0.6382
 1740SOL     OW 6062   1.857   8.146   1.682  0.3223  0.3186 -0.1120
 1740SOL    HW1 6063   1.878   8.160   1.589 -0.2807 -1.3386 -0.5321
 1740SOL    HW2 6064   1.917   8.077   1.709 -0.2159  0.0636  0.4469
 1741SOL     OW 6065   5.495   3.161   5.798  0.0805 -0.2543 -0.3343
 1741SOL    HW1 6066   5.441   3.099   5.749 -0.7293 -0.0760  0.3033
 1741SOL    HW2 6067   5.566   3.184   5.738  0.6458 -2.1009 -0.4529
 1742SOL     OW 6068   0.559   5.654   8.025  0.1977 -0.0921 -0.3312
 1742SOL    HW1 6069   0.583   5.631   7.935 -0.0055  0.7222 -0.5957
 1742SOL    HW2 6070   0.616   5.727   8.047 -1.6528  1.5496 -0.7950
 1743SOL     OW 6071   6.232   3.550   4.896 -0.7701  0.0845  0.5872
 1743SOL    HW1 6072   6.178   3.615   4.851 -1.8287 -0.6298  0.8021
 1743SOL    HW2 6073   6.193   3.466   4.873 -0.3218 -0.3919  1.5235
 1744SOL     OW 6074   5.698   3.838   5.948  0.4977  0.3523  0.1406
 1744SOL    HW1 6075   5.792   3.827   5.933  0.1384 -0.6673 -1.5746
 1744SOL    HW2 6076   5.665   3.749   5.961 -0.5341  0.4938 -1.3402
 1745SOL     OW 6077   5.221   4.961   0.737  0.2994  0.3776  0.4107
 1745SOL    HW1 6078   5.279   4.990   0.666  0.3352 -0.8650 -0.0897
 1745SOL    HW2 6079   5.252   4.874   0.760 -1.8046 -0.6467 -0.3869
 1746SOL     OW 6080   2.328   1.457   5.501  0.2179 -0.0743  0.0859
 1746SOL    HW1 6081   2.248   1.481   5.547  0.7346  0.7098  0.6079
 1746SOL    HW2 6082   2.395   1.514   5.538  0.9434 -0.4460 -0.6139
 1747SOL     OW 6083   4.640   7.782   1.999 -0.3554  0.1059 -0.2871
 1747SOL    HW1 6084   4.575   7.804   2.065 -1.4694  0.7851 -1.5488
 1747SOL    HW2 6085   4.639   7.857   1.939  1.0929 -0.1922 -0.7254
 1748SOL     OW 6086   5.702   0.554   1.501 -0.1122 -0.2423 -0.5805
 1748SOL    HW1 6087   5.666   0.642   1.496  1.6857  0.4904 -1.3347
 1748SOL    HW2 6088   5.795   0.567   1.517  0.4691 -1.9420 -2.2001
 1749SOL     OW 6089   1.408   4.656   2.009 -0.2457 -0.0737  0.2311
 1749SOL    HW1 6090   1.374   4.740   1.978  0.8168  0.9939  1.8205
 1749SOL    HW2 6091   1.503   4.663   1.995 -0.3354 -2.2345 -2.3697
 1750SOL     OW 6092   6.280   4.841   5.451 -0.1403 -0.6341 -0.5776
 1750SOL    HW1 6093   6.209   4.777   5.453  0.7296 -1.6075 -0.0033
 1750SOL    HW2 6094   6.235   4.926   5.454 -1.2786 -1.2141 -0.4268
 1751SOL     OW 6095   4.688   1.427   4.869 -0.0604  0.3087 -0.1600
 1751SOL    HW1 6096   4.730   1.448   4.953 -2.2869  1.3502  0.7546
 1751SOL    HW2 6097   4.685   1.331   4.868  0.4454  0.2673  0.6958
 1752SOL     OW 6098   4.023   3.071   3.689 -0.2922  0.2682  0.3433
 1752SOL    HW1 6099   4.067   3.143   3.644 -0.3610  0.2709  0.2815
 1752SOL    HW2 6100   4.083   2.997   3.681  0.4784  0.7085  1.6887
 1753SOL     OW 6101   6.289   7.010   5.249 -0.3934 -0.1635  0.1428
 1753SOL    HW1 6102   6.331   7.012   5.335  0.6574  0.0472 -0.3504
 1753SOL    HW2 6103   6.307   6.922   5.216  1.9548  0.6899 -1.1179
 1754SOL     OW 6104   5.573   5.705   5.497 -0.0721  0.7179 -0.1347
 1754SOL    HW1 6105   5.501   5.651   5.464  0.8603  0.2399 -1.4701
 1754SOL    HW2 6106   5.539   5.743   5.578 -1.2439 -0.7682  0.1161
 1755SOL     OW 6107   1.850   0.782   0.735  0.3984  0.2534  0.0496
 1755SOL    HW1 6108   1.776   0.827   0.694  2.1098  1.4042 -2.0052
 1755SOL    HW2 6109   1.843   0.804   0.828 -0.5517  2.2748 -0.4434
 1756SOL     OW 6110   4.517   8.095   3.463 -0.0390 -0.3454  0.3605
 1756SOL    HW1 6111   4.540   8.006   3.491  0.8144 -0.7252 -1.4619
 1756SOL    HW2 6112   4.591   8.149   3.492  1.4565 -0.9430 -2.1210
 1757SOL     OW 6113   1.185   7.329   2.025  0.1133 -0.4604  0.0419
 1757SOL    HW1 6114   1.259   7.372   2.068  1.2781 -2.5584  0.3180
 1757SOL    HW2 6115   1.111   7.345   2.083  1.2309 -1.5763  1.9298
 1758SOL     OW 6116   1.978   7.102   0.749  0.2552  0.1699  0.1855
 1758SOL    HW1 6117   1.983   7.185   0.702 -0.9461 -0.4192 -1.0395
 1758SOL    HW2 6118   1.907   7.114   0.813  1.3624  0.7029  1.3589
 1759SOL     OW 6119   6.850   3.008   3.433 -0.2439 -0.1792 -0.6768
 1759SOL    HW1 6120   6.925   2.997   3.375  0.8138  0.9500  0.4123
 1759SOL    HW2 6121   6.881   3.067   3.502 -1.8489 -0.4321  0.3261
 1760SOL     OW 6122   4.635   3.659   3.459 -0.4217  0.2306 -0.2139
 1760SOL    HW1 6123   4.689   3.682   3.383 -1.5091 -0.9878 -1.4247
 1760SOL    HW2 6124   4.546   3.685   3.434 -0.8010 -0.1814  0.6523
 1761SOL     OW 6125   2.487   6.483   0.001 -0.6792  0.3261 -0.1140
 1761SOL    HW1 6126   2.464   6.482  -0.092 -0.9719  0.2329 -0.0404
 1761SOL    HW2 6127   2.581   6.466   0.003 -0.5333  1.0752 -0.4362
 1762SOL     OW 6128   5.189   5.112   0.116 -0.0267 -0.3970 -0.2035
 1762SOL    HW1 6129   5.216   5.096   0.026 -1.4730  3.3715 -1.5073
 1762SOL    HW2 6130   5.111   5.059   0.128  1.3871 -2.6557 -0.2614
 1763SOL     OW 6131   5.714   3.817   0.360 -0.0551  0.2997  0.0453
 1763SOL    HW1 6132   5.769   3.789   0.286  0.4340 -2.2144  1.2663
 1763SOL    HW2 6133   5.625   3.797   0.333  0.0310  0.2424 -0.1975
 1764SOL     OW 6134   2.949   5.940   0.346 -0.0506 -0.0638 -0.1334
 1764SOL    HW1 6135   3.017   5.981   0.399 -0.1110  0.9270 -0.7907
 1764SOL    HW2 6136   2.901   6.014   0.308  0.4389 -0.7317 -2.1354
 1765SOL     OW 6137   0.348   6.086   4.458 -0.0530  0.3300  0.2443
 1765SOL    HW1 6138   0.380   6.168   4.420  2.0567  0.2147  1.6140
 1765SOL    HW2 6139   0.423   6.027   4.452 -0.7732 -0.7542  1.4349
 1766SOL     OW 6140   5.578   1.027   7.997 -0.0927 -0.1610  0.7054
 1766SOL    HW1 6141   5.596   0.946   8.045  1.4428 -0.0240  0.4166
 1766SOL    HW2 6142   5.593   1.005   7.905 -0.1871  0.3102  0.5711
 1767SOL     OW 6143   7.732   7.491   2.422  0.4199 -0.6605  0.3364
 1767SOL    HW1 6144   7.772   7.552   2.360 -0.0603 -0.3080  0.3668
 1767SOL    HW2 6145   7.662   7.541   2.463 -1.1916 -1.7260 -0.9371
 1768SOL     OW 6146   0.557   7.863   2.603  0.1971  0.1294  0.0388
 1768SOL    HW1 6147   0.638   7.909   2.623  0.1597 -0.5213  1.8647
 1768SOL    HW2 6148   0.580   7.770   2.607 -0.2922 -0.0651 -1.0981
 1769SOL     OW 6149   6.647   6.370   3.566 -0.4799  0.6789  0.3522
 1769SOL    HW1 6150   6.622   6.314   3.492 -1.6869  1.8976 -0.2034
 1769SOL    HW2 6151   6.743   6.368   3.566 -0.4414  0.7670 -1.3452
 1770SOL     OW 6152   0.288   1.467   6.651 -0.1922  0.0356 -0.5656
 1770SOL    HW1 6153   0.246   1.412   6.718  2.5217  0.2026  1.4653
 1770SOL    HW2 6154   0.337   1.405   6.598 -1.1016  0.0710 -1.4830
 1771SOL     OW 6155   4.384   5.497   2.623 -0.0348  0.3994 -0.1112
 1771SOL    HW1 6156   4.462   5.479   2.675  1.1523 -1.9662 -2.4734
 1771SOL    HW2 6157   4.408   5.573   2.570  0.5581 -0.0922 -0.5602
 1772SOL     OW 6158   2.526   4.432   1.984 -0.2791  0.4962 -0.2421
 1772SOL    HW1 6159   2.576   4.351   1.989 -1.4241 -0.1886  0.8359
 1772SOL    HW2 6160   2.483   4.429   1.899  0.6180  0.5652 -0.7089
 1773SOL     OW 6161   4.182   5.704   4.897 -0.6343 -0.5067 -0.0628
 1773SOL    HW1 6162   4.251   5.654   4.854 -0.7029 -0.2245 -0.5107
 1773SOL    HW2 6163   4.102   5.681   4.849 -1.0562 -1.7248  1.1893
 1774SOL     OW 6164   2.850   5.741   5.836 -0.5593 -0.3762 -0.2274
 1774SOL    HW1 6165   2.853   5.691   5.918  0.0340  0.8793  0.5557
 1774SOL    HW2 6166   2.758   5.739   5.811 -1.2318  1.1727  1.7932
 1775SOL     OW 6167   1.562   2.557   5.821 -0.0901  0.2024 -0.4825
 1775SOL    HW1 6168   1.621   2.613   5.772 -0.0311  1.5703  1.0626
 1775SOL    HW2 6169   1.569   2.588   5.911 -1.8842 -0.7003  0.0188
 1776SOL     OW 6170   0.969   2.501   0.616  0.3154  0.2327  0.0519
 1776SOL    HW1 6171   1.001   2.582   0.656  1.1809 -0.3214  0.4923
 1776SOL    HW2 6172   0.922   2.531   0.537 -1.6284  1.3604  1.5463
 1777SOL     OW 6173   0.183   4.525   6.252  0.6991 -1.0720  0.1637
 1777SOL    HW1 6174   0.256   4.462   6.255  0.7558 -1.0359 -0.3572
 1777SOL    HW2 6175   0.182   4.556   6.161  2.0039  1.2528  0.8464
 1778SOL     OW 6176   5.180   0.656   2.761 -0.7065 -0.0121  0.0814
 1778SOL    HW1 6177   5.222   0.703   2.833  0.4991  0.7926 -1.1121
 1778SOL    HW2 6178   5.210   0.565   2.772  0.6158  0.3666 -0.1910
 1779SOL     OW 6179   4.996   0.277   8.211  0.0402  0.0891 -0.8424
 1779SOL    HW1 6180   4.909   0.263   8.247  0.0533  0.4906 -0.6463
 1779SOL    HW2 6181   5.031   0.190   8.196 -0.2952 -0.0730 -0.6777
 1780SOL     OW 6182   5.422   5.351   5.485  0.3112 -0.1694 -0.6009
 1780SOL    HW1 6183   5.375   5.358   5.568 -1.3474 -0.2951 -1.4853
 1780SOL    HW2 6184   5.416   5.439   5.446  1.0601 -0.1158 -0.6209
 1781SOL     OW 6185   2.638   4.216   1.218  0.0507  0.3005 -0.8878
 1781SOL    HW1 6186   2.703   4.164   1.266  0.0023 -0.5061 -1.6776
 1781SOL    HW2 6187   2.664   4.209   1.126 -1.4831 -0.5384 -1.2878
 1782SOL     OW 6188   0.675   7.141   0.580  0.0867  0.3289 -0.2246
 1782SOL    HW1 6189   0.615   7.082   0.624  1.6012 -0.3283  1.0764
 1782SOL    HW2 6190   0.688   7.213   0.642  1.3625 -0.0373 -0.0188
 1783SOL     OW 6191   4.876   6.088   0.002  0.3295  0.3279 -0.4402
 1783SOL    HW1 6192   4.910   6.120   0.085  2.5696 -0.6704 -0.8688
 1783SOL    HW2 6193   4.931   6.012  -0.018 -2.0194 -1.2213 -1.4607
 1784SOL     OW 6194   7.746   3.104   3.810  0.2358 -0.3243 -0.7628
 1784SOL    HW1 6195   7.809   3.069   3.873 -0.4162 -0.2617 -0.0605
 1784SOL    HW2 6196   7.718   3.187   3.849  0.0081 -0.1703 -1.2581
 1785SOL     OW 6197   3.192   3.524   1.734 -0.2315 -0.1654  0.2076
 1785SOL    HW1 6198   3.234   3.488   1.812 -0.5299  0.0864  0.4887
 1785SOL    HW2 6199   3.239   3.484   1.660 -0.1863 -0.6882  0.5150
 1786SOL     OW 6200   4.425   1.399   2.372 -0.2590 -0.1605 -0.5333
 1786SOL    HW1 6201   4.422   1.327   2.309  0.7291 -1.4844  0.8254
 1786SOL    HW2 6202   4.471   1.362   2.448  0.4828  1.9839  0.1503
 1787SOL     OW 6203   4.745   3.862   2.046  0.1092  0.4136 -0.4654
 1787SOL    HW1 6204   4.719   3.842   2.136 -0.5900  0.0416 -0.7397
 1787SOL    HW2 6205   4.833   3.900   2.054  0.4308 -0.4460  0.3013
 1788SOL     OW 6206   1.285   2.928   4.307 -0.1743  0.3073 -0.1338
 1788SOL    HW1 6207   1.216   2.942   4.372  1.0559 -0.8263  1.5232
 1788SOL    HW2 6208   1.312   3.016   4.282 -1.0149  0.7738  0.5263
 1789SOL     OW 6209   7.563   1.549   0.571  0.0407 -0.2554 -0.0942
 1789SOL    HW1 6210   7.615   1.517   0.497 -0.5310  0.3550 -0.7689
 1789SOL    HW2 6211   7.479   1.504   0.562  0.0378 -0.3331  0.3114
 1790SOL     OW 6212   0.306   1.007   0.797  0.0285 -0.3481  0.1987
 1790SOL    HW1 6213   0.219   1.046   0.789  0.1913 -0.2047 -1.0308
 1790SOL    HW2 6214   0.289   0.914   0.813 -0.3457 -0.3148  0.0006
 1791SOL     OW 6215   5.027   2.919   2.564  0.3138 -0.2937  0.1986
 1791SOL    HW1 6216   5.042   2.868   2.484 -0.5213 -1.5945  0.8349
 1791SOL    HW2 6217   5.069   2.868   2.633  2.1228  1.4437  0.4779
 1792SOL     OW 6218   4.356   3.265   2.584 -0.0791  0.2684  0.4358
 1792SOL    HW1 6219   4.428   3.320   2.615 -0.3135  1.5767 -1.2189
 1792SOL    HW2 6220   4.338   3.297   2.496 -0.4292 -2.2925 -0.5051
 1793SOL     OW 6221   5.841   6.987   6.882  0.1429  0.7301 -0.1370
 1793SOL    HW1 6222   5.818   6.939   6.802 -0.4387  1.1627 -0.2408
 1793SOL    HW2 6223   5.855   6.919   6.948  1.2031  0.3438 -0.7456
 1794SOL     OW 6224   3.243   5.635   3.742  0.0278 -0.1757  0.0490
 1794SOL    HW1 6225   3.226   5.667   3.653  1.0622 -1.1006 -0.5089
 1794SOL    HW2 6226   3.330   5.596   3.737 -0.2870 -1.0805  1.2481
 1795SOL     OW 6227   5.549   5.708   2.430 -0.2071  0.4710 -0.5674
 1795SOL    HW1 6228   5.645   5.711   2.435 -0.0921  1.7694 -2.7268
 1795SOL    HW2 6229   5.530   5.697   2.337 -2.1841  2.6152 -0.4834
 1796SOL     OW 6230   4.176   3.039   5.431 -0.0373  0.0501 -0.1296
 1796SOL    HW1 6231   4.210   3.048   5.519  0.4960  0.1878 -0.3485
 1796SOL    HW2 6232   4.087   3.073   5.436  0.0914  0.3298  0.2862
 1797SOL     OW 6233   1.817   3.445   6.517 -0.1639  0.7427  0.6211
 1797SOL    HW1 6234   1.877   3.491   6.458  0.0313 -0.2597  0.0290
 1797SOL    HW2 6235   1.873   3.407   6.584 -0.0505 -0.7050 -0.2675
 1798SOL     OW 6236   7.646   5.928   1.121 -0.2911 -0.3173  0.1198
 1798SOL    HW1 6237   7.736   5.933   1.154 -0.3233 -0.1338  0.1770
 1798SOL    HW2 6238   7.593   5.910   1.199 -0.1959 -1.4364 -0.0515
 1799SOL     OW 6239   2.605   5.353   7.524 -0.8747  0.4901  0.2857
 1799SOL    HW1 6240   2.541   5.335   7.593 -0.6623  0.0588  0.3793
 1799SOL    HW2 6241   2.687   5.369   7.572 -1.1781  2.3482  0.2351
 1800SOL     OW 6242   5.034   1.050   0.548 -0.3353  0.7799 -0.4910
 1800SOL    HW1 6243   5.097   1.118   0.574 -1.3062  1.2503  0.7210
 1800SOL    HW2 6244   4.970   1.096   0.494 -0.7595  0.7669 -0.0152
 1801SOL     OW 6245   6.392   6.298   1.230  0.0261  0.3372 -0.0494
 1801SOL    HW1 6246   6.375   6.392   1.236 -0.2604  0.3032 -0.3085
 1801SOL    HW2 6247   6.430   6.286   1.143  0.0741  0.2155 -0.0123
 1802SOL     OW 6248   6.550   3.757   2.269 -0.5392 -0.3573 -0.0502
 1802SOL    HW1 6249   6.483   3.743   2.202  0.4710 -0.1873 -1.1206
 1802SOL    HW2 6250   6.620   3.696   2.246 -0.1093 -0.1881  0.7692
 1803SOL     OW 6251   1.057   5.430   3.041  0.1638 -0.3047  0.4970
 1803SOL    HW1 6252   1.117   5.383   3.099  0.5491 -2.0316 -1.2061
 1803SOL    HW2 6253   1.111   5.497   2.999  0.3237 -0.2674  0.7601
 1804SOL     OW 6254   0.329   8.145   0.060  0.2732  0.3015  0.1305
 1804SOL    HW1 6255   0.269   8.219   0.051  2.5172  2.0690 -1.5272
 1804SOL    HW2 6256   0.279   8.069   0.031 -1.4240  1.5329 -0.3087
 1805SOL     OW 6257   5.546   4.334   0.002 -0.1445  0.0764 -0.0113
 1805SOL    HW1 6258   5.619   4.288  -0.038  0.4146  0.8967  0.0427
 1805SOL    HW2 6259   5.470   4.310  -0.051  0.0218 -1.3397  0.3562
 1806SOL     OW 6260   7.406   6.074   4.635 -0.6020 -0.1261  0.1102
 1806SOL    HW1 6261   7.316   6.105   4.640 -0.5160 -0.0339  1.8429
 1806SOL    HW2 6262   7.445   6.099   4.719  0.5957 -1.4891  0.0123
 1807SOL     OW 6263   7.452   2.141   2.965 -0.0985 -0.0753  0.4332
 1807SOL    HW1 6264   7.468   2.053   2.929  0.4050 -0.6537  1.9730
 1807SOL    HW2 6265   7.540   2.179   2.973 -0.3233  0.6329 -0.3242
 1808SOL     OW 6266   0.258   2.467   2.583 -0.2285 -0.1565 -0.2618
 1808SOL    HW1 6267   0.181   2.412   2.589 -0.9035  0.8767  1.2328
 1808SOL    HW2 6268   0.225   2.553   2.556  0.7216 -0.2827 -1.9523
 1809SOL     OW 6269   5.128   7.694   1.212  0.5101 -0.0152  0.2010
 1809SOL    HW1 6270   5.152   7.727   1.125  0.9246  1.9375  1.0004
 1809SOL    HW2 6271   5.208   7.651   1.244  0.5260 -0.2553 -0.1519
 1810SOL     OW 6272   1.165   2.502   7.368 -0.3396  0.1574 -0.2749
 1810SOL    HW1 6273   1.131   2.413   7.366 -0.4135  0.1893 -0.4781
 1810SOL    HW2 6274   1.246   2.498   7.319  0.6364 -0.1918  1.2959
 1811SOL     OW 6275   1.161   1.818   0.777 -0.7367 -0.0007  0.1272
 1811SOL    HW1 6276   1.081   1.870   0.773 -1.0899 -0.5790 -2.0808
 1811SOL    HW2 6277   1.131   1.727   0.767  0.0216 -0.4891  1.9315
 1812SOL     OW 6278   5.679   0.690   2.074  0.7307 -0.4328  0.1138
 1812SOL    HW1 6279   5.759   0.680   2.126  1.2130  1.0665 -0.2849
 1812SOL    HW2 6280   5.638   0.769   2.110  0.3536 -0.1856 -0.8474
 1813SOL     OW 6281   2.901   4.675   3.042  0.3812 -0.6114 -0.2518
 1813SOL    HW1 6282   2.985   4.690   2.997 -0.2085 -0.3442 -1.2883
 1813SOL    HW2 6283   2.906   4.732   3.119  0.9306 -0.1664 -0.5980
 1814SOL     OW 6284   0.515   4.144   6.059 -0.7147 -0.1616 -0.0461
 1814SOL    HW1 6285   0.599   4.177   6.030 -1.0962  1.2133  0.3377
 1814SOL    HW2 6286   0.515   4.052   6.034  1.1726 -0.3621  0.5610
 1815SOL     OW 6287   0.277   8.007   7.040 -0.0144  0.0191 -0.1632
 1815SOL    HW1 6288   0.366   8.033   7.065 -0.6832  2.2876  0.1432
 1815SOL    HW2 6289   0.229   8.005   7.123 -0.2778 -1.1909 -0.3258
 1816SOL     OW 6290   8.014   5.841   4.823  0.6714 -0.1015  0.9080
 1816SOL    HW1 6291   8.055   5.926   4.807  0.3496  0.0880  1.0881
 1816SOL    HW2 6292   8.041   5.787   4.748  3.6363 -0.8933  2.3969
 1817SOL     OW 6293   1.976   6.146   0.641  0.6045  0.1371 -0.7003
 1817SOL    HW1 6294   1.934   6.065   0.612 -0.9771  0.4225  0.6580
 1817SOL    HW2 6295   2.065   6.141   0.605  0.2495 -1.7435 -1.4358
 1818SOL     OW 6296   5.479   0.312   4.632 -0.0394  0.4741 -0.7948
 1818SOL    HW1 6297   5.512   0.389   4.679 -1.0977  0.2322  0.4126
 1818SOL    HW2 6298   5.384   0.318   4.640 -0.1455 -0.8581 -0.8300
 1819SOL     OW 6299   5.321   4.702   3.171  0.2946 -0.3702 -0.1253
 1819SOL    HW1 6300   5.369   4.746   3.101  1.7577 -2.2867 -0.4034
 1819SOL    HW2 6301   5.301   4.616   3.135 -2.3063 -0.0967  0.4665
 1820SOL     OW 6302   7.287   4.930   4.001 -0.2587 -0.0765  0.6927
 1820SOL    HW1 6303   7.342   4.976   3.938 -0.1213 -0.3411  0.6191
 1820SOL    HW2 6304   7.340   4.928   4.081  0.3834 -1.4627  0.2623
 1821SOL     OW 6305   6.879   3.228   4.025 -0.0355 -0.7432  0.2711
 1821SOL    HW1 6306   6.801   3.194   3.980 -0.6078  0.9956 -0.1195
 1821SOL    HW2 6307   6.849   3.309   4.067  1.1959 -0.8578  1.4353
 1822SOL     OW 6308   5.040   7.270   2.532 -0.4969  0.0721  0.1651
 1822SOL    HW1 6309   5.103   7.327   2.577  0.3542  0.1469 -1.0533
 1822SOL    HW2 6310   5.084   7.247   2.450 -2.2138  0.4123 -0.9035
 1823SOL     OW 6311   3.774   5.889   3.591  0.2330 -0.2437 -0.2273
 1823SOL    HW1 6312   3.780   5.864   3.683  0.6843 -0.3796 -0.2900
 1823SOL    HW2 6313   3.686   5.862   3.565  0.2025 -0.4624  0.0902
 1824SOL     OW 6314   2.404   3.876   3.157 -0.2355  0.5105  0.4231
 1824SOL    HW1 6315   2.429   3.853   3.068 -2.1112 -1.0830  0.2288
 1824SOL    HW2 6316   2.484   3.909   3.197  2.2440 -3.9883 -0.1563
 1825SOL     OW 6317   6.985   7.746   4.762  0.0514 -0.0884 -0.3303
 1825SOL    HW1 6318   6.954   7.818   4.708  0.2525  0.0298 -0.2847
 1825SOL    HW2 6319   7.079   7.742   4.747  0.0353 -0.3784 -0.3781
 1826SOL     OW 6320   3.591   3.145   7.032 -0.8008  0.0091 -0.2138
 1826SOL    HW1 6321   3.496   3.150   7.033 -0.7811  1.9461 -1.6709
 1826SOL    HW2 6322   3.617   3.199   6.957  1.5179  1.2929  1.3801
 1827SOL     OW 6323   8.070   5.574   6.816  0.4917  0.2667 -0.3363
 1827SOL    HW1 6324   8.148   5.579   6.761  1.5395 -0.0363  1.0854
 1827SOL    HW2 6325   7.998   5.595   6.756  1.5389 -0.4066 -1.9001
 1828SOL     OW 6326   0.557   1.449   3.779  0.8395 -0.0652 -0.0917
 1828SOL    HW1 6327   0.540   1.543   3.783  1.3246 -0.0195  1.5411
 1828SOL    HW2 6328   0.564   1.422   3.870 -0.6730 -1.9657 -0.4700
 1829SOL     OW 6329   6.125   3.025   3.096 -0.2474  0.7237  0.3346
 1829SOL    HW1 6330   6.062   3.083   3.054 -0.8743 -0.0447  0.1859
 1829SOL    HW2 6331   6.101   2.938   3.065  0.0740  0.2831  1.3058
 1830SOL     OW 6332   5.247   2.565   2.137  0.1074  0.3628 -0.2336
 1830SOL    HW1 6333   5.181   2.571   2.206  0.6782  1.9426  0.2260
 1830SOL    HW2 6334   5.196   2.562   2.056 -0.5517 -0.3982  0.1956
 1831SOL     OW 6335   3.158   5.974   7.713  0.6066  0.0677 -0.3497
 1831SOL    HW1 6336   3.075   5.981   7.760  0.7731 -1.0049  0.1342
 1831SOL    HW2 6337   3.161   5.883   7.684  2.4000 -0.4197  1.1788
 1832SOL     OW 6338   6.118   5.374   5.741 -0.2159 -0.0362 -0.0101
 1832SOL    HW1 6339   6.129   5.409   5.652 -0.3951  3.5099  1.2067
 1832SOL    HW2 6340   6.042   5.421   5.776  1.9853  1.5089  3.1780
 1833SOL     OW 6341   1.418   4.882   2.736 -0.4030  0.1772 -0.2448
 1833SOL    HW1 6342   1.369   4.939   2.676 -0.0283  2.1633  1.2508
 1833SOL    HW2 6343   1.352   4.851   2.798 -0.4874 -0.5350 -0.6781
 1834SOL     OW 6344   5.821   5.357   6.373  0.7309  0.1501  0.2234
 1834SOL    HW1 6345   5.832   5.452   6.364  1.5059  0.0281 -0.1818
 1834SOL    HW2 6346   5.852   5.338   6.461  3.7267 -0.1476 -0.7931
 1835SOL     OW 6347   0.874   0.189   7.496 -0.1434 -0.0868  0.4475
 1835SOL    HW1 6348   0.851   0.131   7.569  1.8794  0.9586  2.0311
 1835SOL    HW2 6349   0.864   0.135   7.418  1.5824 -2.6475  1.8315
 1836SOL     OW 6350   7.984   7.962   7.826 -0.1950 -0.1681  0.0324
 1836SOL    HW1 6351   8.048   7.913   7.878  0.4664  0.4091 -0.2149
 1836SOL    HW2 6352   7.950   7.899   7.763 -0.7008 -0.7679  0.8790
 1837SOL     OW 6353   3.574   4.452   0.404 -0.3447 -0.0083 -0.1733
 1837SOL    HW1 6354   3.649   4.424   0.351 -1.5381 -1.2317 -1.3195
 1837SOL    HW2 6355   3.498   4.412   0.360 -1.7678  1.8846  0.4380
 1838SOL     OW 6356   7.642   6.911   4.692 -0.9424 -0.3286  0.3242
 1838SOL    HW1 6357   7.671   6.997   4.662  1.2340 -0.4351  1.9270
 1838SOL    HW2 6358   7.626   6.862   4.612  0.6139  0.6702 -0.6555
 1839SOL     OW 6359   4.915   2.069   5.817 -0.6070  0.0914  0.3321
 1839SOL    HW1 6360   4.947   1.988   5.857 -0.1163  0.0672 -0.0949
 1839SOL    HW2 6361   4.854   2.039   5.750 -0.1358  0.0531 -0.0849
 1840SOL     OW 6362   5.698   6.006   8.060 -0.1953 -0.6805 -0.1680
 1840SOL    HW1 6363   5.788   5.978   8.073  0.4315  1.9999  2.0471
 1840SOL    HW2 6364   5.647   5.947   8.115  0.3213 -1.4457 -0.4918
 1841SOL     OW 6365   2.029   6.142   7.884  0.1436  0.1893 -0.3862
 1841SOL    HW1 6366   1.958   6.123   7.946 -0.0278 -0.6861 -0.8462
 1841SOL    HW2 6367   2.108   6.138   7.937 -0.1770  1.9735  0.3110
 1842SOL     OW 6368   6.572   1.352   1.851 -0.4237 -0.3097  0.2147
 1842SOL    HW1 6369   6.658   1.326   1.883 -0.7550 -0.6016  0.8898
 1842SOL    HW2 6370   6.548   1.426   1.906 -0.5367 -0.1309 -0.0759
 1843SOL     OW 6371   1.738   7.483   2.446 -0.2170  0.1679 -0.1347
 1843SOL    HW1 6372   1.660   7.526   2.412 -0.1362  1.1016  0.8241
 1843SOL    HW2 6373   1.775   7.545   2.509  0.5180 -0.8428  0.4694
 1844SOL     OW 6374   3.296   0.237   6.585 -0.3514 -0.4459 -0.3269
 1844SOL    HW1 6375   3.354   0.162   6.597  0.5192  0.1231 -0.8734
 1844SOL    HW2 6376   3.324   0.300   6.652  0.0047  0.0242 -0.9055
 1845SOL     OW 6377   6.443   7.682   6.470  0.1720 -0.2382  0.1318
 1845SOL    HW1 6378   6.464   7.602   6.421 -1.2888 -0.3740 -0.3153
 1845SOL    HW2 6379   6.377   7.655   6.533  1.6952  0.0365  1.9536
 1846SOL     OW 6380   1.951   6.091   2.265 -0.0822 -0.6772 -0.8515
 1846SOL    HW1 6381   1.952   6.157   2.333 -0.3380 -1.9089  0.3961
 1846SOL    HW2 6382   2.039   6.092   2.229  0.0547 -0.0046 -0.5133
 1847SOL     OW 6383   7.664   5.583   6.427  0.2687  0.4682  0.4993
 1847SOL    HW1 6384   7.588   5.569   6.483  1.1469  1.2499  1.9468
 1847SOL    HW2 6385   7.668   5.504   6.373 -1.9650  0.7296 -0.1375
 1848SOL     OW 6386   4.431   7.987   0.500  0.3545 -0.0046 -0.4275
 1848SOL    HW1 6387   4.483   7.908   0.490  1.1289  0.5271 -0.7187
 1848SOL    HW2 6388   4.378   7.971   0.579  0.9093 -0.5861 -0.1636
 1849SOL     OW 6389   3.204   7.343   2.639 -0.3378 -0.1367  0.0843
 1849SOL    HW1 6390   3.171   7.258   2.611  1.3559 -0.7028 -0.3211
 1849SOL    HW2 6391   3.228   7.331   2.731 -0.8458  0.1373  0.2526
 1850SOL     OW 6392   6.906   6.084   2.971  0.1065  0.0978  0.0462
 1850SOL    HW1 6393   6.828   6.036   3.001 -0.0900 -0.0781 -0.7432
 1850SOL    HW2 6394   6.973   6.016   2.961 -0.1079  0.0074 -0.8533
 1851SOL     OW 6395   7.721   4.655   5.243 -0.0812  0.2650 -0.0204
 1851SOL    HW1 6396   7.746   4.601   5.168 -3.1363 -0.7948 -0.4106
 1851SOL    HW2 6397   7.679   4.595   5.304 -1.0056  1.7209  0.8490
 1852SOL     OW 6398   2.606   7.129   3.830 -0.6246 -0.2958 -0.0891
 1852SOL    HW1 6399   2.568   7.148   3.915 -1.2971  0.0315 -0.4593
 1852SOL    HW2 6400   2.550   7.174   3.767  0.5334  0.4605 -0.6303
 1853SOL     OW 6401   5.906   6.165   7.553  1.1611 -0.3231 -0.1906
 1853SOL    HW1 6402   5.957   6.086   7.534 -0.3450 -1.2550 -0.5149
 1853SOL    HW2 6403   5.953   6.207   7.625  1.4373 -2.0673  0.6961
 1854SOL     OW 6404   4.674   1.402   5.647  0.1946  0.1219  0.0179
 1854SOL    HW1 6405   4.669   1.484   5.697  1.2533 -1.4330  2.9444
 1854SOL    HW2 6406   4.593   1.356   5.669  0.4753 -0.4129 -0.0570
 1855SOL     OW 6407   7.102   5.056   3.850 -1.0613  0.0467  0.4760
 1855SOL    HW1 6408   7.156   5.007   3.913 -1.6100 -1.0241  0.1455
 1855SOL    HW2 6409   7.114   5.009   3.768 -0.4470  1.3676 -0.2110
 1856SOL     OW 6410   4.720   0.246   1.339  0.8667  0.1640 -0.3640
 1856SOL    HW1 6411   4.629   0.278   1.342 -0.1941 -2.3620 -2.2476
 1856SOL    HW2 6412   4.773   0.325   1.351 -1.5497  2.1332 -1.6630
 1857SOL     OW 6413   6.963   6.733   7.361 -0.5162 -0.2616  0.2139
 1857SOL    HW1 6414   6.897   6.664   7.373 -0.3978 -0.8107 -1.8621
 1857SOL    HW2 6415   7.030   6.692   7.307 -0.2993  1.3790 -0.8439
 1858SOL     OW 6416   6.510   4.490   6.830 -0.3491  0.0412 -0.0856
 1858SOL    HW1 6417   6.542   4.522   6.915  0.0881 -0.5940 -0.0073
 1858SOL    HW2 6418   6.439   4.551   6.807  0.8964  1.4919 -0.2640
 1859SOL     OW 6419   7.725   3.374   1.830  0.1964  0.2016  0.3064
 1859SOL    HW1 6420   7.794   3.358   1.895  2.1071 -1.1928 -1.9137
 1859SOL    HW2 6421   7.764   3.436   1.768 -1.5830  1.5129  0.4225
 1860SOL     OW 6422   6.430   6.546   5.908 -0.2467 -0.1746 -0.3431
 1860SOL    HW1 6423   6.506   6.601   5.928  0.7898 -1.0365 -1.6951
 1860SOL    HW2 6424   6.468   6.466   5.872 -1.7775 -1.1220  0.0718
 1861SOL     OW 6425   4.606   5.655   4.743 -0.6748  0.1818 -0.1565
 1861SOL    HW1 6426   4.655   5.611   4.813 -0.8744  0.9784  0.5002
 1861SOL    HW2 6427   4.605   5.591   4.672  1.1354  0.0381 -0.1209
 1862SOL     OW 6428   7.497   6.943   7.188 -0.6944 -0.7233 -0.3487
 1862SOL    HW1 6429   7.485   6.870   7.248 -2.0280 -1.0574 -0.9911
 1862SOL    HW2 6430   7.556   7.003   7.234  1.0697 -2.5357 -0.1181
 1863SOL     OW 6431   6.880   6.106   0.759  0.1295 -0.3381  0.2209
 1863SOL    HW1 6432   6.905   6.198   0.751  0.9765 -0.5899 -0.1153
 1863SOL    HW2 6433   6.856   6.096   0.851  2.4286 -0.3369  0.8853
 1864SOL     OW 6434   7.967   5.991   5.995  0.2044  0.3820  0.4848
 1864SOL    HW1 6435   7.873   5.999   5.982  0.0669  0.4962  1.4987
 1864SOL    HW2 6436   7.999   5.951   5.914 -0.7643 -0.0277  0.2919
 1865SOL     OW 6437   1.338   6.310   4.353 -0.4367 -0.1064 -0.6373
 1865SOL    HW1 6438   1.290   6.242   4.307  0.4747 -1.4081  0.2765
 1865SOL    HW2 6439   1.386   6.357   4.284 -2.4516  0.8188 -1.4870
 1866SOL     OW 6440   1.897   3.465   4.548 -0.0904  0.0655  0.0294
 1866SOL    HW1 6441   1.859   3.495   4.465 -0.1678  0.7994  0.3185
 1866SOL    HW2 6442   1.852   3.383   4.567  0.0734 -0.2082 -0.7593
 1867SOL     OW 6443   1.577   5.101   4.939  0.0419  0.6307 -0.3221
 1867SOL    HW1 6444   1.525   5.179   4.957 -0.0040  0.5352 -0.0323
 1867SOL    HW2 6445   1.657   5.112   4.989 -0.8258 -0.4415  1.3930
 1868SOL     OW 6446   1.026   2.893   7.394  0.0498  0.7783 -0.3010
 1868SOL    HW1 6447   0.960   2.944   7.441 -1.4633 -0.5401 -0.9014
 1868SOL    HW2 6448   0.976   2.827   7.346  1.8249 -0.3980 -0.6455
 1869SOL     OW 6449   8.210   4.895   4.742 -0.3030 -0.6722 -0.1005
 1869SOL    HW1 6450   8.277   4.901   4.674  3.0176 -1.2437  2.8026
 1869SOL    HW2 6451   8.185   4.802   4.743 -0.6384 -0.5933 -0.7231
 1870SOL     OW 6452   7.221   0.831   0.712  0.0273  0.0626 -0.5370
 1870SOL    HW1 6453   7.196   0.776   0.787 -0.6567  1.5576  0.3726
 1870SOL    HW2 6454   7.150   0.895   0.704 -0.7390 -1.0066 -3.5068
 1871SOL     OW 6455   2.273   0.658   6.652 -0.6928  0.4213  0.0984
 1871SOL    HW1 6456   2.207   0.663   6.722 -0.7232 -0.4530  0.1452
 1871SOL    HW2 6457   2.354   0.688   6.693 -0.4343 -1.2596  0.8908
 1872SOL     OW 6458   2.534   2.446   7.732  0.2731 -0.5469 -0.6333
 1872SOL    HW1 6459   2.529   2.375   7.797 -0.3568 -1.0510 -1.2094
 1872SOL    HW2 6460   2.493   2.409   7.654  1.1085  0.0158 -1.3580
 1873SOL     OW 6461   2.704   5.075   3.847 -0.0633  0.1364 -0.5232
 1873SOL    HW1 6462   2.673   5.142   3.786 -2.5148 -0.6173 -0.1842
 1873SOL    HW2 6463   2.664   5.099   3.931  1.2994 -0.2199  0.2603
 1874SOL     OW 6464   7.318   6.059   5.046 -0.2197 -0.7653  0.0027
 1874SOL    HW1 6465   7.237   6.084   5.001 -0.4722 -1.7518 -0.1117
 1874SOL    HW2 6466   7.301   6.076   5.138  0.1530  0.8779 -0.1917
 1875SOL     OW 6467   1.609   1.205   3.297 -0.4255 -0.6356 -0.6169
 1875SOL    HW1 6468   1.630   1.288   3.338 -0.7459 -1.6800  1.8523
 1875SOL    HW2 6469   1.672   1.196   3.225  0.7645  0.9021  0.1971
 1876SOL     OW 6470   1.517   4.784   3.595  0.2291  0.2707  1.2319
 1876SOL    HW1 6471   1.457   4.841   3.546 -0.5962  1.9267  3.9036
 1876SOL    HW2 6472   1.556   4.842   3.660  1.4138 -1.7254  2.3950
 1877SOL     OW 6473   4.681   1.676   1.683  0.2215 -0.1552  0.0757
 1877SOL    HW1 6474   4.760   1.622   1.676  0.0443 -0.5340  0.8217
 1877SOL    HW2 6475   4.627   1.648   1.609  0.8589  0.2555 -0.5641
 1878SOL     OW 6476   2.467   6.233   3.323 -0.3070 -0.2934 -0.2559
 1878SOL    HW1 6477   2.506   6.170   3.263  1.4060  1.7171 -1.3450
 1878SOL    HW2 6478   2.506   6.212   3.408 -2.5104 -2.9511  0.2474
 1879SOL     OW 6479   1.004   5.210   2.347 -0.2480  0.1980 -0.0411
 1879SOL    HW1 6480   1.076   5.179   2.292 -1.3518 -0.9220 -0.8853
 1879SOL    HW2 6481   1.048   5.251   2.422  1.2668  0.4702 -1.0336
 1880SOL     OW 6482   4.574   2.157   5.758  0.1941 -0.2978 -0.2029
 1880SOL    HW1 6483   4.592   2.190   5.670  0.6531  0.1373  0.0502
 1880SOL    HW2 6484   4.480   2.173   5.771  0.2781  0.3181 -0.3305
 1881SOL     OW 6485   1.598   8.103   5.191 -0.0704  0.0983 -0.0657
 1881SOL    HW1 6486   1.618   8.197   5.195  0.0131  0.0470  1.2737
 1881SOL    HW2 6487   1.671   8.061   5.237 -0.6086 -0.5307  0.2362
 1882SOL     OW 6488   6.612   2.346   2.623  0.0018 -0.1231 -0.1476
 1882SOL    HW1 6489   6.668   2.273   2.649  0.0971  0.5323  1.6236
 1882SOL    HW2 6490   6.667   2.399   2.566  0.1955 -0.9904 -0.7982
 1883SOL     OW 6491   2.655   7.173   2.394 -0.0002  0.1140  0.0785
 1883SOL    HW1 6492   2.564   7.196   2.408 -0.2473  0.1667 -1.4212
 1883SOL    HW2 6493   2.702   7.256   2.398 -0.2309  0.2831 -0.5611
 1884SOL     OW 6494   6.926   0.851   2.959  0.4046 -0.2330 -0.2558
 1884SOL    HW1 6495   6.845   0.801   2.952  0.1532  0.1579 -0.1723
 1884SOL    HW2 6496   6.992   0.795   2.917  0.0652 -0.4847 -0.4657
 1885SOL     OW 6497   7.787   4.823   2.346 -0.4699  0.1328 -0.2019
 1885SOL    HW1 6498   7.871   4.837   2.303 -0.4983  1.4025  0.0988
 1885SOL    HW2 6499   7.802   4.749   2.405  0.2790  0.0089 -0.5382
 1886SOL     OW 6500   8.082   0.603   3.151 -0.5198 -0.7708  0.1886
 1886SOL    HW1 6501   8.149   0.662   3.116 -0.3653 -0.2660  1.2865
 1886SOL    HW2 6502   8.007   0.615   3.093 -0.3510  0.2164  0.1575
 1887SOL     OW 6503   0.376   3.576   7.926 -1.0880  0.1177 -0.0716
 1887SOL    HW1 6504   0.341   3.529   7.850  0.5662  1.9796 -2.1182
 1887SOL    HW2 6505   0.461   3.536   7.942 -0.5307  1.0656 -0.5679
 1888SOL     OW 6506   7.329   1.456   7.839 -0.0728 -0.1221 -0.0825
 1888SOL    HW1 6507   7.263   1.496   7.895 -0.4659 -3.0886  1.7767
 1888SOL    HW2 6508   7.278   1.406   7.775  0.3940 -0.1182 -0.4597
 1889SOL     OW 6509   0.886   1.510   1.312  0.0920 -0.6385  0.1537
 1889SOL    HW1 6510   0.883   1.477   1.401 -0.4039 -0.5357  0.1788
 1889SOL    HW2 6511   0.884   1.431   1.257 -1.1843 -0.6724  0.2109
 1890SOL     OW 6512   0.017   3.442   2.788  0.0112 -0.4857 -0.7786
 1890SOL    HW1 6513   0.002   3.403   2.702 -1.1426 -2.2455  0.1778
 1890SOL    HW2 6514   0.068   3.377   2.836 -1.4922 -0.6417  0.6825
 1891SOL     OW 6515   0.451   7.849   8.104 -0.5276  0.6898 -0.2904
 1891SOL    HW1 6516   0.498   7.835   8.186 -0.5419  1.8271 -0.0720
 1891SOL    HW2 6517   0.480   7.936   8.075 -1.1298  0.6339 -1.0754
 1892SOL     OW 6518   2.612   7.905   4.114  0.3857  0.2785  0.3512
 1892SOL    HW1 6519   2.567   7.954   4.183 -1.8847 -1.0021 -0.1278
 1892SOL    HW2 6520   2.599   7.957   4.035  1.2153  0.7114  0.4807
 1893SOL     OW 6521   8.188   0.079   7.300 -0.2124  0.1838 -0.3331
 1893SOL    HW1 6522   8.148   0.154   7.343 -0.6154 -0.0180 -0.3532
 1893SOL    HW2 6523   8.195   0.105   7.208  1.6298  1.0393 -0.0092
 1894SOL     OW 6524   6.061   6.280   0.943 -0.3475  0.6382  0.4808
 1894SOL    HW1 6525   5.974   6.246   0.965 -1.4200  1.6879 -1.8248
 1894SOL    HW2 6526   6.043   6.362   0.896  1.8784  0.6167 -0.4969
 1895SOL     OW 6527   1.558   5.027   7.045  0.0444 -1.0826 -0.0579
 1895SOL    HW1 6528   1.538   5.067   6.961  1.1036 -2.7175 -1.1555
 1895SOL    HW2 6529   1.477   5.035   7.096 -0.1271  1.3089 -0.6208
 1896SOL     OW 6530   0.873   0.241   5.169  0.6674 -0.6372  0.5966
 1896SOL    HW1 6531   0.811   0.258   5.239  1.3826  0.3039  1.0270
 1896SOL    HW2 6532   0.881   0.146   5.165 -1.1105 -0.8030  0.2372
 1897SOL     OW 6533   2.134   0.192   7.583  0.2141 -0.2751  0.2658
 1897SOL    HW1 6534   2.054   0.148   7.612  1.3761 -3.3325 -0.7392
 1897SOL    HW2 6535   2.125   0.197   7.488  0.5274  0.8979  0.2835
 1898SOL     OW 6536   2.866   6.782   0.254 -0.3350 -0.1307  0.0169
 1898SOL    HW1 6537   2.863   6.804   0.161  0.9195  1.3708  0.2932
 1898SOL    HW2 6538   2.807   6.707   0.262 -1.4277  0.4480 -1.7731
 1899SOL     OW 6539   6.895   4.798   3.865 -0.5447  0.4777  0.2611
 1899SOL    HW1 6540   6.848   4.721   3.833  2.3312 -2.5371  2.5533
 1899SOL    HW2 6541   6.838   4.834   3.933 -0.8420 -1.3374  1.0411
 1900SOL     OW 6542   7.086   7.379   3.633  0.1281 -0.1951  0.5135
 1900SOL    HW1 6543   7.037   7.436   3.693 -1.4467 -0.9518  0.0195
 1900SOL    HW2 6544   7.023   7.310   3.610  0.6779  0.0424 -1.9847
 1901SOL     OW 6545   0.262   3.122   6.026 -0.2563 -0.6934 -0.0087
 1901SOL    HW1 6546   0.294   3.067   6.097 -0.6560  0.7768  1.3664
 1901SOL    HW2 6547   0.194   3.069   5.983 -0.0906 -1.5620  0.7761
 1902SOL     OW 6548   6.371   6.151   0.043  0.0770 -0.4821  0.7121
 1902SOL    HW1 6549   6.288   6.184   0.007 -0.0625 -0.8211  0.7240
 1902SOL    HW2 6550   6.414   6.109  -0.031 -0.2449 -1.2474  0.9582
 1903SOL     OW 6551   7.987   3.128   1.427  0.5848  0.0448 -0.1880
 1903SOL    HW1 6552   7.939   3.085   1.497 -0.6575 -0.1117 -1.1135
 1903SOL    HW2 6553   7.923   3.184   1.384  1.3859  0.3311 -1.0484
 1904SOL     OW 6554   6.089   5.999   2.237 -0.2757  0.2654  0.1494
 1904SOL    HW1 6555   6.119   5.954   2.316 -1.1814  2.5135  1.8999
 1904SOL    HW2 6556   6.016   5.945   2.206 -0.1102 -0.5050  1.0196
 1905SOL     OW 6557   3.858   3.691   5.240 -0.3329  0.1722 -0.0583
 1905SOL    HW1 6558   3.867   3.726   5.151  0.6007  2.1667  0.7578
 1905SOL    HW2 6559   3.789   3.744   5.280 -0.6628 -0.6243  0.4547
 1906SOL     OW 6560   1.168   6.973   0.568  0.1615 -0.0041 -0.2748
 1906SOL    HW1 6561   1.099   7.032   0.598  0.2962  0.9519 -1.7180
 1906SOL    HW2 6562   1.181   6.911   0.640 -1.3414  0.5451  0.4972
 1907SOL     OW 6563   0.765   0.634   0.260  1.0780  0.0484  0.4218
 1907SOL    HW1 6564   0.750   0.644   0.354  0.9536  2.1426  0.2301
 1907SOL    HW2 6565   0.843   0.686   0.242 -0.2209  1.6450 -0.9558
 1908SOL     OW 6566   5.168   6.055   8.034 -0.7410 -0.2735  0.0957
 1908SOL    HW1 6567   5.172   5.983   7.970 -1.5777  1.7710 -2.4439
 1908SOL    HW2 6568   5.075   6.070   8.048 -0.5819  0.4081  0.4703
 1909SOL     OW 6569   2.077   8.143   2.243  0.3288  0.4492 -0.2264
 1909SOL    HW1 6570   2.084   8.225   2.193  1.4414  0.8567  0.5650
 1909SOL    HW2 6571   2.156   8.141   2.297 -1.5779  0.8990  2.8449
 1910SOL     OW 6572   6.205   5.375   0.658  0.3304  0.5718  0.1674
 1910SOL    HW1 6573   6.132   5.315   0.641  0.7225  0.5019 -1.4283
 1910SOL    HW2 6574   6.263   5.326   0.717  0.0724 -0.1561 -0.1776
 1911SOL     OW 6575   7.907   7.315   5.356 -0.1456  0.9555 -0.0097
 1911SOL    HW1 6576   7.863   7.373   5.294 -1.1866 -0.7875 -0.9910
 1911SOL    HW2 6577   7.978   7.368   5.392 -2.4483  3.6418  1.0053
 1912SOL     OW 6578   1.676   0.971   5.018  0.0569  0.1246 -0.4264
 1912SOL    HW1 6579   1.708   1.053   5.055  0.8524 -1.4326  2.6095
 1912SOL    HW2 6580   1.738   0.951   4.947  1.7062  0.6266  0.8267
 1913SOL     OW 6581   0.848   4.868   2.979 -0.4737 -0.2216  0.9927
 1913SOL    HW1 6582   0.929   4.895   2.935 -0.3772  0.4655  1.5748
 1913SOL    HW2 6583   0.835   4.934   3.047 -1.1294 -0.7455  1.3818
 1914SOL     OW 6584   3.570   7.780   5.048 -0.5396 -0.3627  0.7904
 1914SOL    HW1 6585   3.537   7.693   5.072  1.4818 -1.3757  0.0621
 1914SOL    HW2 6586   3.639   7.798   5.112 -0.4675  0.4124  0.5039
 1915SOL     OW 6587   2.800   3.173   2.716 -0.3625 -0.8712 -0.4031
 1915SOL    HW1 6588   2.807   3.135   2.803  0.7295  0.7921  0.2830
 1915SOL    HW2 6589   2.756   3.257   2.729  0.7820 -0.1068 -1.2670
 1916SOL     OW 6590   6.136   3.795   1.502  0.1732  0.1904  0.5103
 1916SOL    HW1 6591   6.137   3.714   1.451  0.5770  0.2433  0.4353
 1916SOL    HW2 6592   6.167   3.862   1.441 -0.0474  0.3815  0.6082
 1917SOL     OW 6593   3.032   2.783   2.621  0.3046 -0.3693 -0.1746
 1917SOL    HW1 6594   3.056   2.791   2.714 -1.6509  0.2894  0.3230
 1917SOL    HW2 6595   2.937   2.775   2.622  0.0342  1.6944 -2.2385
 1918SOL     OW 6596   5.511   0.776   5.485  0.0238  0.1026  0.2024
 1918SOL    HW1 6597   5.466   0.819   5.558 -1.5952  0.8176 -1.1369
 1918SOL    HW2 6598   5.474   0.688   5.482 -0.5710  0.3583 -0.2654
 1919SOL     OW 6599   8.167   2.244   8.042  0.1410 -0.1534 -0.0232
 1919SOL    HW1 6600   8.123   2.256   7.958 -3.4647 -2.2553  1.3329
 1919SOL    HW2 6601   8.260   2.237   8.020 -0.6069 -0.2701 -3.7703
 1920SOL     OW 6602   5.381   2.851   7.992  0.3146 -0.4185  0.2468
 1920SOL    HW1 6603   5.377   2.771   7.940 -1.7837 -0.7112  0.7873
 1920SOL    HW2 6604   5.474   2.875   7.991  0.8598 -2.3573 -0.6624
 1921SOL     OW 6605   2.969   4.742   6.457 -0.0550  0.3657  0.1922
 1921SOL    HW1 6606   2.888   4.765   6.504  0.0228  1.4282 -0.1794
 1921SOL    HW2 6607   2.992   4.821   6.408  0.5837 -0.3090 -0.6136
 1922SOL     OW 6608   1.806   2.010   1.150 -1.1568  0.1961 -0.5876
 1922SOL    HW1 6609   1.843   2.001   1.062  0.6416  0.0964  0.1419
 1922SOL    HW2 6610   1.818   2.102   1.173  0.6859 -0.2746  0.4921
 1923SOL     OW 6611   6.959   6.845   4.649 -0.2420 -0.1747 -0.2654
 1923SOL    HW1 6612   7.002   6.792   4.582  1.6538 -0.2015  0.9171
 1923SOL    HW2 6613   6.946   6.930   4.607 -1.0485 -0.7893 -1.3401
 1924SOL     OW 6614   3.061   4.128   3.419 -0.3156  0.2838  0.1699
 1924SOL    HW1 6615   3.086   4.036   3.405  1.2474  0.7223 -0.0426
 1924SOL    HW2 6616   2.974   4.122   3.459 -1.0421 -1.2383 -1.5005
 1925SOL     OW 6617   4.167   6.905   7.331 -0.2288 -0.2724  0.6475
 1925SOL    HW1 6618   4.196   6.823   7.371 -2.6172 -1.0833  0.8711
 1925SOL    HW2 6619   4.229   6.920   7.259  1.2609 -1.3385  1.6454
 1926SOL     OW 6620   4.724   5.998   7.043  0.8351  0.1164  0.1813
 1926SOL    HW1 6621   4.643   5.957   7.073  1.2147 -1.5054 -0.8545
 1926SOL    HW2 6622   4.770   6.022   7.124  0.1001 -0.5593  0.8165
 1927SOL     OW 6623   6.404   7.970   7.529 -0.6157  0.1561 -0.6870
 1927SOL    HW1 6624   6.443   7.895   7.485  0.9277  0.8677 -0.5891
 1927SOL    HW2 6625   6.395   8.036   7.460 -1.7877 -0.0179 -0.7309
 1928SOL     OW 6626   7.569   6.783   4.121 -0.2946 -0.0911  0.0434
 1928SOL    HW1 6627   7.613   6.858   4.161 -1.0305  2.1482 -2.9636
 1928SOL    HW2 6628   7.635   6.715   4.117  1.3763  1.4559  0.1443
 1929SOL     OW 6629   5.065   4.937   5.004  0.3193  0.0171  0.0964
 1929SOL    HW1 6630   4.979   4.979   4.993 -0.6585 -1.4680  1.6618
 1929SOL    HW2 6631   5.082   4.897   4.919  0.0648  1.3119 -0.6053
 1930SOL     OW 6632   4.772   6.521   5.670  0.3846 -1.3013  0.4194
 1930SOL    HW1 6633   4.785   6.454   5.603  1.2818 -0.2616 -0.4754
 1930SOL    HW2 6634   4.778   6.604   5.623  0.4910 -0.5598  1.6956
 1931SOL     OW 6635   7.434   4.007   6.482 -0.7178 -0.1611 -0.0627
 1931SOL    HW1 6636   7.481   4.049   6.410 -1.8018 -0.3573 -0.8984
 1931SOL    HW2 6637   7.481   3.924   6.496 -0.3528 -0.0093 -0.3680
 1932SOL     OW 6638   4.918   5.151   0.398 -0.2346  0.4775 -0.7657
 1932SOL    HW1 6639   4.935   5.102   0.318  0.7105  1.9452 -1.5085
 1932SOL    HW2 6640   4.929   5.086   0.468  1.3651 -0.2987 -1.6790
 1933SOL     OW 6641   2.158   5.480   0.932  0.0963  0.1168  0.0906
 1933SOL    HW1 6642   2.219   5.465   0.860  0.5421 -1.2559  0.7345
 1933SOL    HW2 6643   2.210   5.468   1.012 -0.7484  0.0404  0.6475
 1934SOL     OW 6644   8.050   1.271   1.214  0.1851  0.5473  0.1338
 1934SOL    HW1 6645   8.124   1.280   1.274  0.7477 -2.4026  0.0450
 1934SOL    HW2 6646   8.078   1.202   1.152 -2.1592  0.2068 -0.6311
 1935SOL     OW 6647   7.643   4.958   3.405  0.1362  0.3591 -0.7345
 1935SOL    HW1 6648   7.591   4.983   3.481  0.6205  0.2764 -0.3723
 1935SOL    HW2 6649   7.664   4.866   3.420 -0.2200  0.1910 -1.2370
 1936SOL     OW 6650   3.789   7.715   0.637  0.4706  0.1834 -0.5441
 1936SOL    HW1 6651   3.805   7.772   0.712 -1.2728 -1.1084  0.9265
 1936SOL    HW2 6652   3.693   7.714   0.628  0.3358 -3.0477  0.0598
 1937SOL     OW 6653   0.500   3.849   1.875 -0.2967 -0.4280 -0.1887
 1937SOL    HW1 6654   0.405   3.834   1.881 -1.0473  3.0897 -0.4786
 1937SOL    HW2 6655   0.529   3.852   1.966 -0.7138 -0.4700 -0.0488
 1938SOL     OW 6656   6.907   2.054   4.041  0.4148  0.4008  0.1552
 1938SOL    HW1 6657   6.959   2.134   4.032 -1.4035  1.6122 -0.0438
 1938SOL    HW2 6658   6.836   2.065   3.978  0.4521 -1.6707 -0.3032
 1939SOL     OW 6659   2.268   3.400   8.155 -0.2146 -0.6696 -0.2820
 1939SOL    HW1 6660   2.209   3.406   8.080 -0.9542  1.5401  0.3974
 1939SOL    HW2 6661   2.290   3.491   8.176  2.2739 -1.3488  0.4393
 1940SOL     OW 6662   3.344   2.781   7.015 -0.3114 -0.2663  0.9048
 1940SOL    HW1 6663   3.380   2.851   6.960  0.9526 -1.1766  0.5303
 1940SOL    HW2 6664   3.383   2.701   6.981 -0.6636 -1.0213  2.1918
 1941SOL     OW 6665   2.631   2.315   6.007  0.4077 -0.0731 -0.1891
 1941SOL    HW1 6666   2.723   2.289   6.009  0.2369 -0.6556  0.1652
 1941SOL    HW2 6667   2.595   2.271   5.929  0.2074 -0.6075  0.2022
 1942SOL     OW 6668   3.132   2.333   1.726  0.1885 -0.1595 -0.3342
 1942SOL    HW1 6669   3.105   2.323   1.817  1.4938  0.0748  0.0989
 1942SOL    HW2 6670   3.098   2.419   1.700 -0.9091 -0.5856 -0.3460
 1943SOL     OW 6671   7.104   1.077   5.424  0.4253  0.4368  0.3469
 1943SOL    HW1 6672   7.063   1.152   5.381 -0.8704 -0.7040 -0.5008
 1943SOL    HW2 6673   7.039   1.047   5.487  1.0801  0.2428  0.9392
 1944SOL     OW 6674   8.080   4.182   0.299 -0.4522  0.4895 -1.0256
 1944SOL    HW1 6675   8.101   4.256   0.357  1.3700  0.9936 -2.2161
 1944SOL    HW2 6676   7.998   4.148   0.332  0.5208  0.7015  1.9138
 1945SOL     OW 6677   3.403   7.623   5.690 -0.1394 -0.7953  0.3586
 1945SOL    HW1 6678   3.345   7.664   5.625 -1.6030 -2.2388  0.6789
 1945SOL    HW2 6679   3.410   7.532   5.662  1.4985 -0.8049  0.7039
 1946SOL     OW 6680   4.033   5.074   7.011  0.3098  0.3181 -0.5274
 1946SOL    HW1 6681   4.008   5.001   6.954  1.2185 -0.7836  0.4424
 1946SOL    HW2 6682   4.128   5.078   7.004  0.4041  0.3501  0.6743
 1947SOL     OW 6683   6.778   0.063   3.705  0.0327  0.6180 -0.0498
 1947SOL    HW1 6684   6.696   0.112   3.707  0.1388  0.7702  0.7752
 1947SOL    HW2 6685   6.767  -0.004   3.773  0.3241  0.1992 -0.4119
 1948SOL     OW 6686   6.045   4.541   8.094  0.0000  0.6399  0.0613
 1948SOL    HW1 6687   6.099   4.606   8.138 -1.4768  1.2002  1.1102
 1948SOL    HW2 6688   5.960   4.548   8.136 -0.3492 -1.6263 -0.1540
 1949SOL     OW 6689   4.136   3.733   3.979  0.2349  0.0141  0.4251
 1949SOL    HW1 6690   4.180   3.727   4.064  0.0518  0.5389  0.5587
 1949SOL    HW2 6691   4.113   3.642   3.957  1.4879 -0.2960  0.2933
 1950SOL     OW 6692   6.677   0.862   3.253  0.1233 -0.0111  0.3345
 1950SOL    HW1 6693   6.766   0.828   3.260  0.2611  0.2362 -0.1451
 1950SOL    HW2 6694   6.687   0.957   3.267  0.4740  0.5888 -3.1332
 1951SOL     OW 6695   0.220   7.147   6.884 -0.2359  0.4265 -0.0494
 1951SOL    HW1 6696   0.234   7.208   6.812  4.3223 -0.1250  0.0720
 1951SOL    HW2 6697   0.206   7.062   6.841 -0.6821  0.5759 -0.2127
 1952SOL     OW 6698   0.966   4.294   3.147  0.1387 -0.0240 -0.4790
 1952SOL    HW1 6699   0.987   4.213   3.193 -0.5180 -0.6055 -1.1694
 1952SOL    HW2 6700   1.046   4.346   3.152  1.1365 -1.3909 -1.4214
 1953SOL     OW 6701   2.586   2.908   6.123  0.2468  0.3524  0.0289
 1953SOL    HW1 6702   2.522   2.976   6.103 -1.1159 -0.9565 -0.2807
 1953SOL    HW2 6703   2.665   2.955   6.147 -0.4980  2.0263 -0.6731
 1954SOL     OW 6704   3.964   0.014   5.749  0.4029  0.4396 -0.6321
 1954SOL    HW1 6705   4.054  -0.017   5.739  0.6698  0.3577  1.5613
 1954SOL    HW2 6706   3.952   0.077   5.678  2.4823  1.0799 -0.4783
 1955SOL     OW 6707   2.787   0.910   3.848 -0.3832 -0.0137  0.0041
 1955SOL    HW1 6708   2.702   0.944   3.820 -0.6913  0.5364  1.5098
 1955SOL    HW2 6709   2.837   0.988   3.872  0.3378 -0.3788 -0.2558
 1956SOL     OW 6710   1.350   3.614   1.534  0.1036 -0.2374  0.4783
 1956SOL    HW1 6711   1.419   3.652   1.588  0.4001  0.0531 -0.0999
 1956SOL    HW2 6712   1.324   3.535   1.582  0.5406 -0.1248  0.9155
 1957SOL     OW 6713   3.263   0.834   1.369  0.4008  0.6413  0.4704
 1957SOL    HW1 6714   3.334   0.812   1.429 -0.4214  0.9124  1.5779
 1957SOL    HW2 6715   3.186   0.792   1.407 -0.0974  0.5863 -0.5597
 1958SOL     OW 6716   0.277   7.737   5.400 -0.2104 -0.0042 -0.2935
 1958SOL    HW1 6717   0.193   7.693   5.411  0.0968 -0.3715  0.6552
 1958SOL    HW2 6718   0.258   7.829   5.418 -0.4403 -0.0606 -0.2464
 1959SOL     OW 6719   3.290   6.289   3.812  0.8045 -0.2972 -0.2149
 1959SOL    HW1 6720   3.199   6.269   3.787  0.9005  0.7854 -1.4953
 1959SOL    HW2 6721   3.295   6.261   3.904 -0.8106 -0.4281 -0.1266
 1960SOL     OW 6722   6.314   7.254   0.734  0.5944 -0.3000 -0.5779
 1960SOL    HW1 6723   6.329   7.159   0.736 -2.0146 -0.8101  1.8054
 1960SOL    HW2 6724   6.356   7.286   0.814  0.6942  0.4125 -0.9116
 1961SOL     OW 6725   7.041   4.876   2.468  0.2466 -0.4580  0.0359
 1961SOL    HW1 6726   7.012   4.810   2.531  1.2645 -0.8297  0.1311
 1961SOL    HW2 6727   6.964   4.893   2.414  0.3461 -2.9288 -1.0414
 1962SOL     OW 6728   2.464   2.027   2.901 -0.0766 -0.2981  0.3172
 1962SOL    HW1 6729   2.393   2.009   2.962  0.0854  0.0548  0.6156
 1962SOL    HW2 6730   2.493   2.115   2.923  0.5389 -0.4861  0.2906
 1963SOL     OW 6731   6.388   7.351   0.407  0.0583 -0.7518  0.5556
 1963SOL    HW1 6732   6.377   7.439   0.442 -1.2374 -0.1633 -1.1494
 1963SOL    HW2 6733   6.453   7.360   0.338  0.1538 -1.1890  0.5860
 1964SOL     OW 6734   0.740   7.976   5.964 -0.4153  0.7632 -0.5565
 1964SOL    HW1 6735   0.835   7.982   5.960 -0.5277  2.7122 -1.9394
 1964SOL    HW2 6736   0.717   7.908   5.901  0.0198  0.8060 -0.7593
 1965SOL     OW 6737   7.602   5.359   8.109  0.4682 -0.0467  0.5919
 1965SOL    HW1 6738   7.669   5.413   8.152  0.5855 -0.9698  1.5979
 1965SOL    HW2 6739   7.537   5.343   8.178 -0.9072  0.9634 -0.4073
 1966SOL     OW 6740   5.335   2.603   3.651 -0.6541 -0.2074 -0.1507
 1966SOL    HW1 6741   5.339   2.573   3.741  0.2428 -0.0772 -0.1300
 1966SOL    HW2 6742   5.421   2.645   3.636 -1.0596  0.4151 -0.8306
 1967SOL     OW 6743   7.059   5.185   8.078 -0.5677 -0.2218 -0.1923
 1967SOL    HW1 6744   7.132   5.246   8.094 -0.3537 -0.2518 -1.0073
 1967SOL    HW2 6745   7.085   5.105   8.124 -0.4367  0.0043  0.1381
 1968SOL     OW 6746   7.079   6.143   4.817 -0.6881  0.2374  0.4131
 1968SOL    HW1 6747   7.109   6.234   4.823 -1.2064  0.3625  1.6316
 1968SOL    HW2 6748   7.015   6.135   4.889  0.0043 -1.3367  0.8992
 1969SOL     OW 6749   2.634   5.589   5.210 -0.1937  0.3270 -0.3299
 1969SOL    HW1 6750   2.616   5.539   5.130  0.7991 -0.6167  0.0197
 1969SOL    HW2 6751   2.606   5.678   5.189 -0.8285 -0.1052 -1.3990
 1970SOL     OW 6752   3.794   1.325   2.163  0.2827 -0.1314  0.5440
 1970SOL    HW1 6753   3.831   1.398   2.212  0.8016  0.6714 -0.9710
 1970SOL    HW2 6754   3.717   1.299   2.213  1.6091 -0.3834  2.5850
 1971SOL     OW 6755   3.831   4.201   2.313  0.1055 -0.1525  0.2590
 1971SOL    HW1 6756   3.775   4.269   2.277 -1.2569 -0.5688  1.5160
 1971SOL    HW2 6757   3.877   4.243   2.385  2.3754  0.5081 -1.4325
 1972SOL     OW 6758   5.287   7.405   3.758  0.2180  0.7384 -0.5607
 1972SOL    HW1 6759   5.379   7.386   3.738  0.9189  1.4316  1.6895
 1972SOL    HW2 6760   5.290   7.491   3.801 -1.0369 -0.5621  2.3792
 1973SOL     OW 6761   1.001   3.953   7.661  0.7159 -0.2523 -0.1031
 1973SOL    HW1 6762   0.991   3.947   7.756  0.1888 -1.3378 -0.2038
 1973SOL    HW2 6763   0.980   3.865   7.629  0.7015  0.1404 -1.2432
 1974SOL     OW 6764   2.354   1.147   7.189  0.1591  0.2118 -0.2028
 1974SOL    HW1 6765   2.403   1.195   7.256  0.2715 -0.9751  0.6114
 1974SOL    HW2 6766   2.386   1.181   7.106 -1.1072  2.8598  0.2961
 1975SOL     OW 6767   7.371   2.810   4.448 -0.4271  0.2360  0.6326
 1975SOL    HW1 6768   7.385   2.822   4.354  0.6576  0.2593  0.7869
 1975SOL    HW2 6769   7.284   2.848   4.464  0.5586  2.9126  0.1415
 1976SOL     OW 6770   1.830   7.659   3.851  0.5298  0.1398 -0.6065
 1976SOL    HW1 6771   1.750   7.620   3.883  1.8548 -1.0183  1.5105
 1976SOL    HW2 6772   1.811   7.682   3.760 -1.8634 -0.9232 -0.4394
 1977SOL     OW 6773   4.414   1.766   0.621 -0.0904  0.2165  0.2778
 1977SOL    HW1 6774   4.362   1.714   0.559  0.2200  0.4389 -0.1757
 1977SOL    HW2 6775   4.457   1.831   0.566 -2.0508  2.2872  1.0591
 1978SOL     OW 6776   3.467   1.813   6.319  0.1649  0.2076 -0.5997
 1978SOL    HW1 6777   3.454   1.722   6.347  0.8493 -0.2560 -1.7208
 1978SOL    HW2 6778   3.404   1.825   6.247 -0.4309  0.8666  0.0072
 1979SOL     OW 6779   5.836   3.867   6.734  0.8780 -0.2678 -0.2112
 1979SOL    HW1 6780   5.778   3.791   6.744  0.9105 -0.2013  0.5562
 1979SOL    HW2 6781   5.780   3.936   6.699  0.6844 -0.4506 -0.2626
 1980SOL     OW 6782   1.695   3.267   4.586 -0.6222  0.1908 -0.0496
 1980SOL    HW1 6783   1.737   3.232   4.665  0.0776  0.8087 -0.1359
 1980SOL    HW2 6784   1.656   3.190   4.543  2.3524 -0.8694 -1.1425
 1981SOL     OW 6785   5.479   6.837   4.133 -0.1385  0.4555  0.7438
 1981SOL    HW1 6786   5.394   6.867   4.165 -0.3719 -1.4366  2.0272
 1981SOL    HW2 6787   5.532   6.827   4.212 -0.0039 -2.1536  0.4129
 1982SOL     OW 6788   6.492   6.482   0.830  0.2751 -0.0205 -0.9570
 1982SOL    HW1 6789   6.521   6.572   0.847  1.6274 -0.6445  0.2183
 1982SOL    HW2 6790   6.511   6.468   0.738 -0.7814  1.1788 -1.3850
 1983SOL     OW 6791   1.811   7.422   3.639 -0.0738 -0.3423  0.1867
 1983SOL    HW1 6792   1.770   7.411   3.725  2.4183 -0.0512  1.4977
 1983SOL    HW2 6793   1.834   7.333   3.612 -1.4952 -0.5132 -0.5816
 1984SOL     OW 6794   8.096   1.368   3.840  0.4679  0.2388  0.1306
 1984SOL    HW1 6795   8.159   1.346   3.771  0.0942  0.7874 -0.3999
 1984SOL    HW2 6796   8.012   1.338   3.806  0.2793  0.5181  0.3401
 1985SOL     OW 6797   1.710   7.981   1.291 -0.4240  0.7288  0.0460
 1985SOL    HW1 6798   1.714   7.981   1.196  0.9666  1.4478  0.0752
 1985SOL    HW2 6799   1.627   8.024   1.312 -0.4948  1.0280 -0.8351
 1986SOL     OW 6800   2.115   0.355   7.152  0.3212 -0.5113 -0.0128
 1986SOL    HW1 6801   2.185   0.298   7.121  2.0688  0.9723  1.0036
 1986SOL    HW2 6802   2.072   0.385   7.072  0.3065 -2.0701 -0.6242
 1987SOL     OW 6803   5.477   8.049   6.115 -0.0394 -0.5229  0.3357
 1987SOL    HW1 6804   5.556   7.995   6.111  0.1606 -0.1429 -2.3833
 1987SOL    HW2 6805   5.500   8.129   6.067 -1.8801 -0.1283  0.0392
 1988SOL     OW 6806   7.532   3.278   7.815  0.5934  0.2668  0.6349
 1988SOL    HW1 6807   7.518   3.307   7.905 -3.4226  2.5938 -0.4832
 1988SOL    HW2 6808   7.444   3.270   7.778  2.0217 -1.2873 -2.9438
 1989SOL     OW 6809   5.556   7.170   4.950  0.1796 -0.4443  0.1349
 1989SOL    HW1 6810   5.642   7.163   4.990 -0.0260 -0.4342  0.5899
 1989SOL    HW2 6811   5.554   7.257   4.911 -0.4816  0.5115  2.1969
 1990SOL     OW 6812   3.042   6.787   7.312  0.3886 -0.1488 -0.3676
 1990SOL    HW1 6813   3.030   6.709   7.259 -1.2981 -0.0115 -0.2364
 1990SOL    HW2 6814   2.959   6.799   7.357  0.2747  2.2165 -1.0571
 1991SOL     OW 6815   4.203   4.679   6.950  0.2516  0.0644 -0.0735
 1991SOL    HW1 6816   4.242   4.606   6.998 -0.4318 -0.4941 -0.3692
 1991SOL    HW2 6817   4.218   4.755   7.007  0.3928 -0.4106  0.5272
 1992SOL     OW 6818   6.690   4.204   5.346  0.6365 -0.1997  0.4385
 1992SOL    HW1 6819   6.660   4.292   5.326  1.1597 -0.3573 -1.2099
 1992SOL    HW2 6820   6.777   4.198   5.307  0.7982 -1.3037  0.9070
 1993SOL     OW 6821   4.233   4.354   4.865 -0.8121 -0.2340  0.1585
 1993SOL    HW1 6822   4.160   4.312   4.820 -1.4523  0.5516  0.4409
 1993SOL    HW2 6823   4.303   4.290   4.862 -1.6211 -1.1374  0.1762
 1994SOL     OW 6824   1.493   6.822   7.527  0.0545  0.3912 -0.0040
 1994SOL    HW1 6825   1.511   6.915   7.542  1.3919  0.1932 -0.2338
 1994SOL    HW2 6826   1.561   6.776   7.576 -1.0789 -0.5115  0.7804
 1995SOL     OW 6827   0.459   0.637   7.345  0.1183  0.4574 -0.0772
 1995SOL    HW1 6828   0.523   0.588   7.395 -0.5792  1.6090  2.0475
 1995SOL    HW2 6829   0.495   0.725   7.338  1.3026 -0.1212 -3.7478
 1996SOL     OW 6830   5.610   7.769   4.516 -0.4892  0.2028 -0.7535
 1996SOL    HW1 6831   5.661   7.699   4.556  0.8235  0.7532 -1.4271
 1996SOL    HW2 6832   5.610   7.839   4.582 -1.5311 -0.2774 -0.2123
 1997SOL     OW 6833   6.584   3.646   2.899  0.6815 -0.4169  0.0692
 1997SOL    HW1 6834   6.548   3.625   2.985 -2.1376 -0.7712 -1.0861
 1997SOL    HW2 6835   6.531   3.595   2.837  2.2810  0.1887 -1.9386
 1998SOL     OW 6836   1.896   0.527   2.683  0.5816 -0.1190  0.2781
 1998SOL    HW1 6837   1.958   0.549   2.752 -1.8121 -0.4838  2.6965
 1998SOL    HW2 6838   1.918   0.437   2.659  1.2234 -0.1105  0.8026
 1999SOL     OW 6839   4.673   0.030   6.410 -0.5110 -0.0895 -0.3988
 1999SOL    HW1 6840   4.600   0.054   6.353 -0.3999  1.2364 -0.0232
 1999SOL    HW2 6841   4.633  -0.017   6.483 -0.7328 -1.1572 -1.1789
 2000SOL     OW 6842   1.085   4.942   7.733 -0.1161  0.6869  0.6782
 2000SOL    HW1 6843   0.998   4.978   7.718 -0.7388 -0.0088  2.3799
 2000SOL    HW2 6844   1.071   4.872   7.797  1.3620 -1.0197 -0.7327
 2001SOL     OW 6845   8.204   2.104   6.959 -0.0771  0.6137 -0.0538
 2001SOL    HW1 6846   8.273   2.130   6.898 -0.5353  1.3542 -0.2578
 2001SOL    HW2 6847   8.207   2.170   7.028 -2.3988  2.3315 -1.4454
 2002SOL     OW 6848   6.154   2.780   8.159 -0.3767  0.2498  0.3937
 2002SOL    HW1 6849   6.185   2.761   8.071 -3.3774 -1.6617 -0.4169
 2002SOL    HW2 6850   6.229   2.766   8.216  1.6095  1.4179 -1.7975
 2003SOL     OW 6851   2.023   5.266   3.337  0.1211 -0.5304  0.4472
 2003SOL    HW1 6852   1.967   5.320   3.393 -1.7432  0.7497 -2.4570
 2003SOL    HW2 6853   1.964   5.202   3.298  0.5551  0.8261 -2.6826
 2004SOL     OW 6854   1.940   4.100   1.204  0.0574 -0.1676  0.0554
 2004SOL    HW1 6855   1.918   4.044   1.130  2.4372  0.7458 -1.4641
 2004SOL    HW2 6856   1.957   4.039   1.276 -1.5750 -1.1131 -0.3217
 2005SOL     OW 6857   5.070   7.167   4.254  0.4883 -0.1119 -0.6470
 2005SOL    HW1 6858   5.146   7.198   4.302 -0.0519  2.7730 -1.4819
 2005SOL    HW2 6859   4.995   7.196   4.306 -0.0781 -1.1288 -0.8671
 2006SOL     OW 6860   4.134   4.203   3.380 -0.4308  0.2138 -0.2356
 2006SOL    HW1 6861   4.044   4.190   3.412  0.0493 -1.4092  0.5564
 2006SOL    HW2 6862   4.171   4.269   3.438 -0.9207  0.4480 -0.1855
 2007SOL     OW 6863   1.095   0.215   5.996 -0.1604  0.2031 -0.4402
 2007SOL    HW1 6864   1.084   0.180   5.907 -1.6942  1.3252 -0.7299
 2007SOL    HW2 6865   1.050   0.152   6.052  0.3632 -0.2345 -0.4993
 2008SOL     OW 6866   1.308   1.746   2.975  0.2291 -0.0066 -0.1715
 2008SOL    HW1 6867   1.299   1.688   2.899  0.4346  1.5300 -1.4428
 2008SOL    HW2 6868   1.220   1.781   2.989  0.3729  0.4263 -0.3210
 2009SOL     OW 6869   5.472   5.680   3.631  0.0958 -0.0292  0.2601
 2009SOL    HW1 6870   5.555   5.633   3.632 -0.3101 -0.7659 -0.4226
 2009SOL    HW2 6871   5.486   5.751   3.568  0.3042  0.0419  0.3838
 2010SOL     OW 6872   7.174   2.579   1.119 -1.0217  0.2761 -0.3030
 2010SOL    HW1 6873   7.197   2.540   1.203 -1.9478  0.8028  0.2061
 2010SOL    HW2 6874   7.101   2.637   1.138 -2.8268 -1.3321 -1.8132
 2011SOL     OW 6875   6.061   1.943   0.333 -0.4634 -0.5925  0.4213
 2011SOL    HW1 6876   6.113   2.010   0.288  0.9175 -2.2085 -0.5339
 2011SOL    HW2 6877   5.970   1.972   0.323  0.0635  0.9870 -0.1653
 2012SOL     OW 6878   2.825   1.580   3.361  0.6012 -0.1521 -0.2584
 2012SOL    HW1 6879   2.816   1.623   3.446  0.9745  0.8969 -0.7267
 2012SOL    HW2 6880   2.906   1.617   3.324  1.8816 -2.4942  0.0019
 2013SOL     OW 6881   3.908   3.054   6.785  0.5582 -0.7051 -0.4999
 2013SOL    HW1 6882   3.919   2.989   6.716 -1.4323 -0.9344 -0.6602
 2013SOL    HW2 6883   3.870   3.006   6.858  0.7148 -0.0663  0.0074
 2014SOL     OW 6884   2.630   3.035   5.783 -0.1082  0.1589 -0.3570
 2014SOL    HW1 6885   2.587   2.959   5.744 -0.3559  0.3657 -0.4871
 2014SOL    HW2 6886   2.698   3.059   5.719  1.3357 -1.1711  0.5833
 2015SOL     OW 6887   0.346   7.822   0.390  0.3451 -0.4435  0.0680
 2015SOL    HW1 6888   0.289   7.895   0.415  0.7628 -0.4265  0.9840
 2015SOL    HW2 6889   0.433   7.848   0.418  0.5938 -1.0421 -0.1318
 2016SOL     OW 6890   5.842   8.096   7.645  0.6514 -0.4587  0.4092
 2016SOL    HW1 6891   5.875   8.075   7.732 -1.2009  2.4771  1.9808
 2016SOL    HW2 6892   5.921   8.115   7.594  1.7133 -0.4499  1.9641
 2017SOL     OW 6893   5.679   2.590   6.278 -0.2083 -0.0265 -0.0020
 2017SOL    HW1 6894   5.584   2.579   6.284  0.0628 -1.7376  2.3622
 2017SOL    HW2 6895   5.691   2.680   6.247 -2.5637  0.0132 -1.0055
 2018SOL     OW 6896   6.071   4.983   3.546  0.1513 -0.1002  0.3118
 2018SOL    HW1 6897   5.981   4.998   3.575  0.2889 -1.5822  1.6292
 2018SOL    HW2 6898   6.079   5.035   3.466 -2.2472 -0.8157 -0.4884
 2019SOL     OW 6899   0.138   5.963   6.913  0.0495 -0.5728 -0.2373
 2019SOL    HW1 6900   0.091   5.922   6.841 -2.3471 -0.0906  0.9435
 2019SOL    HW2 6901   0.098   5.925   6.992  1.9909 -0.4617  0.8526
 2020SOL     OW 6902   6.642   7.657   6.764 -0.5067  0.3216  0.1232
 2020SOL    HW1 6903   6.600   7.572   6.781 -0.1403  0.4597  1.9840
 2020SOL    HW2 6904   6.723   7.635   6.718  0.0641 -0.4703  1.4365
 2021SOL     OW 6905   8.175   6.764   1.207 -0.4122  0.5865  0.3129
 2021SOL    HW1 6906   8.092   6.811   1.204 -0.4804  0.4239 -0.9922
 2021SOL    HW2 6907   8.181   6.720   1.122 -0.7947 -2.5160  1.7613
 2022SOL     OW 6908   5.302   3.333   5.447  0.1410  0.0713  0.3062
 2022SOL    HW1 6909   5.384   3.298   5.483 -0.7081 -1.8024  0.5545
 2022SOL    HW2 6910   5.255   3.255   5.417 -1.1451  1.2024 -0.7218
 2023SOL     OW 6911   4.421   3.397   7.952  0.0691 -0.6465  0.1131
 2023SOL    HW1 6912   4.506   3.431   7.981  0.8396 -0.4739 -2.1743
 2023SOL    HW2 6913   4.436   3.303   7.940  0.0857 -0.5340 -0.7655
 2024SOL     OW 6914   5.266   3.827   4.497  0.0597  0.3134  0.7236
 2024SOL    HW1 6915   5.339   3.788   4.449  0.5100  0.4039  1.3248
 2024SOL    HW2 6916   5.192   3.769   4.479  0.2085  0.3611 -0.0973
 2025SOL     OW 6917   4.629   7.408   6.905 -0.0156  0.0644  0.0503
 2025SOL    HW1 6918   4.574   7.409   6.827 -1.5159  2.1880  1.0505
 2025SOL    HW2 6919   4.590   7.341   6.961  1.1493 -1.5653 -1.0037
 2026SOL     OW 6920   0.613   2.989   7.609  0.1053 -0.1208  0.3992
 2026SOL    HW1 6921   0.656   2.904   7.619 -2.0841 -1.2754  0.4641
 2026SOL    HW2 6922   0.520   2.971   7.619 -0.3479  2.6289  2.7122
 2027SOL     OW 6923   7.634   0.339   1.093  0.1573  0.4263 -0.0535
 2027SOL    HW1 6924   7.597   0.389   1.020 -1.6871 -0.5216  0.1661
 2027SOL    HW2 6925   7.711   0.296   1.056 -1.3498 -0.9142 -1.8308
 2028SOL     OW 6926   2.682   2.892   6.770 -0.2018  0.4054 -0.0602
 2028SOL    HW1 6927   2.589   2.883   6.749 -0.4684  0.1499  1.1163
 2028SOL    HW2 6928   2.723   2.813   6.736 -0.8759 -0.7430  1.6440
 2029SOL     OW 6929   0.904   5.047   0.299 -1.1685 -0.4621  0.4005
 2029SOL    HW1 6930   0.921   4.956   0.277  0.6566 -0.2111  0.5460
 2029SOL    HW2 6931   0.980   5.073   0.353 -0.3535  1.7858 -1.6072
 2030SOL     OW 6932   1.392   5.950   4.003  0.4860 -0.0287  0.7364
 2030SOL    HW1 6933   1.397   5.983   3.913  0.4041 -1.1026  0.3167
 2030SOL    HW2 6934   1.330   6.008   4.047 -0.4277 -0.2250 -0.2446
 2031SOL     OW 6935   2.947   8.140   0.084 -0.2943  0.0848 -0.3038
 2031SOL    HW1 6936   2.967   8.213   0.025 -0.1095  0.0964 -0.2267
 2031SOL    HW2 6937   2.867   8.168   0.129  1.4292  1.6300  2.0035
 2032SOL     OW 6938   7.609   5.434   3.549  0.3508 -0.4786  0.2917
 2032SOL    HW1 6939   7.599   5.363   3.487  2.5934  0.4316 -1.2467
 2032SOL    HW2 6940   7.657   5.501   3.501  0.1478  1.2291  2.3249
 2033SOL     OW 6941   4.372   2.957   5.003 -0.0493  0.2691 -0.0974
 2033SOL    HW1 6942   4.414   3.012   4.937 -0.1247 -0.9333 -1.1817
 2033SOL    HW2 6943   4.443   2.933   5.063 -0.4864  3.7819  2.1098
 2034SOL     OW 6944   1.824   1.465   3.066 -0.6255  0.3089  0.4178
 2034SOL    HW1 6945   1.915   1.478   3.094 -0.0084 -0.9412 -0.8432
 2034SOL    HW2 6946   1.809   1.371   3.079 -1.4163  0.3304 -0.2544
 2035SOL     OW 6947   3.928   4.297   3.030 -0.4033  0.0796  0.0677
 2035SOL    HW1 6948   3.910   4.364   2.965 -0.6834  1.1292  1.1934
 2035SOL    HW2 6949   3.887   4.330   3.110  0.0225 -1.1278  0.8050
 2036SOL     OW 6950   1.273   2.163   2.635 -0.0215  0.1534  0.0934
 2036SOL    HW1 6951   1.256   2.120   2.552 -3.3575  0.7927  0.3161
 2036SOL    HW2 6952   1.227   2.247   2.629 -0.1289  0.3338  2.4395
 2037SOL     OW 6953   6.707   4.440   8.104 -0.5328 -0.5304  0.2892
 2037SOL    HW1 6954   6.719   4.518   8.159  2.2898 -0.7422  0.1282
 2037SOL    HW2 6955   6.689   4.369   8.167 -0.9097 -0.1532  0.6126
 2038SOL     OW 6956   2.089   4.551   6.552 -0.2140 -0.7066 -0.3174
 2038SOL    HW1 6957   2.074   4.645   6.554 -0.5046 -0.7329 -1.2066
 2038SOL    HW2 6958   2.118   4.532   6.463 -1.7484 -1.6916 -0.6457
 2039SOL     OW 6959   1.140   0.198   7.689  0.2989 -0.0809 -0.0208
 2039SOL    HW1 6960   1.208   0.138   7.658  0.3999  0.6265 -1.2536
 2039SOL    HW2 6961   1.062   0.173   7.639 -0.4085 -0.9555  1.4619
 2040SOL     OW 6962   2.068   1.050   1.069  0.1718 -0.0100  0.2881
 2040SOL    HW1 6963   2.018   1.049   0.987 -0.9426  1.7388  0.8873
 2040SOL    HW2 6964   2.046   0.968   1.112  0.6261 -0.8593 -1.0658
 2041SOL     OW 6965   6.057   2.794   2.374  0.1973 -0.1785 -0.2129
 2041SOL    HW1 6966   5.973   2.752   2.357  0.2258 -1.2176  1.8447
 2041SOL    HW2 6967   6.103   2.732   2.431  0.6879  2.1642  2.1054
 2042SOL     OW 6968   6.653   0.076   0.298  0.0049 -0.2829  0.2423
 2042SOL    HW1 6969   6.604   0.029   0.365 -2.3423 -0.5821 -1.5689
 2042SOL    HW2 6970   6.653   0.167   0.329  0.1484 -0.6197  1.2780
 2043SOL     OW 6971   2.509   7.550   6.277 -0.6448  0.0892  0.0298
 2043SOL    HW1 6972   2.510   7.602   6.358  0.7300 -1.2623  0.9466
 2043SOL    HW2 6973   2.598   7.561   6.241 -0.3659 -1.4616  0.1735
 2044SOL     OW 6974   1.873   3.645   7.490  0.0985  0.1367 -0.0878
 2044SOL    HW1 6975   1.961   3.628   7.524  0.4418  0.0389 -1.0069
 2044SOL    HW2 6976   1.818   3.577   7.531  0.4510  0.1648  0.4435
 2045SOL     OW 6977   1.068   1.838   1.348  0.1466 -0.3650 -0.2007
 2045SOL    HW1 6978   1.086   1.744   1.349 -1.3373 -0.7099 -1.4396
 2045SOL    HW2 6979   0.984   1.846   1.302  1.4990  1.7642 -2.5868
 2046SOL     OW 6980   7.145   5.826   0.159 -0.1445  0.3323 -0.1238
 2046SOL    HW1 6981   7.195   5.829   0.240  2.0619 -0.8530 -1.3612
 2046SOL    HW2 6982   7.058   5.796   0.186  0.8243 -1.0347  1.6924
 2047SOL     OW 6983   7.033   5.211   6.221  0.0240  0.7285  0.1213
 2047SOL    HW1 6984   7.041   5.290   6.167  0.9957 -0.2762 -1.2599
 2047SOL    HW2 6985   6.940   5.208   6.244 -0.4442  1.1772 -1.5439
 2048SOL     OW 6986   4.513   3.670   4.845 -0.0456 -0.0320 -0.5924
 2048SOL    HW1 6987   4.459   3.666   4.766 -1.1970  0.2648  0.1706
 2048SOL    HW2 6988   4.591   3.619   4.822 -0.4394 -0.1073 -1.8579
 2049SOL     OW 6989   0.802   6.444   4.742  0.3113 -0.1303  0.3579
 2049SOL    HW1 6990   0.883   6.485   4.772  1.5207 -3.8882  3.0043
 2049SOL    HW2 6991   0.733   6.494   4.785  1.5193  0.4761  1.6773
 2050SOL     OW 6992   3.934   3.056   7.384  0.2788  0.2730 -0.0742
 2050SOL    HW1 6993   3.974   3.082   7.301 -1.1831  1.2503 -0.5175
 2050SOL    HW2 6994   3.941   2.961   7.386 -0.9501  0.0865 -2.0421
 2051SOL     OW 6995   6.937   3.995   3.055  0.0788  0.1393 -0.0541
 2051SOL    HW1 6996   6.895   4.073   3.091 -0.5176  0.2941 -1.0470
 2051SOL    HW2 6997   6.987   4.027   2.980 -2.8716 -0.7708 -2.6488
 2052SOL     OW 6998   6.652   6.351   7.262  0.2232  0.0103 -0.1721
 2052SOL    HW1 6999   6.576   6.353   7.321  0.4309  0.9656  0.0738
 2052SOL    HW2 7000   6.618   6.310   7.182 -0.0664 -1.2837  0.5775
 2053SOL     OW 7001   4.017   7.876   7.736  0.1100 -0.0571 -0.4761
 2053SOL    HW1 7002   4.053   7.904   7.652  0.1487 -2.1845 -1.2244
 2053SOL    HW2 7003   3.926   7.853   7.716 -0.2299  0.5536  0.3313
 2054SOL     OW 7004   3.767   6.414   2.567 -0.0371 -0.3374 -0.5662
 2054SOL    HW1 7005   3.837   6.478   2.556  0.2582 -0.7469 -1.1368
 2054SOL    HW2 7006   3.707   6.454   2.629 -0.1153  0.7106 -1.2884
 2055SOL     OW 7007   2.410   3.349   2.291  0.1644  0.1120  0.1732
 2055SOL    HW1 7008   2.445   3.427   2.248  0.5753  0.5620  1.3074
 2055SOL    HW2 7009   2.323   3.337   2.252  1.3012 -0.7535 -2.3600
 2056SOL     OW 7010   6.827   0.613   2.225 -0.0534  0.3400  0.1149
 2056SOL    HW1 7011   6.752   0.670   2.247 -0.2671 -0.2296  0.9034
 2056SOL    HW2 7012   6.801   0.527   2.256 -0.2322 -0.4750 -2.1216
 2057SOL     OW 7013   7.524   0.265   0.027  0.3533 -0.5147 -0.0085
 2057SOL    HW1 7014   7.540   0.329   0.097 -0.1309 -0.6140  0.2004
 2057SOL    HW2 7015   7.611   0.231   0.006  0.6169  0.1981 -0.1143
 2058SOL     OW 7016   6.210   7.915   5.244 -0.1503 -0.6315 -0.4051
 2058SOL    HW1 7017   6.173   7.896   5.330 -0.0038  0.1841 -0.1534
 2058SOL    HW2 7018   6.305   7.904   5.256 -0.1392 -0.6384 -0.4969
 2059SOL     OW 7019   0.338   0.122   5.105  0.2506  0.6007 -0.8857
 2059SOL    HW1 7020   0.427   0.152   5.089  1.4192 -1.8367  0.5032
 2059SOL    HW2 7021   0.329   0.124   5.201 -0.2372 -1.5409 -0.8465
 2060SOL     OW 7022   7.279   4.029   5.548 -0.4144 -0.0827 -0.2131
 2060SOL    HW1 7023   7.329   3.950   5.527 -0.5427 -0.4832  0.9206
 2060SOL    HW2 7024   7.189   3.998   5.560 -1.1475  0.7190 -2.8438
 2061SOL     OW 7025   0.140   0.921   8.064  0.0419 -0.8762  0.2830
 2061SOL    HW1 7026   0.052   0.884   8.068 -0.9019  1.2660  0.4928
 2061SOL    HW2 7027   0.127   1.014   8.045  2.3056 -0.6599 -0.6020
 2062SOL     OW 7028   5.225   0.605   3.935  0.2670 -0.0575 -0.3031
 2062SOL    HW1 7029   5.164   0.639   3.870 -1.3665 -0.5584  0.8917
 2062SOL    HW2 7030   5.246   0.680   3.990  1.4393  0.3062 -1.2128
 2063SOL     OW 7031   8.204   3.108   0.639  0.3922 -0.4033  0.1595
 2063SOL    HW1 7032   8.183   3.015   0.630 -0.5684 -0.0980 -1.0641
 2063SOL    HW2 7033   8.272   3.123   0.573  0.7619 -0.2844  0.5615
 2064SOL     OW 7034   2.895   4.397   6.885  0.1541  0.7459  0.3807
 2064SOL    HW1 7035   2.809   4.434   6.865  1.0002  1.8486 -1.5825
 2064SOL    HW2 7036   2.937   4.387   6.799  1.1081 -2.0775  1.0727
 2065SOL     OW 7037   0.615   4.440   5.220 -0.1575 -0.2446 -0.4324
 2065SOL    HW1 7038   0.662   4.427   5.303  0.3158 -1.2639 -0.8420
 2065SOL    HW2 7039   0.557   4.365   5.213  0.3213 -0.5477 -1.3529
 2066SOL     OW 7040   2.475   4.143   2.405  0.1708  0.1461  0.3513
 2066SOL    HW1 7041   2.398   4.199   2.391  0.0118  0.0705  0.9043
 2066SOL    HW2 7042   2.526   4.188   2.472 -0.6336 -1.0085  1.8144
 2067SOL     OW 7043   1.377   1.123   5.413 -0.4187 -0.2133 -0.3839
 2067SOL    HW1 7044   1.449   1.185   5.402  0.7674 -1.2637  1.0886
 2067SOL    HW2 7045   1.320   1.163   5.479  1.0568 -1.1948  1.5991
 2068SOL     OW 7046   0.041   7.224   7.087  0.1074  0.2692 -0.0786
 2068SOL    HW1 7047   0.066   7.174   7.164 -0.3444  1.2108  0.7008
 2068SOL    HW2 7048   0.105   7.199   7.020  2.2470  1.5204  1.4095
 2069SOL     OW 7049   5.617   6.713   5.919 -0.2159  0.1470  0.5752
 2069SOL    HW1 7050   5.548   6.754   5.970 -2.2602 -1.3559 -0.8335
 2069SOL    HW2 7051   5.664   6.786   5.878 -2.6642  1.2128 -0.5152
 2070SOL     OW 7052   1.897   0.756   1.887 -0.1697 -0.3107 -0.9263
 2070SOL    HW1 7053   1.891   0.665   1.859 -1.8974 -0.0902 -1.3640
 2070SOL    HW2 7054   1.810   0.778   1.920 -0.2269  1.5920 -2.1447
 2071SOL     OW 7055   6.084   3.726   4.081  0.4713  0.1892  0.5407
 2071SOL    HW1 7056   6.030   3.704   4.006 -0.2525  0.1510  1.0667
 2071SOL    HW2 7057   6.078   3.821   4.089  1.5373  0.3410 -0.1751
 2072SOL     OW 7058   3.098   5.355   0.295 -0.3167  0.4255 -0.3601
 2072SOL    HW1 7059   3.025   5.361   0.233  0.5587  1.1962 -1.3576
 2072SOL    HW2 7060   3.070   5.407   0.370 -1.1220  0.0343 -0.3785
 2073SOL     OW 7061   3.436   2.215   4.840 -0.7959 -0.5483  0.0913
 2073SOL    HW1 7062   3.462   2.253   4.924 -0.6777  2.2378 -1.0930
 2073SOL    HW2 7063   3.516   2.174   4.807 -0.1988  0.4151  0.2990
 2074SOL     OW 7064   1.466   3.490   5.744  0.0057 -0.1342 -0.5281
 2074SOL    HW1 7065   1.525   3.422   5.710  0.7032 -0.0776  0.5305
 2074SOL    HW2 7066   1.517   3.571   5.737  0.2044 -0.1369  0.7284
 2075SOL     OW 7067   4.162   8.024   3.279 -0.2594  0.2220  0.3665
 2075SOL    HW1 7068   4.085   7.975   3.250 -0.2282  0.3757  0.0267
 2075SOL    HW2 7069   4.133   8.115   3.280 -0.8707  0.0665  2.6820
 2076SOL     OW 7070   2.353   8.114   0.787  0.4253  0.0935 -0.5410
 2076SOL    HW1 7071   2.299   8.058   0.732  2.4619 -0.3835 -2.1591
 2076SOL    HW2 7072   2.434   8.126   0.738  2.5101 -0.5694  2.4392
 2077SOL     OW 7073   6.723   0.979   3.777  0.2973 -0.0713  0.6932
 2077SOL    HW1 7074   6.817   0.981   3.792  0.4802 -1.4094 -0.1392
 2077SOL    HW2 7075   6.706   0.893   3.739 -1.1654  0.4024  0.1920
 2078SOL     OW 7076   3.538   6.210   0.724  0.2624  0.4331 -0.6996
 2078SOL    HW1 7077   3.477   6.284   0.721 -1.0443 -0.6469 -2.6479
 2078SOL    HW2 7078   3.530   6.176   0.813 -1.5166  0.7238 -0.7114
 2079SOL     OW 7079   1.854   7.735   2.514  0.1836 -0.1063 -0.0755
 2079SOL    HW1 7080   1.929   7.759   2.460 -0.6004 -0.7737 -1.5186
 2079SOL    HW2 7081   1.875   7.768   2.601  3.1581 -2.2048  0.1262
 2080SOL     OW 7082   4.421   0.255   5.034  0.5240 -0.0718 -0.8093
 2080SOL    HW1 7083   4.384   0.300   4.958 -1.0278 -0.3106 -0.2498
 2080SOL    HW2 7084   4.452   0.326   5.091  0.0270  0.2053 -0.8753
 2081SOL     OW 7085   0.034   4.016   1.722  0.0533 -0.0842  0.9598
 2081SOL    HW1 7086   0.011   4.081   1.788  0.6488  0.9239  0.1948
 2081SOL    HW2 7087   0.014   4.058   1.639 -2.8789 -2.1585  0.4610
 2082SOL     OW 7088   8.123   0.893   0.551 -0.2950  0.4610  0.1005
 2082SOL    HW1 7089   8.140   0.846   0.470  1.6408  2.1982 -0.6110
 2082SOL    HW2 7090   8.181   0.852   0.615 -0.4067  0.3216  0.1125
 2083SOL     OW 7091   3.546   7.774   0.320 -0.3741  0.0832  0.5670
 2083SOL    HW1 7092   3.559   7.738   0.408  3.1892 -0.0481  0.1133
 2083SOL    HW2 7093   3.607   7.847   0.314 -2.1799  1.5783 -1.0942
 2084SOL     OW 7094   1.204   1.231   1.185  0.0605 -0.1131 -0.3078
 2084SOL    HW1 7095   1.212   1.238   1.280 -1.6089 -0.9736 -0.0620
 2084SOL    HW2 7096   1.260   1.157   1.162  1.6434  1.0158 -0.2238
 2085SOL     OW 7097   4.361   2.093   6.722 -0.4846 -0.0098  0.8218
 2085SOL    HW1 7098   4.404   2.158   6.779 -0.1091  0.6819 -0.2285
 2085SOL    HW2 7099   4.272   2.126   6.711  0.2239  1.3870 -1.2290
 2086SOL     OW 7100   6.632   1.548   1.588 -0.1424 -0.0894  0.4135
 2086SOL    HW1 7101   6.565   1.617   1.592 -0.8873 -0.7092 -0.7623
 2086SOL    HW2 7102   6.692   1.577   1.519 -1.1506 -1.1680 -0.9713
 2087SOL     OW 7103   5.070   5.398   3.558  0.0860  0.0793  0.7594
 2087SOL    HW1 7104   5.046   5.323   3.612 -1.9044  0.0795 -0.0520
 2087SOL    HW2 7105   5.121   5.454   3.617 -0.2231 -0.8970  2.0089
 2088SOL     OW 7106   1.181   5.715   2.466  0.3660 -0.0629  0.8815
 2088SOL    HW1 7107   1.111   5.706   2.531  0.5526 -0.7075  1.0012
 2088SOL    HW2 7108   1.261   5.720   2.517  0.9554 -4.3397  0.7543
 2089SOL     OW 7109   7.767   3.271   1.375 -0.3095  0.2371  0.0652
 2089SOL    HW1 7110   7.725   3.234   1.453 -1.2088  0.8137 -0.1331
 2089SOL    HW2 7111   7.696   3.316   1.329  0.5044  1.1142 -0.3578
 2090SOL     OW 7112   7.315   7.019   1.818  0.2266  0.2008  0.4268
 2090SOL    HW1 7113   7.358   6.933   1.824  0.3598 -0.1379 -3.2956
 2090SOL    HW2 7114   7.249   7.009   1.749 -0.4123  2.8432  0.5415
 2091SOL     OW 7115   5.980   1.493   1.803 -0.3231  0.0750 -0.3082
 2091SOL    HW1 7116   5.945   1.440   1.731 -1.5058  2.0498 -1.2694
 2091SOL    HW2 7117   5.903   1.524   1.850 -0.1441  4.4416 -2.3889
 2092SOL     OW 7118   7.493   6.164   2.594 -0.2663 -0.4490 -0.2572
 2092SOL    HW1 7119   7.491   6.260   2.591 -0.8935 -0.4704 -0.5390
 2092SOL    HW2 7120   7.538   6.139   2.513 -1.0344 -0.4193 -0.7051
 2093SOL     OW 7121   2.706   1.520   4.618 -0.2331 -0.5041 -0.3230
 2093SOL    HW1 7122   2.660   1.437   4.623  0.0091 -0.6578 -0.5980
 2093SOL    HW2 7123   2.796   1.497   4.593  0.5696 -0.3820  2.1361
 2094SOL     OW 7124   6.524   7.656   5.299 -0.3816  0.2593  0.0307
 2094SOL    HW1 7125   6.552   7.696   5.381 -3.4646  0.9183  0.8968
 2094SOL    HW2 7126   6.507   7.731   5.241 -0.2370 -0.1158 -0.5020
 2095SOL     OW 7127   2.568   5.571   1.725  0.8967  0.7358 -0.3663
 2095SOL    HW1 7128   2.592   5.581   1.633 -1.3598 -1.3327 -1.2872
 2095SOL    HW2 7129   2.473   5.554   1.723  0.7523  0.8679  2.3614
 2096SOL     OW 7130   5.626   2.217   7.433  0.4676 -0.0802 -0.3199
 2096SOL    HW1 7131   5.555   2.257   7.383 -0.2015 -1.6122 -0.6631
 2096SOL    HW2 7132   5.651   2.284   7.497  0.7596  1.6073 -2.1001
 2097SOL     OW 7133   2.276   5.218   2.130  0.4805  0.0561 -0.2516
 2097SOL    HW1 7134   2.318   5.302   2.111 -1.1562  0.6401 -1.4806
 2097SOL    HW2 7135   2.185   5.230   2.104  0.2947 -2.2456 -0.8847
 2098SOL     OW 7136   2.884   0.578   7.752  0.3270 -0.2875  0.1968
 2098SOL    HW1 7137   2.799   0.599   7.790  0.5985  0.0918  0.6022
 2098SOL    HW2 7138   2.934   0.659   7.758  0.9933 -0.7279  0.6952
 2099SOL     OW 7139   3.311   2.249   6.376 -0.0471 -0.4142  0.4395
 2099SOL    HW1 7140   3.328   2.172   6.430  1.4406 -0.2660  0.2206
 2099SOL    HW2 7141   3.221   2.273   6.397 -0.8734 -2.7349 -0.1694
 2100SOL     OW 7142   3.454   0.655   0.798 -0.2691  0.5756 -0.1121
 2100SOL    HW1 7143   3.381   0.624   0.745  0.8902 -1.3182 -0.7032
 2100SOL    HW2 7144   3.429   0.744   0.824 -1.7542  0.8428 -2.2009
 2101SOL     OW 7145   1.342   7.840   6.660 -0.4277  0.4773 -0.1848
 2101SOL    HW1 7146   1.425   7.886   6.649  0.0808 -0.2400  0.6055
 2101SOL    HW2 7147   1.351   7.794   6.743 -1.7796  0.7354  0.1294
 2102SOL     OW 7148   2.041   3.060   7.464  0.7731 -0.2694  0.2879
 2102SOL    HW1 7149   1.961   3.041   7.416  0.9203 -0.1427 -0.0125
 2102SOL    HW2 7150   2.022   3.035   7.554  0.3572 -0.1278  0.2395
 2103SOL     OW 7151   7.310   4.537   3.478  0.2559 -0.4743  0.4225
 2103SOL    HW1 7152   7.275   4.593   3.547 -1.6684 -0.1042 -0.7859
 2103SOL    HW2 7153   7.330   4.596   3.406  0.1950 -1.0848 -0.1101
 2104SOL     OW 7154   6.009   2.354   7.193  0.2969  0.0900 -0.5026
 2104SOL    HW1 7155   5.921   2.390   7.206  0.8182  1.2452 -0.1390
 2104SOL    HW2 7156   6.039   2.331   7.280 -0.6102 -2.7411 -0.8278
 2105SOL     OW 7157   4.437   6.478   1.376 -0.0287 -0.3526 -0.9068
 2105SOL    HW1 7158   4.372   6.408   1.387  1.5949 -1.7707  0.2186
 2105SOL    HW2 7159   4.476   6.488   1.463  3.0847 -1.4527 -2.0554
 2106SOL     OW 7160   5.560   2.553   2.647 -0.1632 -0.6614 -0.4077
 2106SOL    HW1 7161   5.611   2.502   2.585 -0.1597 -0.9703 -0.1521
 2106SOL    HW2 7162   5.580   2.644   2.626  0.1942 -0.7760 -0.5554
 2107SOL     OW 7163   7.431   3.403   6.365  0.2429 -0.0362 -0.3459
 2107SOL    HW1 7164   7.480   3.438   6.291 -1.0994 -0.2283 -1.3459
 2107SOL    HW2 7165   7.363   3.468   6.383 -0.0035 -0.4197  0.1446
 2108SOL     OW 7166   0.862   2.829   6.706 -0.3305 -0.4290  0.2131
 2108SOL    HW1 7167   0.794   2.871   6.759 -0.8061  0.3621 -0.9920
 2108SOL    HW2 7168   0.822   2.816   6.621 -0.0206 -2.9143  0.3657
 2109SOL     OW 7169   5.345   2.157   2.974  0.2658  0.3430  0.4334
 2109SOL    HW1 7170   5.324   2.182   2.884 -0.1904  0.4656  0.5703
 2109SOL    HW2 7171   5.260   2.149   3.018  0.4351 -0.7105  0.5965
 2110SOL     OW 7172   6.565   0.887   5.368  0.1384 -0.7858 -0.3029
 2110SOL    HW1 7173   6.639   0.871   5.427 -0.2653  0.4941  0.6071
 2110SOL    HW2 7174   6.500   0.929   5.424 -0.8351 -0.8605 -1.3592
 2111SOL     OW 7175   2.956   5.275   3.715  0.6500 -0.2997  0.0093
 2111SOL    HW1 7176   2.865   5.249   3.709  0.6222  0.0195 -1.2896
 2111SOL    HW2 7177   2.954   5.360   3.760  0.2233  0.0595 -0.6653
 2112SOL     OW 7178   5.179   4.117   7.727  0.0451  0.3307 -0.3257
 2112SOL    HW1 7179   5.112   4.101   7.794 -0.7379 -0.2854 -1.2203
 2112SOL    HW2 7180   5.185   4.212   7.721 -0.2899  0.3907  0.2250
 2113SOL     OW 7181   0.464   2.972   4.333 -0.2512  0.1167 -0.2473
 2113SOL    HW1 7182   0.413   2.984   4.413 -1.1057  0.9366 -0.8984
 2113SOL    HW2 7183   0.416   2.906   4.283  1.0901 -1.5536  0.5415
 2114SOL     OW 7184   2.430   2.960   0.695 -0.1834 -0.4652  0.4454
 2114SOL    HW1 7185   2.347   2.915   0.683 -0.2902 -0.2003  0.1784
 2114SOL    HW2 7186   2.438   2.971   0.790  0.5387 -2.3257  0.6350
 2115SOL     OW 7187   8.159   2.467   4.493  0.5145 -0.0360  0.1790
 2115SOL    HW1 7188   8.122   2.540   4.443  0.0494 -0.4366 -0.0746
 2115SOL    HW2 7189   8.115   2.470   4.577  0.7240  0.1624  0.2827
 2116SOL     OW 7190   5.706   1.340   3.751  0.0449  0.3573  0.1542
 2116SOL    HW1 7191   5.773   1.314   3.688  1.6670  0.5472  1.7169
 2116SOL    HW2 7192   5.752   1.345   3.834 -2.2988 -1.2719  1.6685
 2117SOL     OW 7193   5.420   1.986   2.367 -0.1339  0.3623  0.3375
 2117SOL    HW1 7194   5.379   2.069   2.393 -0.3850  0.1681  0.5671
 2117SOL    HW2 7195   5.349   1.922   2.373  0.3542 -0.0941  1.3171
 2118SOL     OW 7196   2.522   7.652   3.247  0.6137 -0.3834 -0.1934
 2118SOL    HW1 7197   2.488   7.741   3.256 -1.8030 -1.2349 -0.2248
 2118SOL    HW2 7198   2.454   7.605   3.198  0.8070 -2.7547  1.6128
 2119SOL     OW 7199   0.165   4.996   4.948  0.1494  0.2654 -0.1336
 2119SOL    HW1 7200   0.179   5.083   4.912  1.2228 -0.3432 -1.2430
 2119SOL    HW2 7201   0.092   4.960   4.897 -0.0946  0.3876  0.1228
 2120SOL     OW 7202   7.579   7.567   3.651  0.2827  0.7969 -0.0248
 2120SOL    HW1 7203   7.570   7.661   3.639 -0.1124  0.8045  0.3097
 2120SOL    HW2 7204   7.664   7.556   3.695 -0.3143  1.1120  1.2454
 2121SOL     OW 7205   5.179   8.120   4.312 -0.3710  0.0045 -0.4439
 2121SOL    HW1 7206   5.160   8.210   4.288 -0.3450 -0.2922 -1.6336
 2121SOL    HW2 7207   5.097   8.088   4.350 -1.1550 -0.1634 -2.1811
 2122SOL     OW 7208   7.079   6.206   0.001  0.0917  0.6585 -0.1367
 2122SOL    HW1 7209   7.170   6.196  -0.025  0.2411  0.4945  0.4406
 2122SOL    HW2 7210   7.041   6.263  -0.067  0.5699  0.5805 -0.4770
 2123SOL     OW 7211   6.256   4.396   1.548  0.0879 -0.2078 -0.1946
 2123SOL    HW1 7212   6.324   4.444   1.500  0.3589 -0.3305  0.0640
 2123SOL    HW2 7213   6.305   4.343   1.612 -0.1696 -1.2811 -0.8728
 2124SOL     OW 7214   3.085   4.555   2.185 -0.3688 -0.2961 -0.0964
 2124SOL    HW1 7215   3.072   4.650   2.186 -0.3920 -0.3003  0.0958
 2124SOL    HW2 7216   3.108   4.535   2.095 -1.1651 -0.2129 -0.3263
 2125SOL     OW 7217   7.899   5.780   0.040 -0.6157  0.3452  0.1747
 2125SOL    HW1 7218   7.929   5.860  -0.001 -1.6978  0.6036 -0.1514
 2125SOL    HW2 7219   7.963   5.762   0.109  0.6090  0.5114 -0.8852
 2126SOL     OW 7220   1.486   5.116   0.710  0.3755  0.0006  0.1222
 2126SOL    HW1 7221   1.445   5.085   0.629 -1.9314  2.4537  0.1937
 2126SOL    HW2 7222   1.437   5.072   0.780  1.3473 -0.9476  0.2290
 2127SOL     OW 7223   6.376   5.707   7.442 -0.5535 -0.1165 -0.0637
 2127SOL    HW1 7224   6.299   5.683   7.389 -0.3942 -2.1666  0.5486
 2127SOL    HW2 7225   6.339   5.745   7.522 -1.1758 -3.3488  1.3554
 2128SOL     OW 7226   1.288   2.184   8.108 -0.1629 -0.2843 -0.1100
 2128SOL    HW1 7227   1.222   2.180   8.039  0.9297 -0.1637 -1.2193
 2128SOL    HW2 7228   1.339   2.262   8.087 -2.1652  2.1382  3.1485
 2129SOL     OW 7229   2.466   4.410   4.685 -0.0118 -0.1784 -0.7327
 2129SOL    HW1 7230   2.480   4.357   4.606  0.8505 -0.5025 -0.3761
 2129SOL    HW2 7231   2.493   4.353   4.757 -0.1451  0.3520 -0.2547
 2130SOL     OW 7232   7.033   3.589   4.489  0.4754  0.4502  0.3271
 2130SOL    HW1 7233   6.945   3.578   4.452  1.3367 -0.6446 -1.5395
 2130SOL    HW2 7234   7.032   3.535   4.569 -1.3708  2.7225  1.9941
 2131SOL     OW 7235   0.953   2.933   5.630 -0.2482 -0.2829  0.2971
 2131SOL    HW1 7236   0.963   2.964   5.540 -0.0854  0.1224  0.4506
 2131SOL    HW2 7237   0.859   2.921   5.641 -0.3632  0.6625  0.3937
 2132SOL     OW 7238   6.317   5.051   5.038  0.0829 -0.3585 -0.1847
 2132SOL    HW1 7239   6.270   4.968   5.048  1.1054 -1.1523 -1.5678
 2132SOL    HW2 7240   6.267   5.114   5.091 -1.3514 -1.6027  0.0025
 2133SOL     OW 7241   0.199   8.189   7.437  0.3716  1.1596 -0.1362
 2133SOL    HW1 7242   0.124   8.190   7.378  0.3595 -0.6745 -0.2015
 2133SOL    HW2 7243   0.275   8.187   7.380  0.5197  2.9218 -0.0681
 2134SOL     OW 7244   2.155   1.009   6.670  0.0747  0.2224  0.5209
 2134SOL    HW1 7245   2.094   1.043   6.605  0.1063  0.1091  0.4325
 2134SOL    HW2 7246   2.099   0.972   6.738  0.0204 -2.4512 -0.8753
 2135SOL     OW 7247   4.938   4.348   4.186 -0.1403  0.0797 -0.1919
 2135SOL    HW1 7248   5.017   4.294   4.175  0.8399  1.1840  1.0335
 2135SOL    HW2 7249   4.896   4.314   4.264 -0.4059  0.0398 -0.3527
 2136SOL     OW 7250   1.463   0.183   4.065 -0.1934 -0.0583  0.0321
 2136SOL    HW1 7251   1.488   0.090   4.060 -0.4122 -0.2284  1.6192
 2136SOL    HW2 7252   1.374   0.182   4.098  0.9148  0.7371  3.4448
 2137SOL     OW 7253   3.618   5.997   6.423 -0.3144 -0.3571  0.0216
 2137SOL    HW1 7254   3.536   5.951   6.405  0.7060 -1.9264 -0.8612
 2137SOL    HW2 7255   3.686   5.939   6.390  1.1876  0.8225  0.8904
 2138SOL     OW 7256   3.280   7.096   3.982 -0.2854 -0.1667 -0.5496
 2138SOL    HW1 7257   3.236   7.025   4.028 -1.5947  0.8260 -0.2281
 2138SOL    HW2 7258   3.369   7.064   3.968  0.3937 -0.3107  3.2120
 2139SOL     OW 7259   3.666   0.948   7.364  0.6666  0.2613  0.1744
 2139SOL    HW1 7260   3.668   0.856   7.336 -0.1526  0.6638 -1.3109
 2139SOL    HW2 7261   3.574   0.965   7.385  0.5786  1.0579 -0.7691
 2140SOL     OW 7262   0.804   7.989   2.664 -1.0496 -0.5327 -0.7731
 2140SOL    HW1 7263   0.872   7.923   2.653 -0.4364  0.1388 -1.1131
 2140SOL    HW2 7264   0.845   8.071   2.635 -0.8154  0.5770  2.2823
 2141SOL     OW 7265   7.121   4.102   8.189  0.2052 -0.0943 -0.2064
 2141SOL    HW1 7266   7.159   4.176   8.143 -0.9436 -0.6689 -2.1878
 2141SOL    HW2 7267   7.191   4.036   8.189  0.8443  0.5544  0.5799
 2142SOL     OW 7268   3.903   6.092   5.034  0.3184  0.2203 -0.0738
 2142SOL    HW1 7269   3.863   6.089   4.947  0.6759  1.8254 -0.3162
 2142SOL    HW2 7270   3.996   6.077   5.019  0.2993 -0.0962  0.1075
 2143SOL     OW 7271   3.584   6.600   5.566 -0.2460  0.3440  0.0992
 2143SOL    HW1 7272   3.539   6.673   5.525 -1.0818  0.9335  1.9358
 2143SOL    HW2 7273   3.669   6.596   5.523 -1.1603  0.6894 -1.8449
 2144SOL     OW 7274   1.883   6.072   7.025 -0.3823  0.1575  0.1579
 2144SOL    HW1 7275   1.823   6.143   7.001 -1.1941 -0.1204  1.2840
 2144SOL    HW2 7276   1.828   5.994   7.026  0.3664 -0.3836 -0.4072
 2145SOL     OW 7277   2.158   7.378   7.820 -0.2882  0.3101  0.5989
 2145SOL    HW1 7278   2.243   7.364   7.779 -0.9182  0.7096 -0.9333
 2145SOL    HW2 7279   2.164   7.466   7.858  0.2746 -0.0189  1.2710
 2146SOL     OW 7280   0.343   2.144   6.596 -0.5272 -0.1700  0.2733
 2146SOL    HW1 7281   0.417   2.121   6.538  0.0712  0.5122  0.7540
 2146SOL    HW2 7282   0.304   2.221   6.555 -1.0740 -0.6238 -0.0637
 2147SOL     OW 7283   6.712   0.147   7.009  0.0902  0.7754  0.1551
 2147SOL    HW1 7284   6.772   0.199   7.063  1.1260 -0.5014  0.2989
 2147SOL    HW2 7285   6.633   0.137   7.063  0.3443  1.1928  0.6083
 2148SOL     OW 7286   3.132   3.368   6.982  0.3953 -0.7552 -0.6222
 2148SOL    HW1 7287   3.053   3.319   6.960 -0.1448  0.6654 -2.1067
 2148SOL    HW2 7288   3.101   3.444   7.032  0.4882  0.8178 -2.7821
 2149SOL     OW 7289   0.209   7.399   1.038 -0.2232 -0.2385 -0.3290
 2149SOL    HW1 7290   0.206   7.356   1.123 -1.8999 -0.7499 -0.6112
 2149SOL    HW2 7291   0.294   7.375   1.001 -0.6613 -2.4020 -0.0137
 2150SOL     OW 7292   3.824   4.351   4.533  0.1591 -0.2378 -0.3880
 2150SOL    HW1 7293   3.771   4.392   4.465 -1.4310  1.8160  1.9028
 2150SOL    HW2 7294   3.893   4.416   4.552  0.5560 -0.7541 -0.0340
 2151SOL     OW 7295   5.528   1.827   4.565  0.1337 -0.2207 -0.1796
 2151SOL    HW1 7296   5.446   1.781   4.585  1.3837 -2.1450  0.8866
 2151SOL    HW2 7297   5.576   1.767   4.508  1.4572  0.1297  0.5115
 2152SOL     OW 7298   0.114   0.413   5.875  0.1699  0.4055  0.5229
 2152SOL    HW1 7299   0.134   0.494   5.829 -0.4353 -0.0118 -0.5079
 2152SOL    HW2 7300   0.052   0.439   5.943  0.4749  0.9089  0.6137
 2153SOL     OW 7301   1.467   5.381   6.083  0.4300 -0.2428  0.0382
 2153SOL    HW1 7302   1.500   5.332   6.007  0.2652 -0.6491  0.2288
 2153SOL    HW2 7303   1.376   5.400   6.061  0.7003  0.6467 -0.3695
 2154SOL     OW 7304   6.570   1.998   4.661  0.2201  0.3288 -0.4099
 2154SOL    HW1 7305   6.628   2.016   4.587  0.6006 -1.0494 -0.4829
 2154SOL    HW2 7306   6.510   1.930   4.629  0.6022 -0.5294  0.6256
 2155SOL     OW 7307   2.462   5.196   0.432 -0.3810  0.1259 -0.5648
 2155SOL    HW1 7308   2.481   5.232   0.345  0.0829 -0.1223 -0.5692
 2155SOL    HW2 7309   2.495   5.262   0.493  0.0771 -0.0915 -0.5749
 2156SOL     OW 7310   1.999   2.184   5.233 -0.8246 -0.1427  0.0013
 2156SOL    HW1 7311   1.933   2.249   5.258 -1.4813 -0.2671 -1.2957
 2156SOL    HW2 7312   1.998   2.120   5.304 -0.7190  0.8518  0.9251
 2157SOL     OW 7313   0.442   6.329   1.232  0.2331  0.2397 -0.4959
 2157SOL    HW1 7314   0.361   6.305   1.276  0.6712  0.6429  0.5585
 2157SOL    HW2 7315   0.420   6.409   1.183 -0.4600 -0.6420 -1.6742
 2158SOL     OW 7316   2.339   0.817   7.517 -0.1321 -0.2207 -0.2287
 2158SOL    HW1 7317   2.371   0.830   7.428  0.1738 -1.4856 -0.3126
 2158SOL    HW2 7318   2.307   0.727   7.519  0.0393 -0.2779  0.9940
 2159SOL     OW 7319   7.324   7.547   5.439  0.0550 -0.2504  0.1699
 2159SOL    HW1 7320   7.408   7.593   5.438  0.9177 -1.6916 -1.9022
 2159SOL    HW2 7321   7.338   7.472   5.381 -2.6211 -0.6369 -0.0747
 2160SOL     OW 7322   7.805   6.384   1.920 -0.1186 -0.0006 -0.2798
 2160SOL    HW1 7323   7.824   6.407   1.829  3.5229 -0.4186  0.2310
 2160SOL    HW2 7324   7.780   6.467   1.961  1.5248  0.8772 -0.9622
 2161SOL     OW 7325   5.832   2.993   1.240  0.2513 -0.0702  0.1904
 2161SOL    HW1 7326   5.761   3.048   1.275  0.3285 -0.0113  0.2535
 2161SOL    HW2 7327   5.786   2.923   1.194  0.1470 -0.2939  0.6310
 2162SOL     OW 7328   2.149   4.476   3.248 -0.2094  0.0780 -0.0529
 2162SOL    HW1 7329   2.148   4.385   3.218  0.2917  0.9100 -2.9247
 2162SOL    HW2 7330   2.240   4.491   3.274  0.3444  0.3737 -1.9713
 2163SOL     OW 7331   6.472   6.895   4.982  0.2765  0.2344  0.3976
 2163SOL    HW1 7332   6.507   6.960   5.043 -0.6815  0.8018  0.3653
 2163SOL    HW2 7333   6.541   6.882   4.917 -0.0135  2.2568 -0.3830
 2164SOL     OW 7334   0.679   7.546   3.584  0.4512  0.2880  0.5070
 2164SOL    HW1 7335   0.710   7.456   3.595  2.7868  0.7774 -1.3242
 2164SOL    HW2 7336   0.612   7.540   3.515  0.8580 -0.0044  0.1358
 2165SOL     OW 7337   5.442   8.060   2.175 -0.1273  0.5025  0.4797
 2165SOL    HW1 7338   5.459   7.988   2.236 -0.7088 -0.4928 -0.4651
 2165SOL    HW2 7339   5.347   8.073   2.181 -0.0405  1.1067  0.5447
 2166SOL     OW 7340   4.484   0.535   6.813  0.0733  0.3380  0.3922
 2166SOL    HW1 7341   4.511   0.596   6.744 -0.8318  0.7469  0.3770
 2166SOL    HW2 7342   4.496   0.584   6.894 -0.0531  0.3083  0.4292
 2167SOL     OW 7343   2.630   3.108   3.193  0.1748 -0.0853 -0.0776
 2167SOL    HW1 7344   2.688   3.051   3.243  1.2789  1.8950  0.9936
 2167SOL    HW2 7345   2.551   3.115   3.246 -0.8112 -2.1012 -1.1419
 2168SOL     OW 7346   7.940   2.821   1.395  0.4837  0.1072 -0.1898
 2168SOL    HW1 7347   7.913   2.742   1.348  0.9138 -0.5799  0.6843
 2168SOL    HW2 7348   7.948   2.888   1.328  0.9948 -0.8194 -1.0770
 2169SOL     OW 7349   3.353   7.855   0.711  0.0508  0.1368  0.4939
 2169SOL    HW1 7350   3.355   7.924   0.777  0.6317 -0.9046  1.6170
 2169SOL    HW2 7351   3.343   7.901   0.628 -1.7780  1.4301  1.3679
 2170SOL     OW 7352   2.021   7.569   3.615 -0.1125 -0.3941 -0.1645
 2170SOL    HW1 7353   1.993   7.659   3.633 -1.4946 -0.5390 -1.3131
 2170SOL    HW2 7354   1.940   7.517   3.622  0.8744 -1.8019  1.7754
 2171SOL     OW 7355   6.920   4.689   2.618  0.3207  0.0404  0.1227
 2171SOL    HW1 7356   6.921   4.617   2.555  0.1637  0.7771 -0.7344
 2171SOL    HW2 7357   6.852   4.665   2.681 -0.2597 -0.2020 -0.5862
 2172SOL     OW 7358   1.694   3.467   7.580 -0.3020 -0.1575 -0.3467
 2172SOL    HW1 7359   1.625   3.413   7.618 -0.9272  1.0048  0.2270
 2172SOL    HW2 7360   1.751   3.405   7.535  0.9716 -1.7640  3.1172
 2173SOL     OW 7361   3.265   6.040   1.993  0.0881  0.2007 -0.3393
 2173SOL    HW1 7362   3.268   5.945   1.993  1.2469  0.1957 -2.1204
 2173SOL    HW2 7363   3.356   6.067   1.981 -0.3474  1.5189 -0.8417
 2174SOL     OW 7364   6.362   1.410   1.569  0.0221  0.2779 -0.4331
 2174SOL    HW1 7365   6.441   1.435   1.521  0.8164 -0.3018  0.5310
 2174SOL    HW2 7366   6.363   1.465   1.647 -0.4122  0.1137 -0.3098
 2175SOL     OW 7367   6.486   3.690   5.580  0.0253  0.0968 -0.0231
 2175SOL    HW1 7368   6.404   3.721   5.617  0.0520  1.9724 -1.3918
 2175SOL    HW2 7369   6.520   3.764   5.531  0.7553 -1.7521 -2.5133
 2176SOL     OW 7370   7.337   3.025   3.170 -0.1807 -0.4779  0.6182
 2176SOL    HW1 7371   7.382   3.080   3.233  1.5562  0.0345 -0.9695
 2176SOL    HW2 7372   7.408   2.985   3.119 -1.4550  0.3465 -1.9817
 2177SOL     OW 7373   4.427   3.833   6.023 -0.4450 -0.1054 -0.1126
 2177SOL    HW1 7374   4.338   3.796   6.024 -0.5153  0.0200 -0.9144
 2177SOL    HW2 7375   4.443   3.858   6.114 -1.3569  0.1675 -0.0106
 2178SOL     OW 7376   2.213   3.203   1.032 -0.2465 -0.4501 -0.1927
 2178SOL    HW1 7377   2.156   3.145   0.983  0.5297 -0.6193 -0.9035
 2178SOL    HW2 7378   2.188   3.291   1.004 -0.9126 -0.4633  0.3331
 2179SOL     OW 7379   6.831   3.914   3.551  0.3802  0.2712 -0.4339
 2179SOL    HW1 7380   6.909   3.945   3.506  0.1566 -0.4100 -1.3081
 2179SOL    HW2 7381   6.862   3.884   3.636  1.1543 -0.4996 -0.9823
 2180SOL     OW 7382   6.035   1.235   5.533  0.0900  0.4054 -0.1781
 2180SOL    HW1 7383   6.111   1.293   5.527 -0.2606  1.2270  2.1286
 2180SOL    HW2 7384   5.970   1.274   5.475  0.8427  0.6405 -0.8815
 2181SOL     OW 7385   3.232   6.936   4.515  0.0399 -0.4411  0.2924
 2181SOL    HW1 7386   3.269   7.013   4.471 -1.5607  1.3647  1.8877
 2181SOL    HW2 7387   3.294   6.866   4.497  1.0116  0.9360 -2.1857
 2182SOL     OW 7388   0.613   7.944   0.432 -0.0864  0.0934 -0.2794
 2182SOL    HW1 7389   0.693   7.933   0.483  0.8215 -0.5563 -1.7716
 2182SOL    HW2 7390   0.557   7.998   0.487  1.5753  1.0256  0.5918
 2183SOL     OW 7391   6.566   1.436   7.217  0.7386  0.0503  0.7860
 2183SOL    HW1 7392   6.556   1.420   7.123 -0.8625  0.6035  0.8322
 2183SOL    HW2 7393   6.477   1.442   7.250  1.2753  0.6568  2.2223
 2184SOL     OW 7394   1.583   5.221   7.665 -0.5524 -0.1880  0.2871
 2184SOL    HW1 7395   1.515   5.271   7.712  0.2477  0.8322  0.4063
 2184SOL    HW2 7396   1.664   5.243   7.711  0.0315 -0.4110 -0.6198
 2185SOL     OW 7397   2.668   5.765   1.134  0.1677  0.5481  0.4396
 2185SOL    HW1 7398   2.629   5.841   1.090 -2.1289 -0.6713  0.2441
 2185SOL    HW2 7399   2.718   5.803   1.206  0.5469  2.3317 -0.6817
 2186SOL     OW 7400   4.989   5.699   1.358 -0.4530  0.0499 -0.2681
 2186SOL    HW1 7401   5.029   5.699   1.271 -1.4516 -1.4407 -0.7645
 2186SOL    HW2 7402   5.061   5.678   1.418  0.1711  0.7595 -0.7498
 2187SOL     OW 7403   7.327   7.042   5.722  0.2212  0.4954 -0.3650
 2187SOL    HW1 7404   7.376   6.972   5.678 -2.0123 -1.1114 -0.4840
 2187SOL    HW2 7405   7.365   7.046   5.810  0.8474 -0.4240 -0.5743
 2188SOL     OW 7406   2.069   3.043   3.259  0.4109 -0.1029  0.3747
 2188SOL    HW1 7407   1.994   2.999   3.219  0.9365 -1.5771  0.9483
 2188SOL    HW2 7408   2.058   3.135   3.235  0.5448 -0.8226 -2.9303
 2189SOL     OW 7409   2.962   6.341   7.773 -0.0325 -0.0767  0.0758
 2189SOL    HW1 7410   2.973   6.391   7.693 -1.9043  1.9638  0.9827
 2189SOL    HW2 7411   2.881   6.292   7.761 -1.4622  1.8350  1.4012
 2190SOL     OW 7412   1.503   3.593   6.285 -0.2804 -0.0504 -0.3820
 2190SOL    HW1 7413   1.554   3.606   6.364 -1.0109 -2.8536  0.6682
 2190SOL    HW2 7414   1.567   3.576   6.217  0.2908 -0.2932  0.2092
 2191SOL     OW 7415   8.097   3.732   5.907  0.0837  0.2001  0.3584
 2191SOL    HW1 7416   8.062   3.730   5.818  0.8398  0.3540  0.0457
 2191SOL    HW2 7417   8.027   3.770   5.960 -0.4497 -0.0782 -0.1334
 2192SOL     OW 7418   6.695   4.631   3.808 -0.3793 -0.3815  0.6277
 2192SOL    HW1 7419   6.619   4.685   3.829 -1.2853 -1.0422 -0.7575
 2192SOL    HW2 7420   6.705   4.573   3.884  0.6775  1.7266  2.1856
 2193SOL     OW 7421   2.228   2.769   0.670  0.1506  0.2543 -0.2820
 2193SOL    HW1 7422   2.164   2.810   0.728  0.6652  0.8668 -0.1390
 2193SOL    HW2 7423   2.208   2.676   0.674 -1.7753  0.5472 -1.4881
 2194SOL     OW 7424   3.885   3.955   5.537  0.7021  0.0772 -0.4859
 2194SOL    HW1 7425   3.977   3.945   5.510  1.0120 -1.0767  0.9081
 2194SOL    HW2 7426   3.876   3.901   5.615 -1.0635  0.5490 -0.3102
 2195SOL     OW 7427   5.152   0.227   7.096  0.1099 -0.2515 -0.2358
 2195SOL    HW1 7428   5.207   0.187   7.164  0.5393  0.3183 -0.2382
 2195SOL    HW2 7429   5.129   0.312   7.132 -0.9394 -0.5554 -0.1603
 2196SOL     OW 7430   6.449   0.038   0.034 -0.1649 -0.2838  0.1109
 2196SOL    HW1 7431   6.477  -0.008   0.113  0.0786  0.1939  0.3074
 2196SOL    HW2 7432   6.476   0.129   0.048 -3.3267  0.6358  1.1293
 2197SOL     OW 7433   7.856   6.791   5.388  0.4176  0.0941  0.6460
 2197SOL    HW1 7434   7.861   6.887   5.385 -3.9605  0.5605  0.8059
 2197SOL    HW2 7435   7.818   6.766   5.304  0.6375 -1.3983  0.9602
 2198SOL     OW 7436   2.710   2.256   5.666  0.1068 -0.1604  0.6596
 2198SOL    HW1 7437   2.681   2.172   5.630  0.9547 -0.6135  1.0092
 2198SOL    HW2 7438   2.635   2.314   5.654  0.2143 -0.3871 -1.4698
 2199SOL     OW 7439   4.065   6.536   4.479  0.2037 -0.4351 -0.1005
 2199SOL    HW1 7440   3.978   6.499   4.467 -0.0103 -0.4846  1.3576
 2199SOL    HW2 7441   4.096   6.554   4.391  0.0827 -3.4903 -0.8873
 2200SOL     OW 7442   3.828   7.787   0.910  0.3041  0.1309 -0.4827
 2200SOL    HW1 7443   3.759   7.846   0.940  0.0502  0.3980 -1.5562
 2200SOL    HW2 7444   3.797   7.700   0.934  0.2048  0.3487  0.2005
 2201SOL     OW 7445   5.045   4.710   2.213 -0.1729 -0.1582 -0.5018
 2201SOL    HW1 7446   5.002   4.673   2.291  0.2128 -0.3577 -0.3779
 2201SOL    HW2 7447   5.118   4.760   2.248 -0.7395  0.8063 -0.6671
 2202SOL     OW 7448   5.139   5.364   6.331  0.4894 -0.2509  0.6032
 2202SOL    HW1 7449   5.070   5.377   6.266 -0.1576  0.3276  1.3916
 2202SOL    HW2 7450   5.214   5.334   6.280  0.4847  1.7060 -0.6514
 2203SOL     OW 7451   0.596   3.793   6.173 -0.1961 -0.2761 -0.3411
 2203SOL    HW1 7452   0.653   3.720   6.195  1.2005  1.0519  0.6482
 2203SOL    HW2 7453   0.556   3.768   6.089  1.2067 -1.5984 -0.6538
 2204SOL     OW 7454   2.548   8.063   0.621  0.4766  0.2658  0.4017
 2204SOL    HW1 7455   2.593   8.001   0.679 -0.0653 -0.5803 -0.0661
 2204SOL    HW2 7456   2.578   8.039   0.533 -1.8044 -1.1770 -0.0695
 2205SOL     OW 7457   0.643   2.079   0.692  0.1925 -0.2738  0.4455
 2205SOL    HW1 7458   0.597   2.024   0.756  1.4311  0.0777  1.6763
 2205SOL    HW2 7459   0.660   2.161   0.739  0.7531  0.1485 -0.4765
 2206SOL     OW 7460   5.410   2.398   2.014  0.2617 -0.0434 -0.5551
 2206SOL    HW1 7461   5.347   2.440   2.072  1.0371 -1.4372  1.4042
 2206SOL    HW2 7462   5.358   2.343   1.956 -0.3740 -0.8669  0.7663
 2207SOL     OW 7463   3.700   7.655   6.750  0.6498 -0.0017  0.0988
 2207SOL    HW1 7464   3.637   7.696   6.691  1.4858  0.5208 -0.4441
 2207SOL    HW2 7465   3.775   7.714   6.751  0.3611  0.4039  2.2998
 2208SOL     OW 7466   8.122   2.117   1.168  0.6040  0.3820  0.1010
 2208SOL    HW1 7467   8.113   2.209   1.195 -0.8182  0.1924  0.3687
 2208SOL    HW2 7468   8.038   2.096   1.127  1.7220 -0.1457 -2.0555
 2209SOL     OW 7469   6.107   2.760   4.004  0.4571  0.0043 -0.3724
 2209SOL    HW1 7470   6.094   2.855   3.991  2.3402  0.2143 -0.9829
 2209SOL    HW2 7471   6.080   2.744   4.094 -1.1650  0.8543 -0.6629
 2210SOL     OW 7472   6.413   0.909   4.854 -0.4169 -0.4405 -0.3510
 2210SOL    HW1 7473   6.424   0.838   4.917  1.9219 -0.3235 -0.5400
 2210SOL    HW2 7474   6.454   0.877   4.774  0.3299  0.9362 -0.5540
 2211SOL     OW 7475   6.292   1.692   4.750 -0.7262 -0.2547 -0.5117
 2211SOL    HW1 7476   6.278   1.643   4.669 -0.4859 -0.4948 -0.4121
 2211SOL    HW2 7477   6.227   1.657   4.811 -0.8219 -0.1639 -0.5599
 2212SOL     OW 7478   5.154   1.735   0.139  0.1828 -0.1733 -0.7986
 2212SOL    HW1 7479   5.190   1.822   0.157  0.6131 -0.3712 -0.6916
 2212SOL    HW2 7480   5.120   1.706   0.223  1.9674 -0.9939 -0.3357
 2213SOL     OW 7481   0.173   0.412   4.500  0.3352 -0.5158  0.5797
 2213SOL    HW1 7482   0.105   0.433   4.436  0.3706 -0.8502  0.4293
 2213SOL    HW2 7483   0.247   0.466   4.475  1.2473 -2.4657 -1.2386
 2214SOL     OW 7484   5.774   8.212   4.333  0.0621  1.1682  0.1489
 2214SOL    HW1 7485   5.697   8.176   4.378  1.0217 -0.8485  0.2775
 2214SOL    HW2 7486   5.775   8.166   4.249  1.1354  1.1685  0.1579
 2215SOL     OW 7487   5.569   0.463   0.958  0.1715 -0.3949 -0.3101
 2215SOL    HW1 7488   5.603   0.391   0.905  0.7018 -0.7698  0.5187
 2215SOL    HW2 7489   5.647   0.501   0.999 -0.3549 -1.2650  1.6231
 2216SOL     OW 7490   1.335   5.784   3.417 -0.0013  0.3782  0.0559
 2216SOL    HW1 7491   1.342   5.874   3.384  0.2320  0.6618  0.8659
 2216SOL    HW2 7492   1.256   5.784   3.470 -2.4911 -1.0076 -3.3150
 2217SOL     OW 7493   5.579   4.187   4.080 -0.0522 -0.2796 -0.3901
 2217SOL    HW1 7494   5.529   4.213   4.158 -0.4364 -0.3190 -0.6227
 2217SOL    HW2 7495   5.563   4.257   4.017  0.1355 -0.3245 -0.4874
 2218SOL     OW 7496   5.786   4.733   4.164  0.1431 -0.4730  0.5529
 2218SOL    HW1 7497   5.848   4.701   4.230  0.7973 -1.3179 -0.4577
 2218SOL    HW2 7498   5.841   4.770   4.095 -0.5409  0.4507  0.4782
 2219SOL     OW 7499   5.017   6.645   0.748  0.2960  0.4268 -0.4910
 2219SOL    HW1 7500   5.041   6.602   0.666 -2.3311  1.4573 -1.9399
 2219SOL    HW2 7501   5.002   6.574   0.809  0.6999 -0.4588 -1.3887
 2220SOL     OW 7502   1.393   2.306   6.391  0.9635 -0.3765 -0.0394
 2220SOL    HW1 7503   1.438   2.310   6.476 -0.8385  0.3232  0.9453
 2220SOL    HW2 7504   1.354   2.218   6.388 -1.7797  0.6663  1.4754
 2221SOL     OW 7505   4.525   2.843   8.062 -0.0340  0.0263  0.3561
 2221SOL    HW1 7506   4.439   2.809   8.039  0.4484 -1.3220  0.4778
 2221SOL    HW2 7507   4.554   2.789   8.136  0.8807  0.5146  0.3809
 2222SOL     OW 7508   2.628   1.879   8.140 -0.2080 -0.3286  0.3678
 2222SOL    HW1 7509   2.717   1.855   8.113 -0.6452  1.2985 -3.1286
 2222SOL    HW2 7510   2.639   1.923   8.225  2.2008 -0.8939  0.4130
 2223SOL     OW 7511   2.083   1.690   1.708  0.5917  0.6069 -0.1425
 2223SOL    HW1 7512   2.012   1.739   1.666 -1.8692 -1.0967  1.7433
 2223SOL    HW2 7513   2.116   1.632   1.640  1.8655  2.9637 -1.6966
 2224SOL     OW 7514   6.884   2.216   7.174  0.4376 -0.1922  0.0740
 2224SOL    HW1 7515   6.812   2.196   7.113  2.0852 -1.8045 -1.4433
 2224SOL    HW2 7516   6.934   2.135   7.180  0.4570 -0.0712  3.5684
 2225SOL     OW 7517   1.626   4.268   0.183 -0.5802  0.2646 -0.4161
 2225SOL    HW1 7518   1.641   4.339   0.120 -1.2061  0.3188 -0.5119
 2225SOL    HW2 7519   1.559   4.213   0.141  0.2601 -0.6744 -0.5724
 2226SOL     OW 7520   7.536   2.409   0.610 -0.6338  0.6857 -0.1168
 2226SOL    HW1 7521   7.596   2.466   0.561  0.1341  0.7014  0.8094
 2226SOL    HW2 7522   7.589   2.376   0.683 -0.5965 -2.2875 -1.3210
 2227SOL     OW 7523   6.784   8.128   2.877 -0.5021  0.0983 -0.1791
 2227SOL    HW1 7524   6.859   8.139   2.935 -0.4027  1.1787 -0.4909
 2227SOL    HW2 7525   6.808   8.174   2.797 -1.4386  0.3363 -0.3405
 2228SOL     OW 7526   4.281   6.030   2.083 -0.3765  0.1653 -0.0689
 2228SOL    HW1 7527   4.359   6.085   2.080 -0.0054 -0.4040 -2.6688
 2228SOL    HW2 7528   4.218   6.080   2.135  0.6009  2.1434 -0.6976
 2229SOL     OW 7529   2.056   4.528   1.584  0.5452  0.6501 -0.2707
 2229SOL    HW1 7530   2.126   4.476   1.544  1.6524  1.1600  0.9073
 2229SOL    HW2 7531   2.087   4.544   1.674 -0.9203  1.2181  0.1606
 2230SOL     OW 7532   6.199   1.945   0.619  0.1353  0.1774 -0.8682
 2230SOL    HW1 7533   6.171   1.953   0.528  0.9742  1.6459 -1.0256
 2230SOL    HW2 7534   6.250   1.863   0.622  1.2950  0.8187 -2.0685
 2231SOL     OW 7535   3.281   4.629   7.157 -0.2451  0.4621  0.5146
 2231SOL    HW1 7536   3.204   4.685   7.145 -0.0462  0.7334  0.4856
 2231SOL    HW2 7537   3.267   4.555   7.099  0.0077  1.0292 -0.2893
 2232SOL     OW 7538   5.933   1.686   5.594 -0.4138  0.6305 -0.1781
 2232SOL    HW1 7539   5.843   1.710   5.573 -0.5174  0.9454  0.5817
 2232SOL    HW2 7540   5.954   1.738   5.672  0.2823  0.2523 -0.1041
 2233SOL     OW 7541   1.157   5.990   3.073  0.2464 -0.1616 -0.4816
 2233SOL    HW1 7542   1.097   6.035   3.013 -0.5876 -0.4104  0.1468
 2233SOL    HW2 7543   1.189   5.916   3.022  1.2197  0.8270 -1.3412
 2234SOL     OW 7544   1.649   6.670   4.676  0.1093  0.5071  0.4516
 2234SOL    HW1 7545   1.563   6.712   4.676 -0.5507 -0.7507  1.9701
 2234SOL    HW2 7546   1.655   6.630   4.589 -2.2918 -2.0656  1.3219
 2235SOL     OW 7547   3.280   0.614   7.215 -0.6666  0.1861  0.3400
 2235SOL    HW1 7548   3.314   0.624   7.304 -3.9506  0.2454  1.7420
 2235SOL    HW2 7549   3.281   0.703   7.179 -1.3584  0.5608  1.2001
 2236SOL     OW 7550   7.533   7.803   5.339  0.5610  0.1097  0.9243
 2236SOL    HW1 7551   7.594   7.875   5.320  1.3475 -0.8940 -0.5906
 2236SOL    HW2 7552   7.453   7.847   5.368  0.2796  1.7690 -1.9635
 2237SOL     OW 7553   5.768   5.713   3.930  0.5418 -0.1773  0.3350
 2237SOL    HW1 7554   5.700   5.652   3.901  0.6999  0.4617 -1.5557
 2237SOL    HW2 7555   5.724   5.772   3.991 -0.3682 -0.3859 -0.0985
 2238SOL     OW 7556   2.512   3.418   4.645  0.3880 -0.4150 -0.3182
 2238SOL    HW1 7557   2.426   3.433   4.606  0.7352  1.2895 -0.5309
 2238SOL    HW2 7558   2.564   3.493   4.616  0.9049  0.5315  2.7270
 2239SOL     OW 7559   3.966   2.888   0.668 -0.8430 -0.1654 -0.2846
 2239SOL    HW1 7560   3.989   2.819   0.730 -0.9700 -0.2174 -0.2952
 2239SOL    HW2 7561   4.036   2.953   0.677  0.4808 -1.2962 -1.8508
 2240SOL     OW 7562   0.579   6.368   0.926  0.2502 -1.2738  0.2041
 2240SOL    HW1 7563   0.525   6.441   0.955  0.0588 -1.5096  0.4529
 2240SOL    HW2 7564   0.646   6.358   0.995  0.0646 -1.5510  0.3479
 2241SOL     OW 7565   7.387   5.706   2.857  0.3382 -0.4661 -0.6793
 2241SOL    HW1 7566   7.453   5.767   2.889 -0.8301  0.8162 -0.6582
 2241SOL    HW2 7567   7.433   5.654   2.790  2.0289 -1.3046  1.0350
 2242SOL     OW 7568   4.962   6.930   5.180  0.0341 -0.6005  0.0100
 2242SOL    HW1 7569   4.895   6.893   5.123 -0.9999 -0.1761  0.9217
 2242SOL    HW2 7570   5.023   6.974   5.121 -1.4347  0.5123 -0.7256
 2243SOL     OW 7571   2.576   2.306   4.363  0.2704  0.2722  0.1037
 2243SOL    HW1 7572   2.508   2.241   4.381  0.4615 -0.1004 -0.4970
 2243SOL    HW2 7573   2.631   2.305   4.441  0.0765 -0.0497  0.2377
 2244SOL     OW 7574   0.697   2.551   1.049 -0.2291 -0.0672 -0.1369
 2244SOL    HW1 7575   0.601   2.551   1.042 -0.1808  0.4883 -0.8573
 2244SOL    HW2 7576   0.719   2.638   1.080  0.0397 -0.2500  0.1924
 2245SOL     OW 7577   4.704   0.877   2.596 -0.3820 -0.0428 -0.8649
 2245SOL    HW1 7578   4.791   0.844   2.573 -0.0997 -0.0272  0.1337
 2245SOL    HW2 7579   4.699   0.867   2.691 -1.3317  0.3105 -0.8654
 2246SOL     OW 7580   6.605   6.793   5.845  0.0241  0.1975 -0.0728
 2246SOL    HW1 7581   6.672   6.858   5.866 -0.4036  0.4115  0.6755
 2246SOL    HW2 7582   6.567   6.824   5.763 -0.6454  1.2994  0.6223
 2247SOL     OW 7583   5.448   2.253   0.185 -0.1290  0.5915 -0.8619
 2247SOL    HW1 7584   5.362   2.214   0.171 -0.2606  0.5839 -0.0491
 2247SOL    HW2 7585   5.442   2.295   0.271  0.9088 -0.0424 -0.4622
 2248SOL     OW 7586   1.259   1.449   3.839  0.7853  0.3540  0.3848
 2248SOL    HW1 7587   1.293   1.360   3.849  0.0707  0.1900  1.4761
 2248SOL    HW2 7588   1.277   1.471   3.748  2.2987 -0.3452  0.4815
 2249SOL     OW 7589   2.165   2.418   3.427 -0.4313  0.4358 -0.3515
 2249SOL    HW1 7590   2.228   2.481   3.391 -0.9676  1.3535  0.2688
 2249SOL    HW2 7591   2.219   2.351   3.469  0.1553  1.5835  0.7968
 2250SOL     OW 7592   4.317   7.084   2.602 -0.0861 -0.2577 -0.5922
 2250SOL    HW1 7593   4.349   7.132   2.678 -0.5200  0.1022 -0.6335
 2250SOL    HW2 7594   4.244   7.031   2.636  0.6216 -1.1795 -0.4695
 2251SOL     OW 7595   3.877   4.999   6.647  0.0302 -0.5493  0.0486
 2251SOL    HW1 7596   3.785   5.012   6.667  0.2231  0.5080  0.2876
 2251SOL    HW2 7597   3.912   4.954   6.723  0.2004  1.1506  1.0160
 2252SOL     OW 7598   6.423   6.161   3.022 -0.2969 -0.3952  0.5260
 2252SOL    HW1 7599   6.346   6.135   3.072 -0.7827  1.1226  0.6298
 2252SOL    HW2 7600   6.396   6.154   2.931 -0.5765  0.1636  0.5627
 2253SOL     OW 7601   6.164   3.282   7.642 -0.0420  0.5530  0.4164
 2253SOL    HW1 7602   6.121   3.204   7.606  0.6666 -0.3144  1.3903
 2253SOL    HW2 7603   6.136   3.285   7.733  1.9058 -0.0204  1.0704
 2254SOL     OW 7604   2.652   4.252   2.572 -0.1057  0.1721  0.0526
 2254SOL    HW1 7605   2.703   4.332   2.558 -0.6963  0.1630 -2.7819
 2254SOL    HW2 7606   2.688   4.215   2.652  0.9324  2.6975  0.8615
 2255SOL     OW 7607   7.639   4.751   7.081  0.8280  0.5039 -0.6563
 2255SOL    HW1 7608   7.659   4.659   7.097 -1.4364  0.4138  2.8302
 2255SOL    HW2 7609   7.686   4.797   7.151 -0.8216  1.5445 -0.1755
 2256SOL     OW 7610   5.754   0.457   6.649  0.1243 -0.0474  0.3792
 2256SOL    HW1 7611   5.836   0.427   6.689 -1.5770 -0.8595  3.5920
 2256SOL    HW2 7612   5.715   0.377   6.615 -0.2526  0.0091  0.6808
 2257SOL     OW 7613   2.141   5.038   2.496  0.5532 -0.1053 -0.0033
 2257SOL    HW1 7614   2.082   5.029   2.570  1.2687 -1.2638  0.4491
 2257SOL    HW2 7615   2.112   4.971   2.434  1.2962 -0.6102  0.1760
 2258SOL     OW 7616   4.183   1.986   0.289 -0.1397  0.0309 -0.6525
 2258SOL    HW1 7617   4.219   1.948   0.209 -0.8286 -1.1540 -0.4235
 2258SOL    HW2 7618   4.095   1.950   0.295 -1.1564  2.3527 -0.8515
 2259SOL     OW 7619   7.311   6.878   3.014 -0.2611 -0.2414 -0.1263
 2259SOL    HW1 7620   7.394   6.829   3.012 -0.0938 -0.0903  1.5329
 2259SOL    HW2 7621   7.252   6.822   3.064  0.8234  2.3833  4.6419
 2260SOL     OW 7622   1.657   5.761   4.901 -0.2457 -0.1854  0.5795
 2260SOL    HW1 7623   1.650   5.746   4.995 -0.0500  0.2370  0.6659
 2260SOL    HW2 7624   1.621   5.849   4.889  2.6593  1.1284  0.7245
 2261SOL     OW 7625   8.193   5.981   1.311 -0.5856  0.5807  0.3213
 2261SOL    HW1 7626   8.206   5.915   1.379 -1.4765 -0.3243 -0.3761
 2261SOL    HW2 7627   8.276   5.983   1.263 -0.4073  0.2922  0.6156
 2262SOL     OW 7628   7.266   1.560   5.514 -0.2459  0.3457 -0.4496
 2262SOL    HW1 7629   7.288   1.472   5.483  1.3283  0.3490  0.5698
 2262SOL    HW2 7630   7.170   1.561   5.516 -0.4289 -0.2203 -3.6224
 2263SOL     OW 7631   0.281   3.037   6.512  0.1989 -0.2168  0.2235
 2263SOL    HW1 7632   0.233   3.104   6.561  0.3432  0.7900 -0.9861
 2263SOL    HW2 7633   0.216   2.970   6.492 -0.3450  0.3935 -0.0550
 2264SOL     OW 7634   5.402   5.732   5.693  0.3009  0.0562  0.1351
 2264SOL    HW1 7635   5.307   5.722   5.705 -0.0261  3.1074  1.2353
 2264SOL    HW2 7636   5.440   5.651   5.727 -1.8716 -1.0737  0.0441
 2265SOL     OW 7637   8.182   1.527   4.721  0.7890 -0.0450 -0.2018
 2265SOL    HW1 7638   8.104   1.554   4.673  0.7016  1.7269  0.8424
 2265SOL    HW2 7639   8.254   1.537   4.658  0.7045  2.4270 -0.0025
 2266SOL     OW 7640   1.672   0.966   6.146 -0.2093 -0.9131 -0.2727
 2266SOL    HW1 7641   1.655   0.945   6.055  0.0817  0.5089 -0.6767
 2266SOL    HW2 7642   1.585   0.971   6.187 -0.3848 -0.7355 -0.6669
 2267SOL     OW 7643   1.216   8.045   8.105 -0.2914 -0.7735 -0.1199
 2267SOL    HW1 7644   1.308   8.067   8.118 -0.5532 -0.7995  2.4317
 2267SOL    HW2 7645   1.185   8.106   8.039  0.7316  1.7462  1.5833
 2268SOL     OW 7646   6.599   2.060   3.910  0.6125 -0.1718  0.4831
 2268SOL    HW1 7647   6.582   1.978   3.863  1.2837 -0.5196  0.8288
 2268SOL    HW2 7648   6.651   2.112   3.848 -2.2171  1.2411 -0.9125
 2269SOL     OW 7649   0.715   4.574   8.210  0.4034  0.5054  0.2990
 2269SOL    HW1 7650   0.660   4.511   8.257 -0.8767  0.9765 -0.5183
 2269SOL    HW2 7651   0.773   4.520   8.156 -0.6857 -0.0064 -0.3973
 2270SOL     OW 7652   7.749   4.208   7.590  0.9161  0.0548 -0.2709
 2270SOL    HW1 7653   7.720   4.131   7.639  0.1842  0.1219 -0.5753
 2270SOL    HW2 7654   7.671   4.235   7.540  1.7440 -0.2735 -1.7962
 2271SOL     OW 7655   2.125   3.626   7.986 -0.1198  0.0497  0.1585
 2271SOL    HW1 7656   2.195   3.664   7.932  0.4701 -0.0374  0.8487
 2271SOL    HW2 7657   2.050   3.620   7.927  0.4362  0.2007 -0.5782
 2272SOL     OW 7658   1.127   0.757   4.272 -0.0130  0.0767 -0.1151
 2272SOL    HW1 7659   1.040   0.764   4.311 -0.4665 -0.0177 -1.0819
 2272SOL    HW2 7660   1.185   0.737   4.346 -0.6065  1.3857  0.7268
 2273SOL     OW 7661   8.190   7.183   1.244 -0.4057  0.4573 -0.1187
 2273SOL    HW1 7662   8.101   7.169   1.275 -0.6717  1.3101 -0.4621
 2273SOL    HW2 7663   8.190   7.145   1.156  0.3135 -1.8446  0.7987
 2274SOL     OW 7664   4.873   7.321   4.391  0.0025  0.5005 -0.7871
 2274SOL    HW1 7665   4.867   7.405   4.438  1.9657  0.5581 -0.5476
 2274SOL    HW2 7666   4.856   7.343   4.300 -0.3092  1.0160 -0.6093
 2275SOL     OW 7667   6.826   4.671   2.172  0.0148  0.3417  0.3357
 2275SOL    HW1 7668   6.812   4.653   2.265 -0.9125  0.5569  0.2538
 2275SOL    HW2 7669   6.744   4.645   2.130  0.2012  0.7986 -0.3369
 2276SOL     OW 7670   0.070   1.681   7.959  0.4239 -0.1259 -0.1125
 2276SOL    HW1 7671   0.125   1.694   8.036  0.3560  2.0083 -0.3678
 2276SOL    HW2 7672  -0.015   1.717   7.984  0.1313 -0.2810 -0.8588
 2277SOL     OW 7673   3.552   3.324   3.569 -0.1898  0.5721 -0.1150
 2277SOL    HW1 7674   3.538   3.230   3.581 -1.8254  0.7454 -0.3372
 2277SOL    HW2 7675   3.625   3.330   3.507  0.5482 -0.5216  0.6134
 2278SOL     OW 7676   4.196   5.440   6.378 -0.2665 -0.4042 -0.5936
 2278SOL    HW1 7677   4.113   5.488   6.378  0.1132  0.3643  1.2573
 2278SOL    HW2 7678   4.185   5.373   6.445  0.5622 -0.3698 -0.4120
 2279SOL     OW 7679   4.390   2.420   2.801  0.6297  0.4252 -0.2899
 2279SOL    HW1 7680   4.406   2.326   2.797 -0.2492  0.2940 -2.8138
 2279SOL    HW2 7681   4.471   2.457   2.836  0.4914 -1.3260  2.1158
 2280SOL     OW 7682   2.539   3.656   1.689 -0.5740 -0.8010  0.2222
 2280SOL    HW1 7683   2.514   3.749   1.687 -0.8067 -0.8558  0.4977
 2280SOL    HW2 7684   2.632   3.657   1.712 -0.5745 -0.6359  0.2185
 2281SOL     OW 7685   6.339   0.949   6.556  0.5156 -0.8333  0.6823
 2281SOL    HW1 7686   6.272   0.993   6.504 -0.4706 -2.6237  0.3303
 2281SOL    HW2 7687   6.360   1.009   6.627 -1.2036 -0.0788  0.5782
 2282SOL     OW 7688   0.850   6.134   6.793 -0.1367 -0.3525 -0.2578
 2282SOL    HW1 7689   0.897   6.112   6.873  0.9267 -0.7587 -0.9670
 2282SOL    HW2 7690   0.772   6.079   6.795  0.3944 -1.1122  0.0141
 2283SOL     OW 7691   6.604   4.479   0.996  0.1008 -0.0216 -0.4393
 2283SOL    HW1 7692   6.678   4.528   1.032  1.0998 -1.2461 -0.7728
 2283SOL    HW2 7693   6.640   4.394   0.972 -1.7737 -1.3399  1.0500
 2284SOL     OW 7694   4.595   0.891   3.987  0.4530 -0.0585 -0.2627
 2284SOL    HW1 7695   4.530   0.931   3.930 -1.4775 -1.6919  0.6559
 2284SOL    HW2 7696   4.557   0.806   4.011  1.6966  0.0425  2.4747
 2285SOL     OW 7697   1.128   4.732   4.875 -0.2256 -0.2887 -0.1624
 2285SOL    HW1 7698   1.112   4.643   4.844 -0.9456 -0.2304  0.0105
 2285SOL    HW2 7699   1.200   4.724   4.937 -1.9844 -1.1971  1.8777
 2286SOL     OW 7700   2.571   6.263   5.042 -0.8890  0.0805 -0.3472
 2286SOL    HW1 7701   2.572   6.339   4.984 -2.1720  0.2209 -0.2075
 2286SOL    HW2 7702   2.494   6.213   5.016  0.6656 -1.9475 -1.3576
 2287SOL     OW 7703   3.682   2.378   7.133  0.4226  0.1329 -0.0753
 2287SOL    HW1 7704   3.646   2.448   7.188 -1.7102 -0.8736 -0.0853
 2287SOL    HW2 7705   3.667   2.298   7.183  2.6604 -0.3809 -0.1499
 2288SOL     OW 7706   7.565   2.799   1.923 -0.4479  0.1713  0.4728
 2288SOL    HW1 7707   7.537   2.880   1.880  0.3944 -0.3662 -1.1738
 2288SOL    HW2 7708   7.615   2.752   1.856  1.3273 -0.5178  2.1937
 2289SOL     OW 7709   6.312   4.942   7.939  0.0587 -0.4871 -0.1155
 2289SOL    HW1 7710   6.321   4.867   7.880 -0.4914 -0.1387 -0.6592
 2289SOL    HW2 7711   6.223   4.934   7.973 -0.4285  0.5454 -1.0749
 2290SOL     OW 7712   4.939   0.305   4.733  0.3015  0.1862  0.2880
 2290SOL    HW1 7713   4.858   0.350   4.760  0.1061 -0.7360  1.3101
 2290SOL    HW2 7714   4.912   0.247   4.662  0.6328  1.9301 -1.3287
 2291SOL     OW 7715   2.595   0.473   3.822  0.4358 -0.1775  0.1539
 2291SOL    HW1 7716   2.513   0.510   3.791  0.1466 -0.2897  0.7593
 2291SOL    HW2 7717   2.588   0.476   3.918  0.7900 -0.9368  0.2163
 2292SOL     OW 7718   2.816   5.789   1.364 -0.2044 -0.3376  0.7311
 2292SOL    HW1 7719   2.804   5.843   1.442  2.1264  0.3626  0.6762
 2292SOL    HW2 7720   2.880   5.722   1.391 -0.1615 -0.7225 -0.2850
 2293SOL     OW 7721   3.483   7.427   4.069 -0.1980  0.4738  0.4897
 2293SOL    HW1 7722   3.443   7.433   4.156  3.2255  1.9780  2.1544
 2293SOL    HW2 7723   3.501   7.517   4.044 -0.9165  0.0580 -1.7800
 2294SOL     OW 7724   0.390   3.911   0.782 -0.4765 -0.1671  0.2176
 2294SOL    HW1 7725   0.331   3.987   0.789 -2.1801 -1.5273  1.7183
 2294SOL    HW2 7726   0.333   3.836   0.798  1.2126 -1.7746 -0.9411
 2295SOL     OW 7727   2.998   6.740   2.318  0.3032  0.0068  0.2733
 2295SOL    HW1 7728   3.084   6.774   2.344  0.4978  0.0774 -0.4294
 2295SOL    HW2 7729   2.944   6.817   2.306 -0.2286 -0.0796  1.8897
 2296SOL     OW 7730   1.307   1.482   2.495 -0.6280 -0.1037 -0.5808
 2296SOL    HW1 7731   1.317   1.490   2.590 -1.2287  0.5933 -0.5697
 2296SOL    HW2 7732   1.372   1.417   2.470  1.0367  1.2393  0.0346
 2297SOL     OW 7733   5.815   4.077   1.001 -0.0744  0.1356 -0.0427
 2297SOL    HW1 7734   5.759   4.076   1.079  0.2410 -0.9719  0.1958
 2297SOL    HW2 7735   5.903   4.056   1.035  0.5556  2.0574 -0.3790
 2298SOL     OW 7736   3.120   2.626   2.168 -0.0910  0.3157  0.3490
 2298SOL    HW1 7737   3.061   2.553   2.149 -1.3333  1.2956  0.2514
 2298SOL    HW2 7738   3.071   2.704   2.141  1.0863  1.2093  0.6823
 2299SOL     OW 7739   6.748   4.115   0.488  0.3255 -0.1399 -0.1880
 2299SOL    HW1 7740   6.718   4.058   0.558  1.6765  1.0307  1.4171
 2299SOL    HW2 7741   6.670   4.163   0.461 -0.2036 -0.5626  0.5490
 2300SOL     OW 7742   8.200   3.717   4.736 -0.0881 -0.0185  0.0781
 2300SOL    HW1 7743   8.290   3.684   4.733 -0.1009  0.0302 -1.2218
 2300SOL    HW2 7744   8.146   3.639   4.743 -0.0263 -0.1826 -1.1137
 2301SOL     OW 7745   1.077   6.331   6.860  0.0415  0.0740  0.4869
 2301SOL    HW1 7746   1.060   6.260   6.922 -1.1660 -1.0011 -0.9790
 2301SOL    HW2 7747   1.173   6.334   6.852  0.1402 -0.8363  1.1887
 2302SOL     OW 7748   4.904   6.460   7.738 -0.2729 -0.6561  0.2965
 2302SOL    HW1 7749   4.829   6.408   7.768 -0.2775 -0.5977  0.3883
 2302SOL    HW2 7750   4.874   6.500   7.657 -0.4158 -0.4669  0.4396
 2303SOL     OW 7751   2.698   0.769   6.372 -0.2792  0.1543  0.5040
 2303SOL    HW1 7752   2.603   0.761   6.381 -0.4932  2.6480  1.1837
 2303SOL    HW2 7753   2.716   0.862   6.382  2.0955  0.0000 -1.3504
 2304SOL     OW 7754   3.070   0.692   0.190 -0.5408 -0.1309 -0.8788
 2304SOL    HW1 7755   3.136   0.623   0.194 -0.1729  0.2667  0.0921
 2304SOL    HW2 7756   3.001   0.656   0.133  0.1031 -0.8873 -1.1926
 2305SOL     OW 7757   4.485   7.319   3.258 -0.4580  0.0473  0.2489
 2305SOL    HW1 7758   4.413   7.271   3.298  1.3221 -1.7029  1.5186
 2305SOL    HW2 7759   4.458   7.410   3.261 -1.3480 -0.2145  3.5220
 2306SOL     OW 7760   0.832   2.535   6.204  0.0925  0.2645 -0.1124
 2306SOL    HW1 7761   0.912   2.520   6.153  0.1341 -0.4382  0.1591
 2306SOL    HW2 7762   0.761   2.507   6.146  0.0337  0.8182 -0.3244
 2307SOL     OW 7763   2.482   6.538   4.247  0.2930  0.4259 -0.3972
 2307SOL    HW1 7764   2.419   6.514   4.179 -0.9372  0.8120  0.5755
 2307SOL    HW2 7765   2.539   6.462   4.255 -0.6026 -0.2906 -0.6853
 2308SOL     OW 7766   1.373   0.239   1.034 -0.2904  0.0387 -0.1977
 2308SOL    HW1 7767   1.334   0.289   0.962 -0.2763 -1.4163 -1.2602
 2308SOL    HW2 7768   1.403   0.158   0.993  0.5779 -0.4269  1.2864
 2309SOL     OW 7769   4.412   6.671   4.812 -0.0957  0.8470 -0.2640
 2309SOL    HW1 7770   4.377   6.758   4.793  0.6159  0.6542 -2.8364
 2309SOL    HW2 7771   4.363   6.612   4.754  1.6547  0.0442 -1.0089
 2310SOL     OW 7772   6.815   5.403   4.569  0.3717  0.3985  0.2771
 2310SOL    HW1 7773   6.909   5.420   4.558  0.6553 -0.5529  1.1294
 2310SOL    HW2 7774   6.797   5.425   4.660 -0.3797  1.1364 -0.0333
 2311SOL     OW 7775   1.183   2.054   3.983  0.2281  0.5101 -0.2625
 2311SOL    HW1 7776   1.177   2.047   3.887  0.9551 -0.4963 -0.2536
 2311SOL    HW2 7777   1.116   1.992   4.014  0.1599  0.6559 -0.1232
 2312SOL     OW 7778   6.563   5.015   7.380  0.1244 -0.0848 -0.4303
 2312SOL    HW1 7779   6.644   4.965   7.377 -0.1407 -0.4726 -1.2129
 2312SOL    HW2 7780   6.522   4.991   7.463 -0.3369 -1.7102 -1.0999
 2313SOL     OW 7781   2.362   7.862   3.294 -0.2413 -0.1694 -0.2197
 2313SOL    HW1 7782   2.377   7.952   3.324  0.1713  0.2200 -1.5089
 2313SOL    HW2 7783   2.310   7.871   3.215 -2.2279 -1.2286  0.9049
 2314SOL     OW 7784   7.083   3.145   7.544 -0.0164 -0.3893  0.2176
 2314SOL    HW1 7785   6.992   3.123   7.527  0.6618 -3.0828 -0.4404
 2314SOL    HW2 7786   7.124   3.149   7.457  0.8822 -1.3844  0.5612
 2315SOL     OW 7787   0.109   7.089   4.754  0.1229  0.2729 -0.0017
 2315SOL    HW1 7788   0.120   7.128   4.668  0.3419  2.9005  1.1112
 2315SOL    HW2 7789   0.019   7.108   4.778 -0.5407 -2.1102 -0.3421
 2316SOL     OW 7790   7.765   3.549   1.190 -0.3228  0.2820  0.1658
 2316SOL    HW1 7791   7.706   3.617   1.222 -1.9151 -0.2460 -1.4880
 2316SOL    HW2 7792   7.719   3.510   1.116  1.8532 -0.5931 -0.8177
 2317SOL     OW 7793   1.046   0.499   2.920  0.0372 -0.1175 -0.2980
 2317SOL    HW1 7794   1.007   0.574   2.875 -3.2692 -1.1651  0.5846
 2317SOL    HW2 7795   1.009   0.502   3.008  2.0536 -1.2422  0.6660
 2318SOL     OW 7796   1.792   3.398   4.856 -0.0534 -0.3942  0.1890
 2318SOL    HW1 7797   1.738   3.419   4.779 -0.4109  0.5257  0.6818
 2318SOL    HW2 7798   1.807   3.303   4.849  1.1735 -0.1098 -1.8155
 2319SOL     OW 7799   1.970   2.782   2.252  0.1368  0.6410  0.1410
 2319SOL    HW1 7800   2.051   2.750   2.290  0.4217 -1.0050 -1.6482
 2319SOL    HW2 7801   1.992   2.869   2.218  1.0797  0.3291 -0.0798
 2320SOL     OW 7802   6.998   4.097   3.945  0.2149 -0.1711 -0.1096
 2320SOL    HW1 7803   7.089   4.073   3.963 -0.3892 -1.7504  0.9578
 2320SOL    HW2 7804   6.968   4.139   4.026 -0.6882 -1.7950  0.4334
 2321SOL     OW 7805   7.613   1.844   7.114 -0.1145 -0.3503  0.6864
 2321SOL    HW1 7806   7.557   1.920   7.097  2.3832  1.1587 -1.8134
 2321SOL    HW2 7807   7.694   1.882   7.151  1.3628 -1.6666 -1.0067
 2322SOL     OW 7808   2.108   7.287   5.754 -0.4023 -0.5710  0.3170
 2322SOL    HW1 7809   2.097   7.264   5.662 -1.8111 -1.9531  0.8043
 2322SOL    HW2 7810   2.159   7.369   5.751  0.9906 -1.4187 -1.6068
 2323SOL     OW 7811   5.838   6.924   4.700  0.2449  0.5055 -0.2834
 2323SOL    HW1 7812   5.830   6.930   4.605 -0.8062  1.4926 -0.1560
 2323SOL    HW2 7813   5.826   7.014   4.730  1.9023  0.4422  0.7166
 2324SOL     OW 7814   3.512   7.849   4.680  0.6949  0.1162  0.5868
 2324SOL    HW1 7815   3.518   7.930   4.629  1.9318 -0.5817 -0.4387
 2324SOL    HW2 7816   3.426   7.853   4.721  0.4490  1.6160 -0.0053
 2325SOL     OW 7817   4.927   7.734   5.812 -1.3231  0.3880 -0.1430
 2325SOL    HW1 7818   4.926   7.809   5.871 -0.2734  0.3733 -0.0856
 2325SOL    HW2 7819   5.008   7.744   5.762 -0.4856 -1.3818  0.7601
 2326SOL     OW 7820   5.209   5.624   1.755 -0.1318  0.3679  0.0165
 2326SOL    HW1 7821   5.251   5.568   1.821 -1.4695  0.9809  1.4410
 2326SOL    HW2 7822   5.116   5.605   1.763 -0.3544  0.6721 -1.5309
 2327SOL     OW 7823   4.834   2.115   0.695 -0.0742 -0.4785 -0.3623
 2327SOL    HW1 7824   4.852   2.084   0.606 -0.7474 -0.6071 -0.4585
 2327SOL    HW2 7825   4.834   2.035   0.748 -0.5692 -0.5037 -0.4000
 2328SOL     OW 7826   1.822   0.732   2.250 -0.2897 -0.0437  0.3640
 2328SOL    HW1 7827   1.730   0.760   2.244 -0.6163 -1.1745 -0.3437
 2328SOL    HW2 7828   1.852   0.729   2.159  0.0406 -0.8952  0.4883
 2329SOL     OW 7829   5.258   3.081   4.750  0.3513 -0.0716 -0.1537
 2329SOL    HW1 7830   5.192   3.011   4.745 -0.6386  0.5505  2.4190
 2329SOL    HW2 7831   5.226   3.148   4.691  0.6023 -1.2179 -1.6445
 2330SOL     OW 7832   1.318   0.835   5.061  0.2583  0.1231 -0.3962
 2330SOL    HW1 7833   1.316   0.926   5.090 -1.0622 -0.1151  0.3166
 2330SOL    HW2 7834   1.258   0.790   5.120  0.4630 -1.1050 -1.1077
 2331SOL     OW 7835   3.377   4.288   3.211 -0.5676  0.5465  0.9074
 2331SOL    HW1 7836   3.345   4.279   3.301 -0.5815  1.2897  0.9800
 2331SOL    HW2 7837   3.453   4.229   3.208 -0.2925  0.8539  1.5444
 2332SOL     OW 7838   2.802   4.913   2.534 -0.4982 -0.2453 -0.2133
 2332SOL    HW1 7839   2.820   4.899   2.627 -0.9418 -2.9353 -0.4438
 2332SOL    HW2 7840   2.839   4.999   2.515  0.4031 -0.0104  2.2465
 2333SOL     OW 7841   3.680   7.367   3.782  0.1225 -0.5448 -0.0509
 2333SOL    HW1 7842   3.675   7.349   3.876  2.2280 -1.9637 -0.1198
 2333SOL    HW2 7843   3.615   7.309   3.743 -0.2483 -0.4875  0.4739
 2334SOL     OW 7844   0.865   2.909   0.046  0.3311 -0.6809  0.4184
 2334SOL    HW1 7845   0.950   2.952   0.055 -0.1827  0.6300 -0.6699
 2334SOL    HW2 7846   0.807   2.955   0.107  0.3449 -1.4737  1.0483
 2335SOL     OW 7847   1.862   1.530   6.167  0.1639 -0.3291 -0.5877
 2335SOL    HW1 7848   1.921   1.547   6.240 -0.4390  1.1902 -0.4060
 2335SOL    HW2 7849   1.919   1.518   6.091  0.7908 -1.7847  0.0733
 2336SOL     OW 7850   5.172   4.470   3.532 -0.3152 -0.1765 -0.0574
 2336SOL    HW1 7851   5.262   4.475   3.499 -0.1680 -1.1067  0.1771
 2336SOL    HW2 7852   5.174   4.518   3.614 -0.7316  2.3417 -1.4270
 2337SOL     OW 7853   4.368   6.095   4.832  0.3468  0.0824 -0.2360
 2337SOL    HW1 7854   4.454   6.064   4.805  0.5929 -0.3654  1.0038
 2337SOL    HW2 7855   4.386   6.170   4.889 -0.0563 -0.3970  0.5314
 2338SOL     OW 7856   4.356   2.169   0.075 -0.1800 -0.0850  0.4294
 2338SOL    HW1 7857   4.388   2.083   0.101  2.3836  0.6736  0.0581
 2338SOL    HW2 7858   4.297   2.152   0.002  0.7343 -1.5074 -0.0206
 2339SOL     OW 7859   5.529   2.852   2.276  0.1218 -0.2331 -0.2309
 2339SOL    HW1 7860   5.455   2.907   2.249  0.2090 -0.3392 -0.7037
 2339SOL    HW2 7861   5.494   2.763   2.275 -0.1437 -0.1605  0.9689
 2340SOL     OW 7862   6.417   5.711   3.833 -0.0366 -0.2031 -0.3009
 2340SOL    HW1 7863   6.325   5.715   3.857 -0.5001  2.8083 -2.0670
 2340SOL    HW2 7864   6.464   5.732   3.914 -1.0529  0.4372  0.1346
 2341SOL     OW 7865   7.673   5.618   7.110  0.2164 -0.1663 -0.2113
 2341SOL    HW1 7866   7.715   5.637   7.194  0.2040 -1.6135  0.1475
 2341SOL    HW2 7867   7.593   5.571   7.134  0.6950 -1.4416 -1.0638
 2342SOL     OW 7868   4.531   1.385   0.227  0.0388 -0.0317 -0.2548
 2342SOL    HW1 7869   4.482   1.315   0.271  0.1020  0.2961  0.3366
 2342SOL    HW2 7870   4.622   1.356   0.228  0.6119  1.4753  2.8979
 2343SOL     OW 7871   2.515   6.858   1.598 -0.0320 -0.2123 -0.2986
 2343SOL    HW1 7872   2.472   6.794   1.656  0.4444  0.1878  0.5115
 2343SOL    HW2 7873   2.544   6.806   1.523 -0.8849 -0.6966 -0.3040
 2344SOL     OW 7874   1.481   5.333   3.871 -0.0103  0.4402 -0.3621
 2344SOL    HW1 7875   1.390   5.332   3.901  0.0239  0.8108 -0.2423
 2344SOL    HW2 7876   1.478   5.373   3.784  0.2207  1.9157  0.2811
 2345SOL     OW 7877   3.944   6.953   1.438  0.0794 -0.2644  0.4246
 2345SOL    HW1 7878   4.019   6.897   1.417 -0.5815  0.2234 -4.0527
 2345SOL    HW2 7879   3.873   6.892   1.457  0.2870 -0.9040 -0.7601
 2346SOL     OW 7880   4.812   0.914   2.138 -0.6140 -0.2721  0.0089
 2346SOL    HW1 7881   4.801   0.990   2.080  1.1334 -0.9277 -1.2505
 2346SOL    HW2 7882   4.732   0.863   2.125 -0.3719 -0.2871 -1.7068
 2347SOL     OW 7883   2.681   5.287   1.409  0.2472  0.3620  0.2807
 2347SOL    HW1 7884   2.755   5.237   1.442 -0.2232  0.4967  1.5870
 2347SOL    HW2 7885   2.700   5.378   1.434 -0.6310  0.3180  1.2012
 2348SOL     OW 7886   4.743   5.180   2.617 -0.3379  0.5323 -0.0789
 2348SOL    HW1 7887   4.805   5.115   2.584 -2.0600 -0.4134 -1.6512
 2348SOL    HW2 7888   4.796   5.257   2.635  1.5203 -0.7537  0.2397
 2349SOL     OW 7889   5.550   1.132   6.017 -0.1450  0.7591  0.0644
 2349SOL    HW1 7890   5.631   1.176   5.992  0.0064  0.6351  0.3252
 2349SOL    HW2 7891   5.558   1.119   6.112 -0.8678  1.5585  0.2454
 2350SOL     OW 7892   2.392   0.949   3.309 -0.5429 -0.0499 -0.5416
 2350SOL    HW1 7893   2.474   0.966   3.263  0.9534 -0.2294  1.8654
 2350SOL    HW2 7894   2.325   0.994   3.257  1.2515  1.1126 -1.9587
 2351SOL     OW 7895   0.738   7.986   6.232 -0.1589  0.3314  0.1693
 2351SOL    HW1 7896   0.794   8.061   6.252  1.1790 -0.7009  0.4057
 2351SOL    HW2 7897   0.738   7.980   6.136 -0.8234  1.0115  0.1127
 2352SOL     OW 7898   4.661   1.277   2.870 -0.0818  0.1896  0.3133
 2352SOL    HW1 7899   4.641   1.369   2.885  0.9865  0.4599  0.1013
 2352SOL    HW2 7900   4.613   1.231   2.939 -0.4873  0.9103  0.5210
 2353SOL     OW 7901   6.015   3.892   1.128  0.6528  0.0734  0.0810
 2353SOL    HW1 7902   6.033   3.798   1.134  0.2776  0.0581  1.1658
 2353SOL    HW2 7903   6.074   3.933   1.191  0.5401  0.5319 -0.1035
 2354SOL     OW 7904   3.047   7.753   0.035 -0.2210  0.0528  0.2084
 2354SOL    HW1 7905   3.037   7.716  -0.053  0.6642  2.5085 -1.0010
 2354SOL    HW2 7906   2.962   7.791   0.056 -0.7248 -1.3749  0.8789
 2355SOL     OW 7907   6.980   6.163   5.122  0.4406  0.2120 -0.3686
 2355SOL    HW1 7908   6.979   6.156   5.218 -0.7096 -0.2122 -0.3924
 2355SOL    HW2 7909   6.927   6.240   5.103  1.8861  1.1859 -0.6368
 2356SOL     OW 7910   3.774   0.663   5.365 -0.1654  0.1745  0.0012
 2356SOL    HW1 7911   3.703   0.656   5.429  0.3536 -0.0093  0.5664
 2356SOL    HW2 7912   3.743   0.726   5.300 -0.6329  0.4749  0.5182
 2357SOL     OW 7913   5.359   2.882   6.092 -0.1819  0.7733  0.4216
 2357SOL    HW1 7914   5.370   2.952   6.157 -0.0831  1.3866 -0.2307
 2357SOL    HW2 7915   5.365   2.928   6.008  1.0251 -0.1906 -0.0437
 2358SOL     OW 7916   0.510   5.135   3.128 -0.2879 -0.3101  0.1974
 2358SOL    HW1 7917   0.538   5.205   3.069 -0.7142 -0.9723 -0.8158
 2358SOL    HW2 7918   0.576   5.066   3.116  0.2945  0.0132  1.4071
 2359SOL     OW 7919   4.321   5.132   6.005 -0.2697 -0.1748  0.1692
 2359SOL    HW1 7920   4.371   5.191   6.062  1.6606  0.1103 -1.7062
 2359SOL    HW2 7921   4.245   5.183   5.978 -0.0479  0.4699  0.7447
 2360SOL     OW 7922   5.415   5.693   1.121  0.0800  0.0400  0.1254
 2360SOL    HW1 7923   5.477   5.621   1.130 -0.5434 -0.8123 -1.8815
 2360SOL    HW2 7924   5.374   5.701   1.207  2.4642  0.2128  1.3296
 2361SOL     OW 7925   2.395   2.313   3.739  0.1884  0.5112 -0.1934
 2361SOL    HW1 7926   2.410   2.358   3.822  1.9493  0.2010 -0.2942
 2361SOL    HW2 7927   2.351   2.377   3.684  0.5024  1.2941  0.4449
 2362SOL     OW 7928   7.872   5.555   7.893  0.5722  0.0276  0.2505
 2362SOL    HW1 7929   7.930   5.508   7.834 -1.4045 -0.6153 -1.2958
 2362SOL    HW2 7930   7.877   5.646   7.864 -0.3846 -0.2841 -0.9682
 2363SOL     OW 7931   7.652   6.289   4.416  0.1463 -0.4589 -0.0836
 2363SOL    HW1 7932   7.635   6.271   4.324  2.1350 -0.1502 -0.5546
 2363SOL    HW2 7933   7.741   6.258   4.431  0.2596  0.4871  1.4489
 2364SOL     OW 7934   7.102   5.870   7.213  0.4280  0.5764  0.2877
 2364SOL    HW1 7935   7.172   5.806   7.227  0.1605  0.7680  3.0271
 2364SOL    HW2 7936   7.053   5.871   7.295 -2.1021  1.3267 -1.1015
 2365SOL     OW 7937   5.467   2.689   0.161  0.0978  0.0358  0.0820
 2365SOL    HW1 7938   5.408   2.696   0.235  1.0906 -0.1529  0.9191
 2365SOL    HW2 7939   5.410   2.674   0.086 -0.9119  0.0082  0.8339
 2366SOL     OW 7940   5.357   5.566   6.296 -0.3881  0.0560 -0.4900
 2366SOL    HW1 7941   5.294   5.542   6.227 -0.6706 -1.2524  0.1905
 2366SOL    HW2 7942   5.302   5.597   6.368 -0.4162 -2.1784  0.5475
 2367SOL     OW 7943   0.520   1.220   2.450 -0.1540  0.3716 -0.5076
 2367SOL    HW1 7944   0.489   1.139   2.411 -1.6183  1.1643 -1.0577
 2367SOL    HW2 7945   0.525   1.281   2.376  0.1086  1.0187  0.0409
 2368SOL     OW 7946   7.680   2.151   4.239 -0.1349  0.4161  0.2836
 2368SOL    HW1 7947   7.609   2.096   4.272  0.2660 -0.5389 -0.4051
 2368SOL    HW2 7948   7.636   2.222   4.192 -0.6477 -0.7858 -1.1219
 2369SOL     OW 7949   8.108   5.996   2.451 -0.0407 -0.2207 -0.3180
 2369SOL    HW1 7950   8.196   6.030   2.467 -0.0553  0.4189 -1.4886
 2369SOL    HW2 7951   8.113   5.904   2.478  1.0154 -0.2300 -0.4840
 2370SOL     OW 7952   7.658   0.040   6.148 -1.0238 -0.7212 -0.3909
 2370SOL    HW1 7953   7.675  -0.036   6.092  0.0789 -0.4710 -0.4225
 2370SOL    HW2 7954   7.745   0.068   6.177 -1.2553  1.3934 -1.5298
 2371SOL     OW 7955   4.038   5.410   3.838  0.0196  0.2329  0.0881
 2371SOL    HW1 7956   4.024   5.438   3.747  1.2400 -0.5544 -0.3713
 2371SOL    HW2 7957   4.095   5.334   3.830  1.5882  1.1954  1.6215
 2372SOL     OW 7958   3.584   1.518   0.840  0.5579 -0.4066 -0.4111
 2372SOL    HW1 7959   3.595   1.605   0.800  1.4105 -0.1680  0.3036
 2372SOL    HW2 7960   3.665   1.472   0.818  1.1543 -0.1847  1.2176
 2373SOL     OW 7961   3.420   0.947   4.646  0.3148  0.4455  0.1958
 2373SOL    HW1 7962   3.391   0.924   4.734  0.4954 -1.3068 -0.1569
 2373SOL    HW2 7963   3.367   0.892   4.588  1.0512  0.6639 -0.7097
 2374SOL     OW 7964   3.916   6.449   1.531 -0.2223  0.7909 -0.0128
 2374SOL    HW1 7965   3.841   6.393   1.512  1.7900 -1.5994 -1.4213
 2374SOL    HW2 7966   3.924   6.447   1.626 -1.2522  0.1730  0.0769
 2375SOL     OW 7967   7.188   5.275   2.003 -0.4973 -0.3100 -0.1247
 2375SOL    HW1 7968   7.152   5.192   2.035 -0.6548 -0.9740 -1.9080
 2375SOL    HW2 7969   7.281   5.270   2.022 -0.1233 -1.8554 -2.0014
 2376SOL     OW 7970   1.396   3.285   3.553 -0.2703 -0.6689 -0.4418
 2376SOL    HW1 7971   1.460   3.233   3.603 -0.3085  0.6388  1.0713
 2376SOL    HW2 7972   1.311   3.251   3.579 -0.2803 -0.1470  0.2564
 2377SOL     OW 7973   3.856   3.318   7.040  0.0773  0.1621 -0.2262
 2377SOL    HW1 7974   3.933   3.279   7.083  1.3848  0.6802 -1.9816
 2377SOL    HW2 7975   3.783   3.262   7.067  0.7336  0.5671  2.7698
 2378SOL     OW 7976   1.429   2.889   5.925  0.5839  0.6253 -0.3562
 2378SOL    HW1 7977   1.438   2.982   5.943  0.8573  0.7512 -1.1333
 2378SOL    HW2 7978   1.350   2.863   5.974  0.8365  1.1313  0.3269
 2379SOL     OW 7979   7.149   0.351   0.274 -0.3056 -0.4862 -0.5043
 2379SOL    HW1 7980   7.177   0.327   0.362 -0.8347  0.8267  0.0493
 2379SOL    HW2 7981   7.176   0.443   0.264 -1.4412 -0.2053 -1.2013
 2380SOL     OW 7982   4.271   2.467   7.686  0.2131 -0.2432  0.1059
 2380SOL    HW1 7983   4.283   2.408   7.611 -1.2182  0.6093 -0.8303
 2380SOL    HW2 7984   4.177   2.468   7.702  0.2584  1.3530  0.4434
 2381SOL     OW 7985   4.690   5.274   1.993 -1.2863 -0.4292 -0.4671
 2381SOL    HW1 7986   4.679   5.244   2.083 -0.4396  1.9766  0.5280
 2381SOL    HW2 7987   4.785   5.276   1.980 -1.3142  1.1403 -0.6562
 2382SOL     OW 7988   1.049   0.425   5.271  0.0940 -0.3871  1.0904
 2382SOL    HW1 7989   0.980   0.490   5.277  0.1890 -0.1701  0.0239
 2382SOL    HW2 7990   1.014   0.359   5.210  1.3090  0.3727 -0.4890
 2383SOL     OW 7991   0.387   8.068   5.449  0.0153  0.2499 -0.0799
 2383SOL    HW1 7992   0.357   8.085   5.539  0.8545  0.1751  0.2162
 2383SOL    HW2 7993   0.472   8.025   5.459  0.3590  0.7076 -0.9212
 2384SOL     OW 7994   4.283   0.797   1.285  0.4455  0.1440  0.1582
 2384SOL    HW1 7995   4.249   0.727   1.229  1.3503 -1.0711  1.0775
 2384SOL    HW2 7996   4.329   0.855   1.225  1.3980 -1.1354 -0.3947
 2385SOL     OW 7997   6.856   8.075   0.502 -0.2448 -0.0070  0.1974
 2385SOL    HW1 7998   6.791   8.028   0.449 -0.0650 -0.7213  0.5942
 2385SOL    HW2 7999   6.865   8.021   0.581  1.2487 -0.2268 -0.1010
 2386SOL     OW 8000   4.444   0.838   1.697  0.2009 -0.0219 -0.0868
 2386SOL    HW1 8001   4.473   0.885   1.775  0.2569 -1.2453  0.6432
 2386SOL    HW2 8002   4.430   0.907   1.632  1.0657  0.9310  0.7029
 2387SOL     OW 8003   5.269   6.761   2.400 -0.3129  0.0915 -0.7440
 2387SOL    HW1 8004   5.217   6.797   2.328 -0.1220  0.0038 -0.9262
 2387SOL    HW2 8005   5.345   6.722   2.358 -0.4629 -0.4308 -0.5392
 2388SOL     OW 8006   5.509   1.762   7.612  0.1235 -0.2489 -0.6599
 2388SOL    HW1 8007   5.501   1.851   7.648 -1.5815 -0.7215  0.2195
 2388SOL    HW2 8008   5.591   1.729   7.649 -0.3259  0.1957  0.7932
 2389SOL     OW 8009   6.451   3.541   1.324 -0.3638 -0.5350 -0.3887
 2389SOL    HW1 8010   6.513   3.480   1.363  0.5454  0.8293  0.3677
 2389SOL    HW2 8011   6.370   3.529   1.374  0.3325  0.1045  0.9309
 2390SOL     OW 8012   0.967   6.566   2.135  0.0623  0.1645  0.5532
 2390SOL    HW1 8013   0.963   6.495   2.198  0.0482 -2.3660 -2.0806
 2390SOL    HW2 8014   0.880   6.606   2.138 -0.5118 -1.0738  0.8734
 2391SOL     OW 8015   1.886   8.112   2.450 -0.1149 -0.1886 -0.1323
 2391SOL    HW1 8016   1.956   8.111   2.385  0.6542  1.3888  0.6072
 2391SOL    HW2 8017   1.906   8.037   2.507 -1.0619 -1.8775 -1.8816
 2392SOL     OW 8018   3.482   3.076   4.499 -0.1200  0.0067 -0.1295
 2392SOL    HW1 8019   3.575   3.096   4.512 -0.4124  1.1658  0.3117
 2392SOL    HW2 8020   3.474   2.984   4.523  0.6607  0.2704  1.3079
 2393SOL     OW 8021   2.922   0.773   2.591 -0.0254  0.9222 -0.0733
 2393SOL    HW1 8022   2.990   0.821   2.639  0.1394  0.3500  0.2790
 2393SOL    HW2 8023   2.851   0.762   2.654  0.4384 -0.3684  0.2621
 2394SOL     OW 8024   0.473   6.776   3.851 -0.2650 -0.2969 -0.0005
 2394SOL    HW1 8025   0.456   6.865   3.821  1.0424  0.5606  1.6035
 2394SOL    HW2 8026   0.388   6.743   3.878 -0.8144  0.3488 -0.8997
 2395SOL     OW 8027   7.292   0.153   0.807  0.2575  0.0943  0.5778
 2395SOL    HW1 8028   7.244   0.179   0.886  0.0492 -1.5963  1.0466
 2395SOL    HW2 8029   7.232   0.094   0.762  0.9771 -0.1404 -0.0798
 2396SOL     OW 8030   5.061   3.581   2.281 -0.1523 -0.1473  0.0532
 2396SOL    HW1 8031   5.154   3.606   2.281 -0.7190  2.2477 -0.3253
 2396SOL    HW2 8032   5.050   3.532   2.200  1.1458 -2.1870  1.0452
 2397SOL     OW 8033   4.202   1.370   6.734 -0.1506  0.8345 -0.6174
 2397SOL    HW1 8034   4.148   1.293   6.747  0.9954 -0.0053 -0.6214
 2397SOL    HW2 8035   4.213   1.408   6.821  1.0815 -0.2968 -0.2414
 2398SOL     OW 8036   5.652   7.558   0.301 -0.6381  0.4884  0.8703
 2398SOL    HW1 8037   5.581   7.536   0.362 -1.1344  0.0462  0.1610
 2398SOL    HW2 8038   5.621   7.525   0.216  0.4785  0.1702  0.5710
 2399SOL     OW 8039   3.367   6.355   7.394 -0.4097  0.0236 -0.0599
 2399SOL    HW1 8040   3.441   6.301   7.365 -0.5006 -0.5234  0.7121
 2399SOL    HW2 8041   3.341   6.317   7.478 -0.9164  0.8445  0.1623
 2400SOL     OW 8042   6.031   4.678   1.605  0.2630  0.0150 -0.2449
 2400SOL    HW1 8043   5.953   4.626   1.624 -0.0746  1.0023  1.1513
 2400SOL    HW2 8044   5.999   4.749   1.550  0.1675  0.4120  0.3166
 2401SOL     OW 8045   2.052   4.562   2.490  0.0064  0.4848 -0.4477
 2401SOL    HW1 8046   2.051   4.466   2.491  0.2654  0.4647 -1.3568
 2401SOL    HW2 8047   1.967   4.586   2.451 -0.0786  0.6269 -0.1759
 2402SOL     OW 8048   3.455   1.911   1.504  0.2307  0.4096  0.1183
 2402SOL    HW1 8049   3.413   1.891   1.588 -0.7378 -0.6001 -0.5748
 2402SOL    HW2 8050   3.418   1.996   1.479 -1.5994 -0.5157 -0.5425
 2403SOL     OW 8051   0.589   3.588   0.290 -0.3612  0.4550  0.1926
 2403SOL    HW1 8052   0.528   3.647   0.246 -0.1825  1.1160  0.8177
 2403SOL    HW2 8053   0.595   3.512   0.231 -1.6080  0.4696  0.0112
 2404SOL     OW 8054   0.921   3.995   0.817 -0.0022  0.2730  0.1469
 2404SOL    HW1 8055   0.898   4.060   0.883  1.4990 -0.3478  1.3481
 2404SOL    HW2 8056   0.837   3.954   0.794 -0.7749  1.6463  0.3837
 2405SOL     OW 8057   8.201   4.861   1.747  0.6173  0.2581  0.1149
 2405SOL    HW1 8058   8.264   4.807   1.795 -0.3579  0.1936  1.3582
 2405SOL    HW2 8059   8.227   4.951   1.766 -0.6154  0.2658  2.0204
 2406SOL     OW 8060   1.286   3.472   7.288  0.3281 -0.2370 -0.2842
 2406SOL    HW1 8061   1.334   3.430   7.359 -0.2091 -1.6237 -0.7010
 2406SOL    HW2 8062   1.332   3.445   7.209 -0.4845 -0.7258 -0.6143
 2407SOL     OW 8063   6.649   1.264   0.465  0.1937  0.3866  0.0736
 2407SOL    HW1 8064   6.649   1.195   0.532 -0.2174 -0.7420 -1.0608
 2407SOL    HW2 8065   6.736   1.304   0.473  1.2531 -1.6389 -0.5901
 2408SOL     OW 8066   3.587   0.033   1.191  0.2029  0.8727  0.4847
 2408SOL    HW1 8067   3.620   0.120   1.168 -0.6178  1.4489  1.4492
 2408SOL    HW2 8068   3.554  -0.002   1.109  0.1450  1.6413  0.1701
 2409SOL     OW 8069   3.623   6.555   2.396 -0.1533  0.1350 -0.1795
 2409SOL    HW1 8070   3.695   6.618   2.400 -0.3064  0.2674  0.9628
 2409SOL    HW2 8071   3.654   6.481   2.449 -1.5137  0.9362  1.8634
 2410SOL     OW 8072   2.774   3.552   5.804  0.0778  0.0255 -0.2460
 2410SOL    HW1 8073   2.801   3.463   5.781 -0.1954 -0.8643  2.5979
 2410SOL    HW2 8074   2.688   3.541   5.844 -0.1627  1.6567 -0.2594
 2411SOL     OW 8075   5.202   7.410   8.050  0.1603  0.0250  0.2278
 2411SOL    HW1 8076   5.234   7.382   7.964 -0.4325 -2.0515  0.6222
 2411SOL    HW2 8077   5.213   7.505   8.050  2.4759 -0.1598 -1.1995
 2412SOL     OW 8078   0.543   5.991   1.537 -0.5800 -0.0939  0.3237
 2412SOL    HW1 8079   0.591   6.065   1.499 -0.5006 -0.2090  0.1985
 2412SOL    HW2 8080   0.557   5.999   1.632 -1.5839  0.7541  0.4077
 2413SOL     OW 8081   4.793   5.892   7.383  0.0753 -0.0620  0.0855
 2413SOL    HW1 8082   4.817   5.804   7.410  2.1917  0.8825  1.5775
 2413SOL    HW2 8083   4.702   5.885   7.355  0.4125 -2.8510 -0.6105
 2414SOL     OW 8084   0.494   4.513   2.344  0.5194 -0.0946 -0.0986
 2414SOL    HW1 8085   0.466   4.423   2.331 -0.5691  0.2028  0.1231
 2414SOL    HW2 8086   0.590   4.509   2.341  0.4713 -1.1941 -0.4466
 2415SOL     OW 8087   1.961   2.407   6.707 -0.0681  0.2865 -0.3177
 2415SOL    HW1 8088   1.890   2.400   6.770  0.6223  0.4027  0.4941
 2415SOL    HW2 8089   1.957   2.326   6.656  0.9368 -1.0442  1.5739
 2416SOL     OW 8090   3.300   2.369   3.515  0.0282 -0.1806 -0.0823
 2416SOL    HW1 8091   3.300   2.407   3.602 -0.3365 -0.9829  0.2828
 2416SOL    HW2 8092   3.350   2.288   3.524  0.0016 -0.2614 -0.6209
 2417SOL     OW 8093   3.265   0.498   2.322  0.1219 -0.0020 -0.5686
 2417SOL    HW1 8094   3.214   0.527   2.246 -2.4531 -0.8352  0.7032
 2417SOL    HW2 8095   3.248   0.565   2.389  0.4795 -0.4316 -0.0373
 2418SOL     OW 8096   7.740   6.617   0.607  0.0835 -0.4845  1.0879
 2418SOL    HW1 8097   7.741   6.568   0.525  0.1635 -1.1212  1.4581
 2418SOL    HW2 8098   7.749   6.550   0.675 -0.8048 -0.0533  1.6554
 2419SOL     OW 8099   7.203   7.703   5.840  0.0735 -0.0921 -0.0216
 2419SOL    HW1 8100   7.173   7.708   5.750  1.4855  0.6479 -0.4924
 2419SOL    HW2 8101   7.233   7.613   5.851  0.7428  0.0490 -0.6016
 2420SOL     OW 8102   2.767   2.564   2.607 -0.2083  0.4292  0.2263
 2420SOL    HW1 8103   2.695   2.626   2.597 -0.2151  0.3136 -0.4362
 2420SOL    HW2 8104   2.732   2.480   2.577  0.0281  0.2551  0.4331
 2421SOL     OW 8105   5.485   5.883   1.906  0.6459  0.2108  0.4672
 2421SOL    HW1 8106   5.540   5.888   1.828  0.9350  1.1090  0.7220
 2421SOL    HW2 8107   5.401   5.921   1.879  0.9419  1.0900  0.7531
 2422SOL     OW 8108   5.017   2.298   3.831  0.0029  0.3480 -0.1165
 2422SOL    HW1 8109   5.091   2.260   3.784  1.4416  1.6380  1.0233
 2422SOL    HW2 8110   4.992   2.230   3.894  1.0026  0.3599  0.3013
 2423SOL     OW 8111   1.050   3.168   6.849 -0.1645  0.1737 -0.2569
 2423SOL    HW1 8112   0.956   3.181   6.863 -0.2673 -1.4106  0.8316
 2423SOL    HW2 8113   1.091   3.194   6.931  0.6262  2.6893 -1.3343
 2424SOL     OW 8114   0.769   1.489   6.171  0.0234  1.0641 -0.1801
 2424SOL    HW1 8115   0.861   1.517   6.174 -0.1775  1.6585  1.3765
 2424SOL    HW2 8116   0.743   1.483   6.263 -0.9043 -1.1327 -0.5204
 2425SOL     OW 8117   3.317   4.792   7.379 -0.0375  0.2426 -0.2612
 2425SOL    HW1 8118   3.240   4.771   7.430  0.8425 -2.3956  0.1263
 2425SOL    HW2 8119   3.304   4.746   7.296  0.6418  0.6538 -0.6039
 2426SOL     OW 8120   8.013   5.315   4.699  0.2901  0.0958 -0.0269
 2426SOL    HW1 8121   8.001   5.282   4.788  1.1986 -3.4269 -1.0308
 2426SOL    HW2 8122   8.106   5.300   4.680 -0.1403 -0.4340 -1.9473
 2427SOL     OW 8123   5.278   5.346   0.206  0.6942 -0.1671  0.2590
 2427SOL    HW1 8124   5.233   5.287   0.146  0.9213 -1.6591  1.5019
 2427SOL    HW2 8125   5.227   5.342   0.287 -0.3753  2.8273 -0.1303
 2428SOL     OW 8126   2.659   1.712   3.856 -0.0544  0.6710 -0.0041
 2428SOL    HW1 8127   2.720   1.645   3.824  0.9743  1.7050 -0.2514
 2428SOL    HW2 8128   2.572   1.676   3.835  0.5158  0.3811 -2.1838
 2429SOL     OW 8129   2.062   2.842   0.932 -0.2229 -0.4178  0.0026
 2429SOL    HW1 8130   2.053   2.825   1.026  0.4857  0.2963  0.2115
 2429SOL    HW2 8131   2.010   2.774   0.890  0.3867 -1.4480  0.8827
 2430SOL     OW 8132   7.921   4.887   1.789 -0.2496 -0.2577  0.0342
 2430SOL    HW1 8133   8.000   4.835   1.802 -0.6337 -0.8704 -0.0387
 2430SOL    HW2 8134   7.849   4.827   1.806 -0.7697  1.1763  3.7054
 2431SOL     OW 8135   1.911   1.039   0.523 -0.2392  0.5563 -0.2006
 2431SOL    HW1 8136   1.919   1.043   0.428  0.4356  0.0984 -0.1720
 2431SOL    HW2 8137   1.823   1.005   0.539  0.0574 -0.4763 -0.6858
 2432SOL     OW 8138   6.130   3.081   4.181 -0.0506 -0.5107 -0.0581
 2432SOL    HW1 8139   6.135   3.071   4.086 -0.0261 -0.7578 -0.0304
 2432SOL    HW2 8140   6.125   3.176   4.195  0.8232 -0.4176 -0.2721
 2433SOL     OW 8141   7.914   4.361   2.023  0.5633  0.2699  0.1009
 2433SOL    HW1 8142   7.980   4.300   1.990 -0.4737  0.3572 -2.4179
 2433SOL    HW2 8143   7.959   4.413   2.088  3.4542  1.2651 -2.4618
 2434SOL     OW 8144   4.446   3.211   6.379 -0.4868  0.0406 -0.6448
 2434SOL    HW1 8145   4.434   3.119   6.403 -3.5949  0.5778  0.3304
 2434SOL    HW2 8146   4.525   3.211   6.325 -1.3917 -3.4872 -2.3152
 2435SOL     OW 8147   1.862   5.746   6.489 -0.1975  0.7233  0.5552
 2435SOL    HW1 8148   1.784   5.799   6.474 -0.5652 -0.2780 -1.3735
 2435SOL    HW2 8149   1.829   5.670   6.537  0.0991  1.5595  2.1368
 2436SOL     OW 8150   4.221   8.187   3.838 -0.1804  0.3236 -0.1059
 2436SOL    HW1 8151   4.217   8.281   3.854 -1.2194  0.2983 -0.1283
 2436SOL    HW2 8152   4.250   8.149   3.921  0.9952  0.7173 -0.3282
 2437SOL     OW 8153   2.854   4.770   0.498 -0.1709 -0.1127 -0.1654
 2437SOL    HW1 8154   2.800   4.777   0.577  0.1949 -3.1205  0.4886
 2437SOL    HW2 8155   2.934   4.818   0.518  0.0744 -1.1475  1.5078
 2438SOL     OW 8156   3.947   3.611   7.604  0.3695  0.8335  0.2093
 2438SOL    HW1 8157   3.892   3.567   7.669  0.8191 -0.1162 -0.0302
 2438SOL    HW2 8158   3.977   3.540   7.546 -1.1074  1.7960 -1.8673
 2439SOL     OW 8159   0.165   0.723   2.345 -0.5636 -0.1133 -0.0007
 2439SOL    HW1 8160   0.167   0.812   2.310  0.6929 -0.1502 -0.0686
 2439SOL    HW2 8161   0.236   0.721   2.409 -1.2899 -0.7492  0.8110
 2440SOL     OW 8162   6.374   6.964   4.448 -0.0097 -0.4734 -0.0252
 2440SOL    HW1 8163   6.313   6.892   4.461  0.2033 -0.5942  0.3045
 2440SOL    HW2 8164   6.338   7.036   4.499  0.8149 -0.9413  1.2727
 2441SOL     OW 8165   3.157   7.090   2.526 -0.6439 -0.4577 -0.2240
 2441SOL    HW1 8166   3.200   7.004   2.529  0.2786 -0.1272 -2.1724
 2441SOL    HW2 8167   3.120   7.095   2.438 -1.7145  0.6777  0.2675
 2442SOL     OW 8168   4.112   6.696   1.364 -0.0957 -0.0008 -0.0635
 2442SOL    HW1 8169   4.129   6.602   1.351  1.4356  0.0798  1.0065
 2442SOL    HW2 8170   4.110   6.706   1.459  0.1204  1.1051 -0.1670
 2443SOL     OW 8171   5.000   3.440   2.080 -0.0342 -0.6530  0.8539
 2443SOL    HW1 8172   4.999   3.348   2.053 -1.8079 -0.6995  0.9494
 2443SOL    HW2 8173   4.999   3.488   1.998 -0.8452 -0.7576  0.7895
 2444SOL     OW 8174   6.367   4.096   4.379 -0.0576  0.0804 -0.4025
 2444SOL    HW1 8175   6.309   4.164   4.348  0.8451  2.0260  1.8771
 2444SOL    HW2 8176   6.333   4.072   4.465  0.1789 -1.7236 -0.7622
 2445SOL     OW 8177   1.622   4.507   5.501  0.3151  0.2731  0.2340
 2445SOL    HW1 8178   1.601   4.547   5.417  1.5790  2.1710  0.7637
 2445SOL    HW2 8179   1.589   4.569   5.567  0.0078 -0.8221  1.1486
 2446SOL     OW 8180   6.105   1.040   1.638 -0.1732 -0.6663  0.3767
 2446SOL    HW1 8181   6.060   0.982   1.577  0.3010 -0.4306 -0.2022
 2446SOL    HW2 8182   6.151   1.103   1.583 -0.3261  0.0057  0.9860
 2447SOL     OW 8183   2.082   4.671   7.029  0.4133  0.1448  0.0662
 2447SOL    HW1 8184   2.103   4.731   7.101  2.3382 -0.6001  0.1883
 2447SOL    HW2 8185   1.988   4.659   7.035  0.5770 -0.5617  3.0507
 2448SOL     OW 8186   3.284   2.546   5.588  0.4445 -0.3796  0.4379
 2448SOL    HW1 8187   3.207   2.542   5.532 -0.4447  0.6287  1.5188
 2448SOL    HW2 8188   3.339   2.473   5.560 -2.3958 -3.2962  1.7834
 2449SOL     OW 8189   5.721   2.730   3.915  0.1337 -0.2599  0.4879
 2449SOL    HW1 8190   5.687   2.718   4.004 -1.2427 -1.9282 -0.2011
 2449SOL    HW2 8191   5.796   2.670   3.909 -1.2282 -2.0169 -0.1400
 2450SOL     OW 8192   6.461   3.700   7.406 -0.5670 -0.1396 -0.3300
 2450SOL    HW1 8193   6.477   3.754   7.329  0.0857 -1.2124 -0.9858
 2450SOL    HW2 8194   6.546   3.660   7.425 -1.0192 -0.9274  0.1204
 2451SOL     OW 8195   3.957   4.875   8.195 -0.1775 -0.4006  0.4136
 2451SOL    HW1 8196   3.867   4.876   8.162 -0.4413 -0.3517  1.1159
 2451SOL    HW2 8197   3.958   4.941   8.264  0.0106 -1.3949  1.3884
 2452SOL     OW 8198   2.091   2.725   5.114 -0.0292  0.1908 -0.4335
 2452SOL    HW1 8199   2.178   2.687   5.121 -0.8119 -1.7572 -0.5171
 2452SOL    HW2 8200   2.056   2.690   5.032 -0.6101  1.6146 -0.8285
 2453SOL     OW 8201   3.915   7.865   4.553  0.6159  0.2873  0.5778
 2453SOL    HW1 8202   3.906   7.817   4.635 -0.0125  1.3668  1.1540
 2453SOL    HW2 8203   3.859   7.816   4.491 -1.5754  1.3069  1.6412
 2454SOL     OW 8204   2.550   6.465   7.610  0.4622  0.2501 -0.2381
 2454SOL    HW1 8205   2.585   6.479   7.521 -1.2499  0.4746 -0.9083
 2454SOL    HW2 8206   2.471   6.413   7.597  0.5655 -0.3328  1.2511
 2455SOL     OW 8207   1.861   4.704   5.298 -0.4905 -0.3409  0.0729
 2455SOL    HW1 8208   1.882   4.613   5.274 -4.2032 -0.6717 -2.8043
 2455SOL    HW2 8209   1.901   4.757   5.229  0.8480  0.2117  1.2212
 2456SOL     OW 8210   4.961   0.507   5.639  0.1701  0.5302 -0.3583
 2456SOL    HW1 8211   4.926   0.588   5.602 -2.3657  0.0056  0.6668
 2456SOL    HW2 8212   4.913   0.496   5.721  1.7504 -1.1187  0.4162
 2457SOL     OW 8213   7.282   0.534   1.048  0.0366  1.2330  0.0297
 2457SOL    HW1 8214   7.259   0.482   1.125  0.9138  2.3551  1.0985
 2457SOL    HW2 8215   7.266   0.625   1.075  0.7732  1.6749 -0.9496
 2458SOL     OW 8216   7.883   3.033   4.304 -0.5921 -0.3277 -0.3378
 2458SOL    HW1 8217   7.926   2.966   4.251 -0.9227 -0.9314  0.1420
 2458SOL    HW2 8218   7.887   3.112   4.250 -0.2195 -0.7366 -0.9264
 2459SOL     OW 8219   8.044   6.808   4.174 -0.1938  0.0016 -0.8356
 2459SOL    HW1 8220   7.999   6.886   4.205 -0.5425 -0.7251  0.5719
 2459SOL    HW2 8221   8.137   6.828   4.182 -0.2815  0.0230  0.2133
 2460SOL     OW 8222   3.314   0.105   2.839 -0.6295 -0.0122  0.0115
 2460SOL    HW1 8223   3.304   0.025   2.787 -1.1604  1.1894 -1.8095
 2460SOL    HW2 8224   3.325   0.175   2.774 -0.6813  1.4747  1.5460
 2461SOL     OW 8225   5.493   0.018   4.025  0.4749 -0.2760  0.1918
 2461SOL    HW1 8226   5.573   0.013   3.972  0.1226 -1.2367 -0.2714
 2461SOL    HW2 8227   5.474   0.112   4.031  1.2193 -0.0850 -0.3272
 2462SOL     OW 8228   4.415   1.273   3.700  0.2134 -0.2861 -0.0651
 2462SOL    HW1 8229   4.367   1.247   3.779 -0.8484 -0.6167 -0.7986
 2462SOL    HW2 8230   4.348   1.281   3.632  1.1787 -0.6227 -1.0963
 2463SOL     OW 8231   7.446   5.589   2.623  0.0190 -0.0802  0.1201
 2463SOL    HW1 8232   7.364   5.553   2.589 -0.1672 -0.8446  1.3078
 2463SOL    HW2 8233   7.493   5.513   2.657  1.6273  0.2180 -1.2745
 2464SOL     OW 8234   4.120   2.591   4.612 -1.1495  0.2909 -0.1809
 2464SOL    HW1 8235   4.160   2.567   4.696 -0.6416  1.5723 -0.0382
 2464SOL    HW2 8236   4.068   2.668   4.631 -2.2972 -0.3195 -0.7484
 2465SOL     OW 8237   2.939   0.258   0.912 -0.0014 -0.1860 -0.2746
 2465SOL    HW1 8238   2.930   0.177   0.862  1.3852  0.4026 -1.5585
 2465SOL    HW2 8239   3.028   0.289   0.892  0.0115  0.9140  1.3152
 2466SOL     OW 8240   4.741   1.453   4.277  0.2715  0.1103  0.0872
 2466SOL    HW1 8241   4.748   1.527   4.337 -1.2985 -0.1509  0.6328
 2466SOL    HW2 8242   4.791   1.383   4.319  0.2434  0.3199  0.4774
 2467SOL     OW 8243   0.918   2.003   3.265  0.3697  0.5856 -0.2574
 2467SOL    HW1 8244   0.857   2.059   3.314  0.5725 -1.3644  2.4695
 2467SOL    HW2 8245   0.997   2.058   3.255 -0.6714  2.0132 -0.9500
 2468SOL     OW 8246   5.244   0.795   0.962  0.0167  0.3603 -0.5576
 2468SOL    HW1 8247   5.293   0.853   0.905 -2.1683  0.9010 -2.0467
 2468SOL    HW2 8248   5.165   0.844   0.984 -0.4311 -0.8736  0.7646
 2469SOL     OW 8249   1.029   7.268   0.417 -0.4228 -0.6321 -0.2116
 2469SOL    HW1 8250   1.071   7.244   0.335  2.7551  0.9369  0.7826
 2469SOL    HW2 8251   1.045   7.362   0.426 -0.9019 -0.7091  2.0788
 2470SOL     OW 8252   2.990   3.132   7.992 -0.2895  0.5492 -0.7935
 2470SOL    HW1 8253   3.015   3.115   8.082  0.4027  0.4828 -0.9916
 2470SOL    HW2 8254   3.019   3.222   7.975  1.8242 -0.2305 -1.6787
 2471SOL     OW 8255   6.920   0.409   7.916  0.3016  0.1383 -0.1763
 2471SOL    HW1 8256   6.975   0.388   7.992 -1.0254  1.4370  1.2297
 2471SOL    HW2 8257   6.958   0.360   7.844  1.3809 -1.5002  1.4220
 2472SOL     OW 8258   4.784   7.148   6.223  0.0261 -0.9555 -0.0380
 2472SOL    HW1 8259   4.810   7.232   6.260  0.2322 -1.1574  0.2721
 2472SOL    HW2 8260   4.819   7.083   6.283  2.0397 -1.3772 -1.5712
 2473SOL     OW 8261   1.104   3.350   7.650 -0.5527  0.2271 -0.4732
 2473SOL    HW1 8262   1.084   3.268   7.696  1.6295 -0.7511 -1.1612
 2473SOL    HW2 8263   1.136   3.409   7.718  1.1953 -0.6992 -0.4447
 2474SOL     OW 8264   1.156   3.770   2.318 -0.2002  0.7534  0.2426
 2474SOL    HW1 8265   1.136   3.793   2.227 -3.0489 -0.0415  0.5575
 2474SOL    HW2 8266   1.150   3.853   2.365  2.0364  1.3023 -0.3259
 2475SOL     OW 8267   3.492   7.275   1.153  0.3571 -0.3149  0.6146
 2475SOL    HW1 8268   3.565   7.218   1.176  0.5421  0.0497  0.9225
 2475SOL    HW2 8269   3.476   7.328   1.231 -0.6029 -0.7731  0.7525
 2476SOL     OW 8270   2.081   3.485   7.337  0.2135  0.2074  0.2288
 2476SOL    HW1 8271   2.126   3.507   7.419  2.9495  1.0858 -1.3767
 2476SOL    HW2 8272   2.081   3.567   7.287 -1.2953 -0.3438 -0.7581
 2477SOL     OW 8273   3.973   0.870   0.045  0.1204 -0.0943  0.6139
 2477SOL    HW1 8274   3.921   0.903   0.118 -0.4125  0.0444  0.1733
 2477SOL    HW2 8275   3.918   0.803   0.004 -0.5802  1.4434 -1.0821
 2478SOL     OW 8276   7.595   1.347   3.339 -0.4838  0.3536  0.2208
 2478SOL    HW1 8277   7.508   1.306   3.343  0.2105 -1.1231  0.8087
 2478SOL    HW2 8278   7.639   1.301   3.267  0.1053  0.4761  0.5001
 2479SOL     OW 8279   3.543   4.976   5.567  0.5417 -0.4101  0.5348
 2479SOL    HW1 8280   3.451   4.967   5.543  0.5403  1.0729 -0.1481
 2479SOL    HW2 8281   3.591   4.958   5.486  0.8656 -1.2358  0.9017
 2480SOL     OW 8282   2.376   7.584   4.280 -0.0823 -0.2036 -0.0607
 2480SOL    HW1 8283   2.398   7.586   4.187 -1.2425  1.1421 -0.3343
 2480SOL    HW2 8284   2.406   7.668   4.314 -0.5552 -0.2847  0.5743
 2481SOL     OW 8285   2.449   7.895   1.409  0.2371 -0.2130  0.1510
 2481SOL    HW1 8286   2.467   7.801   1.414 -3.0996 -0.9587  1.1007
 2481SOL    HW2 8287   2.469   7.928   1.496  2.6170  0.3027 -0.5325
 2482SOL     OW 8288   7.080   7.624   0.129 -0.2835  0.0035  0.4393
 2482SOL    HW1 8289   6.989   7.600   0.110 -0.4049 -0.0213  1.0276
 2482SOL    HW2 8290   7.112   7.661   0.048 -0.6928 -0.3749  0.0964
 2483SOL     OW 8291   1.161   0.309   1.219  0.4249  0.7615  0.5266
 2483SOL    HW1 8292   1.255   0.290   1.213  0.6732  1.8362  0.7752
 2483SOL    HW2 8293   1.154   0.402   1.198 -1.1409 -0.1512 -4.3980
 2484SOL     OW 8294   3.825   7.679   4.336  0.0201  0.7314 -0.1435
 2484SOL    HW1 8295   3.736   7.714   4.338  0.1570  1.3631 -2.2845
 2484SOL    HW2 8296   3.818   7.600   4.282  1.2636  2.7944 -3.6716
 2485SOL     OW 8297   6.079   2.728   7.314  0.2858 -0.0414 -0.3916
 2485SOL    HW1 8298   6.154   2.708   7.371 -0.9443 -3.0516  0.3682
 2485SOL    HW2 8299   6.095   2.678   7.234 -0.4904 -0.0501 -0.5507
 2486SOL     OW 8300   2.419   3.976   2.200 -0.0462 -0.6121  0.3124
 2486SOL    HW1 8301   2.467   3.894   2.209 -2.2738 -2.0556 -0.1819
 2486SOL    HW2 8302   2.449   4.030   2.274  1.0119 -2.0846  1.0051
 2487SOL     OW 8303   1.731   2.354   0.082  0.3475 -0.0020  0.0591
 2487SOL    HW1 8304   1.818   2.319   0.100  0.5506  0.3179 -0.2672
 2487SOL    HW2 8305   1.730   2.366  -0.013  0.0143  0.1713  0.0836
 2488SOL     OW 8306   5.372   7.722   7.253 -0.2468  0.4077 -0.3145
 2488SOL    HW1 8307   5.458   7.691   7.225 -0.3951 -0.8921  0.5946
 2488SOL    HW2 8308   5.329   7.645   7.290 -1.4613  1.2399  0.0698
 2489SOL     OW 8309   1.979   7.066   6.333 -0.2596  0.0127 -0.0705
 2489SOL    HW1 8310   1.938   7.116   6.405 -0.5323  0.0845 -0.2728
 2489SOL    HW2 8311   2.063   7.109   6.319 -0.1732 -0.0483  0.2579
 2490SOL     OW 8312   6.606   8.007   3.368 -0.1782  0.3050 -0.3547
 2490SOL    HW1 8313   6.650   8.059   3.434  0.0420 -1.1190  0.6730
 2490SOL    HW2 8314   6.542   8.067   3.329  1.0366  1.7311 -0.2579
 2491SOL     OW 8315   0.108   0.454   2.739 -0.4492 -0.2272  0.7967
 2491SOL    HW1 8316   0.051   0.381   2.714  1.1386 -0.1723 -3.9527
 2491SOL    HW2 8317   0.163   0.419   2.808 -3.0317 -1.7533  2.2677
 2492SOL     OW 8318   8.204   0.402   7.882 -0.4091 -0.0313 -0.1105
 2492SOL    HW1 8319   8.199   0.383   7.976  2.8628  1.4245  0.5032
 2492SOL    HW2 8320   8.117   0.435   7.860 -1.2775 -0.3624  2.4052
 2493SOL     OW 8321   8.215   7.527   1.576  0.0580  0.2797  0.4160
 2493SOL    HW1 8322   8.216   7.595   1.643  0.3978 -0.6293  1.3585
 2493SOL    HW2 8323   8.128   7.531   1.538  0.1781  1.4403  0.2480
 2494SOL     OW 8324   2.084   0.567   1.082  0.4522 -0.2676 -0.6156
 2494SOL    HW1 8325   2.088   0.596   0.991 -0.4549 -0.3120 -0.6807
 2494SOL    HW2 8326   2.148   0.497   1.088  0.0978 -0.6638 -1.3775
 2495SOL     OW 8327   2.969   0.569   2.857  0.1903 -0.2276  0.0303
 2495SOL    HW1 8328   2.885   0.611   2.839  0.0170 -0.6147 -0.0725
 2495SOL    HW2 8329   3.003   0.615   2.934  1.2176  1.8505 -1.5765
 2496SOL     OW 8330   0.819   3.771   3.553  0.2653  0.2375 -0.4077
 2496SOL    HW1 8331   0.743   3.824   3.527  0.1347  0.4477  0.3686
 2496SOL    HW2 8332   0.868   3.828   3.613  1.7607  0.6082 -1.9288
 2497SOL     OW 8333   5.676   6.427   4.547 -0.1277 -0.9739 -0.0062
 2497SOL    HW1 8334   5.620   6.400   4.474 -1.6823  0.4564  0.5772
 2497SOL    HW2 8335   5.748   6.365   4.546  0.4184 -0.4790 -3.3082
 2498SOL     OW 8336   0.452   4.222   2.650 -0.3044  0.1411  0.4088
 2498SOL    HW1 8337   0.427   4.304   2.693 -2.8184  0.5606 -1.5505
 2498SOL    HW2 8338   0.372   4.195   2.604  1.6887 -1.0392 -2.6318
 2499SOL     OW 8339   5.405   0.662   5.728  0.4620  0.3052  0.1618
 2499SOL    HW1 8340   5.436   0.746   5.761 -0.1620 -0.7493  3.8932
 2499SOL    HW2 8341   5.481   0.604   5.734 -0.2509 -0.4896  2.2524
 2500SOL     OW 8342   7.092   1.406   8.192  0.2463  0.0386 -0.2460
 2500SOL    HW1 8343   7.177   1.428   8.229  0.2432  0.8096 -0.6808
 2500SOL    HW2 8344   7.086   1.457   8.111  0.0519 -1.2595 -1.0872
 2501SOL     OW 8345   6.476   1.045   6.777 -0.1475 -0.1713  0.1287
 2501SOL    HW1 8346   6.464   1.140   6.775 -1.0125 -0.2587  0.4821
 2501SOL    HW2 8347   6.570   1.033   6.789 -0.0387  0.6389  0.1632
 2502SOL     OW 8348   1.442   4.828   4.927  0.1686 -0.1131 -0.5915
 2502SOL    HW1 8349   1.527   4.847   4.967  0.3056 -0.3940 -0.7473
 2502SOL    HW2 8350   1.431   4.896   4.860 -0.2071  0.5537  0.1312
 2503SOL     OW 8351   6.744   6.530   6.140  0.4802  0.5599 -0.2246
 2503SOL    HW1 8352   6.784   6.511   6.224  1.1457 -1.6424 -0.9671
 2503SOL    HW2 8353   6.663   6.577   6.161 -0.3200 -1.5603  1.7828
 2504SOL     OW 8354   0.490   5.709   4.084  0.0797 -0.0055  0.1028
 2504SOL    HW1 8355   0.396   5.719   4.069 -0.1424  0.7824  1.7136
 2504SOL    HW2 8356   0.530   5.780   4.034 -0.0398 -1.0725 -1.5728
 2505SOL     OW 8357   0.302   1.237   6.105  0.0084 -0.0023 -0.5534
 2505SOL    HW1 8358   0.383   1.272   6.069  0.5622  0.7945  1.3759
 2505SOL    HW2 8359   0.233   1.282   6.057  0.6680 -0.4942 -2.0297
 2506SOL     OW 8360   3.893   3.180   3.891  0.3909  0.1519  0.2276
 2506SOL    HW1 8361   3.811   3.143   3.856  1.1129 -1.6554  0.3323
 2506SOL    HW2 8362   3.962   3.140   3.838  1.2386  1.4003  0.3595
 2507SOL     OW 8363   5.133   6.124   5.811 -0.0771 -0.5508 -0.1625
 2507SOL    HW1 8364   5.225   6.151   5.819 -0.3290  0.3096 -0.1714
 2507SOL    HW2 8365   5.137   6.041   5.764  0.6138  0.1067 -1.3034
 2508SOL     OW 8366   2.564   1.151   6.989  0.4773  0.3482  0.8790
 2508SOL    HW1 8367   2.530   1.230   6.946  0.6014  0.0991  0.3149
 2508SOL    HW2 8368   2.620   1.111   6.923  1.1419  0.2702  1.4804
 2509SOL     OW 8369   3.374   6.155   1.234 -0.0863 -0.1056 -0.2153
 2509SOL    HW1 8370   3.453   6.101   1.226 -0.2526 -0.3799 -0.0133
 2509SOL    HW2 8371   3.333   6.126   1.315  0.0695  0.6531  0.1493
 2510SOL     OW 8372   0.655   3.847   7.481  0.6897 -0.0959 -0.6514
 2510SOL    HW1 8373   0.726   3.910   7.469  1.2447 -0.4371  0.6646
 2510SOL    HW2 8374   0.578   3.890   7.443  1.2228  1.0303 -0.4971
 2511SOL     OW 8375   3.556   4.668   2.837 -0.2209  0.0522  0.1098
 2511SOL    HW1 8376   3.553   4.573   2.850 -0.2400  0.2579  1.8864
 2511SOL    HW2 8377   3.472   4.689   2.796  0.1271 -0.7716 -1.0860
 2512SOL     OW 8378   6.940   7.517   3.812 -0.3979  1.0425  0.5287
 2512SOL    HW1 8379   6.978   7.595   3.851  1.3748 -0.6372  2.4576
 2512SOL    HW2 8380   6.879   7.485   3.878  0.8476 -0.5633  0.9650
 2513SOL     OW 8381   4.342   1.123   6.183 -0.2751  0.1144  0.3403
 2513SOL    HW1 8382   4.340   1.027   6.188 -0.7052  0.1661  1.7006
 2513SOL    HW2 8383   4.423   1.147   6.228 -0.1124  0.3885 -0.0965
 2514SOL     OW 8384   4.056   2.479   6.288 -0.1693  0.1074  0.0491
 2514SOL    HW1 8385   3.966   2.466   6.258  0.6221 -0.7871 -2.1560
 2514SOL    HW2 8386   4.064   2.425   6.366 -0.6508 -2.6458 -1.6796
 2515SOL     OW 8387   3.212   7.876   4.810 -0.3492  0.1517 -0.7619
 2515SOL    HW1 8388   3.209   7.834   4.896 -0.2794 -1.8092 -1.6670
 2515SOL    HW2 8389   3.120   7.888   4.786 -0.6302  5.2628  1.5474
 2516SOL     OW 8390   2.458   2.245   2.298 -0.1346 -0.3109 -0.2222
 2516SOL    HW1 8391   2.421   2.185   2.364  1.1504 -1.0545 -0.1246
 2516SOL    HW2 8392   2.452   2.331   2.338 -1.4017 -0.4537 -0.0727
 2517SOL     OW 8393   0.580   0.061   6.581 -0.2833  0.1302  0.1486
 2517SOL    HW1 8394   0.516   0.018   6.638 -1.7030 -0.0246 -1.5018
 2517SOL    HW2 8395   0.528   0.112   6.519  1.2724  1.8985  0.1734
 2518SOL     OW 8396   0.264   7.805   4.387 -0.1297  0.2222  0.2802
 2518SOL    HW1 8397   0.319   7.878   4.415  1.1346 -0.2856 -0.7559
 2518SOL    HW2 8398   0.275   7.739   4.455  1.9766 -0.5423 -0.7086
 2519SOL     OW 8399   7.872   3.941   4.213 -0.3181 -0.2024  0.2336
 2519SOL    HW1 8400   7.831   3.875   4.269 -2.6549 -0.1187 -1.2755
 2519SOL    HW2 8401   7.850   4.024   4.255 -1.4845 -0.1711 -0.4285
 2520SOL     OW 8402   3.205   3.002   6.116 -0.0601  0.2298 -0.1211
 2520SOL    HW1 8403   3.142   3.070   6.136  0.2654  0.1909  1.1289
 2520SOL    HW2 8404   3.188   2.979   6.024  0.6116  2.8036 -0.9829
 2521SOL     OW 8405   8.097   6.315   0.011  0.1533 -0.0675 -0.2260
 2521SOL    HW1 8406   8.091   6.310   0.107 -1.5067  1.2305 -0.2164
 2521SOL    HW2 8407   8.007   6.327  -0.018  0.6151 -0.5927 -1.9920
 2522SOL     OW 8408   3.982   3.442   5.143  0.1866 -0.5840  0.0530
 2522SOL    HW1 8409   3.923   3.424   5.070  1.0666 -0.3757 -0.7281
 2522SOL    HW2 8410   3.934   3.504   5.198 -0.7950 -1.3353  0.0614
 2523SOL     OW 8411   2.349   5.960   6.234  0.5565 -0.6644 -0.4147
 2523SOL    HW1 8412   2.402   5.916   6.301  1.7156 -0.5869 -1.2646
 2523SOL    HW2 8413   2.272   5.991   6.282  1.6313 -0.0885  1.0151
 2524SOL     OW 8414   1.630   1.601   6.063  0.4666 -0.2792 -0.4024
 2524SOL    HW1 8415   1.704   1.557   6.105 -0.2141 -0.5090  0.5695
 2524SOL    HW2 8416   1.626   1.687   6.106  0.2721 -0.2014 -0.5753
 2525SOL     OW 8417   1.711   1.924   1.812 -1.0866  0.5575  0.1169
 2525SOL    HW1 8418   1.767   1.911   1.888 -0.2142  3.6435  0.1018
 2525SOL    HW2 8419   1.622   1.909   1.845 -0.5644 -0.4398  1.1272
 2526SOL     OW 8420   1.504   7.015   4.400  0.8305  0.4109  0.1385
 2526SOL    HW1 8421   1.448   7.052   4.332  1.3737  1.3305  0.1813
 2526SOL    HW2 8422   1.519   6.924   4.372 -0.5618  0.1815  0.0677
 2527SOL     OW 8423   1.554   3.633   5.231  0.0787  0.0900 -0.0327
 2527SOL    HW1 8424   1.641   3.672   5.229 -0.0365  0.3270 -0.7975
 2527SOL    HW2 8425   1.499   3.694   5.181 -0.9580  0.9463  2.0277
 2528SOL     OW 8426   7.944   8.173   4.160  0.2402  0.3772  0.1015
 2528SOL    HW1 8427   8.039   8.181   4.152  0.3635  0.0536  1.0604
 2528SOL    HW2 8428   7.926   8.196   4.251 -0.3424 -1.5551  0.5342
 2529SOL     OW 8429   2.544   2.365   5.369 -0.4069 -0.1133 -0.3292
 2529SOL    HW1 8430   2.496   2.299   5.420  0.1384 -0.3200 -0.0799
 2529SOL    HW2 8431   2.507   2.448   5.398  0.5973 -0.1567  1.1741
 2530SOL     OW 8432   4.798   5.117   6.180  0.1268 -0.4785 -0.6641
 2530SOL    HW1 8433   4.725   5.178   6.177  1.0722  0.8410  0.9322
 2530SOL    HW2 8434   4.760   5.034   6.208 -1.2411 -0.8156 -3.2535
 2531SOL     OW 8435   7.292   4.746   5.640  0.5357  0.5046  0.6875
 2531SOL    HW1 8436   7.282   4.754   5.545  0.2046 -0.6193  0.6185
 2531SOL    HW2 8437   7.203   4.756   5.674  0.2308 -1.6911  0.6628
 2532SOL     OW 8438   5.966   1.321   7.789  1.0460 -0.2180 -0.0812
 2532SOL    HW1 8439   5.963   1.225   7.786  0.4967 -0.3075  1.9269
 2532SOL    HW2 8440   5.879   1.347   7.818  1.4904  0.8405  0.3363
 2533SOL     OW 8441   2.296   0.287   0.607 -0.1018 -0.0761  0.9894
 2533SOL    HW1 8442   2.278   0.374   0.573 -1.6027 -0.4637  0.6968
 2533SOL    HW2 8443   2.279   0.294   0.701 -0.0701 -0.0074  0.9895
 2534SOL     OW 8444   4.344   1.570   5.496  0.3797  0.6162 -0.6799
 2534SOL    HW1 8445   4.267   1.626   5.505  1.2229  1.4586  2.6409
 2534SOL    HW2 8446   4.418   1.629   5.505  1.4015 -0.4792 -1.5153
 2535SOL     OW 8447   7.424   8.208   2.000 -0.1735  0.3357 -0.2830
 2535SOL    HW1 8448   7.479   8.258   1.939  0.0484 -0.1651 -0.4960
 2535SOL    HW2 8449   7.454   8.235   2.087 -0.3746  0.9237 -0.3922
 2536SOL     OW 8450   1.236   4.746   7.637 -0.0479 -0.0539 -0.2526
 2536SOL    HW1 8451   1.189   4.828   7.656  1.2250  1.6421 -3.5845
 2536SOL    HW2 8452   1.308   4.744   7.700 -0.2855  1.2597  0.0958
 2537SOL     OW 8453   2.045   7.924   6.370  0.8669 -0.2376 -0.7296
 2537SOL    HW1 8454   1.973   7.986   6.363 -0.0166 -1.3912 -2.4160
 2537SOL    HW2 8455   2.004   7.838   6.364  2.3335 -0.9364 -1.2934
 2538SOL     OW 8456   7.053   2.948   3.253  0.4869 -0.6802 -0.7041
 2538SOL    HW1 8457   7.085   3.026   3.208 -0.7908  0.9423  1.0676
 2538SOL    HW2 8458   7.132   2.901   3.279  1.3304  0.8876 -0.3267
 2539SOL     OW 8459   3.139   3.578   2.717  0.2728  0.3923 -0.7218
 2539SOL    HW1 8460   3.051   3.584   2.679  0.3282 -1.2212 -1.1946
 2539SOL    HW2 8461   3.194   3.629   2.658 -0.0076 -0.3349 -1.6371
 2540SOL     OW 8462   3.779   1.882   0.969  0.2378 -0.1506 -0.3180
 2540SOL    HW1 8463   3.802   1.930   0.889  2.7252  0.0479  0.4312
 2540SOL    HW2 8464   3.761   1.793   0.939  0.6481  0.0388 -1.1593
 2541SOL     OW 8465   2.407   2.385   6.513  0.5953 -0.2743 -0.3079
 2541SOL    HW1 8466   2.366   2.463   6.551 -0.1667  0.2778 -2.1750
 2541SOL    HW2 8467   2.463   2.418   6.443 -1.4713 -1.4487 -2.6776
 2542SOL     OW 8468   7.296   5.717   0.922 -0.4397 -0.7449  0.1615
 2542SOL    HW1 8469   7.251   5.795   0.956  1.7441 -0.8628  3.8801
 2542SOL    HW2 8470   7.261   5.645   0.975  1.0125 -1.4937  0.1358
 2543SOL     OW 8471   6.344   7.626   3.134  0.3914  0.6465 -0.4368
 2543SOL    HW1 8472   6.405   7.696   3.156 -1.0336  1.7378  0.1790
 2543SOL    HW2 8473   6.314   7.647   3.046 -0.7722  1.3812  0.1194
 2544SOL     OW 8474   7.246   2.094   6.367  0.3607  0.0657 -0.8305
 2544SOL    HW1 8475   7.258   2.006   6.332 -0.5859 -0.1695 -0.5799
 2544SOL    HW2 8476   7.278   2.090   6.457  0.0592 -0.0959 -0.7303
 2545SOL     OW 8477   1.033   3.498   5.392  0.1482 -0.4553 -0.8861
 2545SOL    HW1 8478   0.979   3.563   5.348  0.2826 -0.8381 -1.6339
 2545SOL    HW2 8479   1.101   3.475   5.328  0.7957 -0.4806 -0.2134
 2546SOL     OW 8480   5.994   4.891   2.335  0.3703 -0.0606 -0.0685
 2546SOL    HW1 8481   6.009   4.847   2.419  2.3126 -0.4032 -0.5430
 2546SOL    HW2 8482   5.924   4.954   2.353  1.3611  0.5123  2.0392
 2547SOL     OW 8483   0.628   4.069   5.231 -0.0610 -0.4498 -0.3756
 2547SOL    HW1 8484   0.574   4.136   5.189  0.2623  1.3903  1.9682
 2547SOL    HW2 8485   0.571   4.030   5.297  0.4500 -0.8984 -0.1976
 2548SOL     OW 8486   2.620   3.106   1.740 -0.1279  0.1360 -0.3269
 2548SOL    HW1 8487   2.534   3.146   1.736 -0.9818 -1.5865 -0.1030
 2548SOL    HW2 8488   2.678   3.176   1.768 -1.1583  1.7547 -2.0001
 2549SOL     OW 8489   5.346   1.771   7.359  0.2919  0.7841  0.1030
 2549SOL    HW1 8490   5.350   1.866   7.373 -1.9633  0.8201  0.9366
 2549SOL    HW2 8491   5.408   1.735   7.422 -1.1614  1.5843  2.0945
 2550SOL     OW 8492   2.502   0.202   7.655  0.3712 -0.4179  0.0231
 2550SOL    HW1 8493   2.482   0.269   7.590 -0.1359  0.5052  1.0806
 2550SOL    HW2 8494   2.583   0.231   7.696 -0.5134  0.2728  1.3581
 2551SOL     OW 8495   3.904   5.119   5.881  0.2126 -0.2287 -0.3115
 2551SOL    HW1 8496   3.826   5.135   5.828  0.9495  1.4346 -0.9590
 2551SOL    HW2 8497   3.875   5.132   5.971 -1.0821 -3.1981 -0.1842
 2552SOL     OW 8498   3.399   4.142   0.085 -0.2784  0.2353  0.0290
 2552SOL    HW1 8499   3.376   4.202   0.155 -1.3897 -0.5085  0.3147
 2552SOL    HW2 8500   3.426   4.062   0.130 -1.7757 -0.5285 -0.3678
 2553SOL     OW 8501   2.528   3.557   5.891 -0.7330 -0.4818 -0.0981
 2553SOL    HW1 8502   2.465   3.511   5.835 -1.1475  0.3453 -0.3225
 2553SOL    HW2 8503   2.484   3.639   5.915  0.8780  0.9501 -1.6806
 2554SOL     OW 8504   6.236   6.559   4.545 -0.1606 -0.3380  0.4918
 2554SOL    HW1 8505   6.164   6.512   4.588 -1.0730 -0.0331 -0.6338
 2554SOL    HW2 8506   6.232   6.647   4.582 -0.5693 -0.2362  0.2096
 2555SOL     OW 8507   7.776   2.699   6.917  1.1542  0.0461 -0.3227
 2555SOL    HW1 8508   7.819   2.625   6.873  0.4965 -0.5115 -0.0386
 2555SOL    HW2 8509   7.711   2.658   6.974  1.4821  0.7977  0.6123
 2556SOL     OW 8510   7.687   2.074   0.982  0.2182  0.2629 -0.4126
 2556SOL    HW1 8511   7.605   2.122   0.985 -0.5332 -1.0171  0.3745
 2556SOL    HW2 8512   7.685   2.017   1.058  0.9045 -1.2719 -1.4821
 2557SOL     OW 8513   5.242   3.428   6.769  0.4411 -0.0095  0.0146
 2557SOL    HW1 8514   5.150   3.439   6.745  0.5033  0.3848 -0.0645
 2557SOL    HW2 8515   5.242   3.362   6.838 -0.1653  1.7490  1.7986
 2558SOL     OW 8516   0.993   3.501   0.201  0.4353 -0.1384 -0.0626
 2558SOL    HW1 8517   0.959   3.551   0.275  1.6596  0.2275  0.2682
 2558SOL    HW2 8518   1.082   3.535   0.188  1.8954 -3.2166  1.0978
 2559SOL     OW 8519   6.953   3.001   6.267 -0.0963  0.0984 -0.0026
 2559SOL    HW1 8520   6.927   3.089   6.238  0.3146  0.1352 -0.2690
 2559SOL    HW2 8521   7.018   2.973   6.203 -0.6136 -0.6203 -0.2201
 2560SOL     OW 8522   5.970   5.113   3.811  0.4277  0.2994 -0.4188
 2560SOL    HW1 8523   5.893   5.086   3.761 -0.2680  1.2326  0.1269
 2560SOL    HW2 8524   6.029   5.150   3.745 -0.4775  1.5053 -0.5854
 2561SOL     OW 8525   2.552   4.765   1.712 -0.1769  0.2571  0.3345
 2561SOL    HW1 8526   2.634   4.795   1.672 -0.9736  1.6857 -0.2919
 2561SOL    HW2 8527   2.505   4.721   1.641 -0.8813  1.3648  0.0876
 2562SOL     OW 8528   5.687   6.250   6.987  0.0677  0.5117 -0.1536
 2562SOL    HW1 8529   5.677   6.342   6.963 -0.1313  0.8224  1.0681
 2562SOL    HW2 8530   5.642   6.202   6.918  0.0021  1.3374 -0.6956
 2563SOL     OW 8531   4.019   0.263   4.868 -0.7946 -0.3931 -0.6141
 2563SOL    HW1 8532   3.933   0.220   4.862 -0.2501 -1.2879 -2.5671
 2563SOL    HW2 8533   4.080   0.193   4.891 -0.4775  0.1500  0.2658
 2564SOL     OW 8534   2.933   4.645   4.759  0.5117  0.1441 -0.1000
 2564SOL    HW1 8535   2.966   4.564   4.722 -0.2602  0.3571 -1.2988
 2564SOL    HW2 8536   2.843   4.652   4.728 -0.5257 -0.0998  2.5590
 2565SOL     OW 8537   7.847   5.021   2.565 -0.5305 -0.3588 -0.7241
 2565SOL    HW1 8538   7.825   5.097   2.510 -2.6318 -0.7019 -0.4367
 2565SOL    HW2 8539   7.801   4.948   2.523 -2.6786 -0.5439  1.6959
 2566SOL     OW 8540   4.466   6.259   2.480 -0.3610  0.1787  0.7421
 2566SOL    HW1 8541   4.460   6.313   2.559 -2.0362  0.0757  0.7184
 2566SOL    HW2 8542   4.458   6.322   2.408 -1.0994  0.0392  0.6973
 2567SOL     OW 8543   1.371   4.498   0.963 -0.0604 -0.0570  0.5462
 2567SOL    HW1 8544   1.394   4.575   0.912 -0.8772 -0.5375 -0.5787
 2567SOL    HW2 8545   1.440   4.435   0.944  0.8223  0.4979  1.7714
 2568SOL     OW 8546   1.242   1.353   6.964 -0.7172 -0.1814  0.4700
 2568SOL    HW1 8547   1.282   1.413   6.901  1.3677  0.2203  2.0657
 2568SOL    HW2 8548   1.274   1.267   6.938  0.1159 -0.0187  0.9110
 2569SOL     OW 8549   3.100   6.719   5.566 -0.1748  0.3451 -0.5474
 2569SOL    HW1 8550   3.044   6.694   5.492 -0.2167 -1.4922  0.0648
 2569SOL    HW2 8551   3.134   6.637   5.600  0.1958  1.1744  1.2225
 2570SOL     OW 8552   7.042   5.897   5.059 -0.2966  0.1763  0.2154
 2570SOL    HW1 8553   7.022   5.989   5.043 -0.4543  0.1270  0.1311
 2570SOL    HW2 8554   6.976   5.849   5.009  1.1093 -0.0183 -1.5737
 2571SOL     OW 8555   3.590   0.403   3.506 -0.2544 -0.3328  0.5797
 2571SOL    HW1 8556   3.518   0.357   3.550  0.9933 -2.1700  0.7670
 2571SOL    HW2 8557   3.570   0.395   3.413  0.0864 -1.5417  0.5941
 2572SOL     OW 8558   3.586   3.507   4.227 -0.2845  0.3272 -0.2976
 2572SOL    HW1 8559   3.565   3.428   4.176  1.1670 -0.1078 -0.2540
 2572SOL    HW2 8560   3.567   3.483   4.317 -2.1944  0.8723 -0.4978
 2573SOL     OW 8561   4.893   2.618   2.666 -0.0225 -0.0882  0.0377
 2573SOL    HW1 8562   4.978   2.652   2.691  1.1329 -1.8925 -1.1751
 2573SOL    HW2 8563   4.885   2.535   2.714 -1.8666  0.8091  1.4086
 2574SOL     OW 8564   5.171   0.355   4.045 -0.0098 -0.2153  0.4248
 2574SOL    HW1 8565   5.176   0.374   4.138 -2.6868 -0.6410  0.7355
 2574SOL    HW2 8566   5.194   0.437   4.002 -1.1912  0.7374  1.5333
 2575SOL     OW 8567   3.020   3.572   5.269  0.1455 -0.4252 -0.1207
 2575SOL    HW1 8568   3.049   3.500   5.213  0.1533 -0.4218 -0.1209
 2575SOL    HW2 8569   3.006   3.645   5.209 -0.7152 -0.6762 -0.2437
 2576SOL     OW 8570   2.499   7.318   6.699 -0.4739  0.4342  0.4084
 2576SOL    HW1 8571   2.501   7.274   6.784  0.4413  0.0187  0.1823
 2576SOL    HW2 8572   2.429   7.273   6.651  0.5280 -0.8994  0.1382
 2577SOL     OW 8573   4.104   4.926   2.933  0.8727  0.0155  0.0674
 2577SOL    HW1 8574   4.031   4.906   2.991  1.2279  2.7899  1.6032
 2577SOL    HW2 8575   4.180   4.883   2.974  0.8548  0.7245  0.8627
 2578SOL     OW 8576   1.767   1.667   4.712 -0.2834 -0.4191 -0.0778
 2578SOL    HW1 8577   1.717   1.733   4.663  0.7526 -0.3019 -0.9847
 2578SOL    HW2 8578   1.728   1.669   4.800  0.0094  1.7458  0.0566
 2579SOL     OW 8579   7.883   4.873   3.496  0.3886 -0.0428  0.0225
 2579SOL    HW1 8580   7.810   4.912   3.449 -0.3788 -1.7001 -0.2179
 2579SOL    HW2 8581   7.874   4.905   3.586  0.5767  1.3684 -0.4299
 2580SOL     OW 8582   5.726   5.665   3.612  0.2878  0.3843  0.5999
 2580SOL    HW1 8583   5.736   5.760   3.622  1.5484  0.4302 -0.7486
 2580SOL    HW2 8584   5.815   5.631   3.619 -0.0936 -0.6365  0.5698
 2581SOL     OW 8585   5.226   5.693   2.056 -0.4574 -0.2939 -0.2784
 2581SOL    HW1 8586   5.229   5.739   2.140 -0.2703 -0.5973 -0.1151
 2581SOL    HW2 8587   5.317   5.664   2.042 -0.9013 -2.3491  0.6042
 2582SOL     OW 8588   7.924   7.819   7.333  0.5681  0.2068 -0.4876
 2582SOL    HW1 8589   7.926   7.909   7.368  1.6459  0.6820 -1.6972
 2582SOL    HW2 8590   8.016   7.797   7.321  0.2593 -0.4733 -1.6817
 2583SOL     OW 8591   6.461   2.700   2.643 -0.1996  0.0301  0.3931
 2583SOL    HW1 8592   6.478   2.607   2.654  0.5958  0.1595  0.2780
 2583SOL    HW2 8593   6.527   2.730   2.581  0.0124  0.8170  0.9838
 2584SOL     OW 8594   1.922   2.425   4.080  0.2485  0.1220 -0.2107
 2584SOL    HW1 8595   1.938   2.342   4.123  1.7501  0.2084 -0.5700
 2584SOL    HW2 8596   1.969   2.489   4.132 -0.8627  0.7707  0.0413
 2585SOL     OW 8597   2.612   2.034   5.891  0.2525  0.2268  0.3824
 2585SOL    HW1 8598   2.602   2.039   5.986 -0.0683 -0.1160  0.3706
 2585SOL    HW2 8599   2.703   2.058   5.875  0.0523  1.2758  0.6938
 2586SOL     OW 8600   4.423   2.942   6.353  0.2930 -0.0766 -0.1232
 2586SOL    HW1 8601   4.331   2.939   6.326  0.3071 -0.0126 -0.1766
 2586SOL    HW2 8602   4.449   2.850   6.360  0.4748 -0.0960 -0.9436
 2587SOL     OW 8603   7.723   5.078   1.207  0.0226 -0.0609 -0.1521
 2587SOL    HW1 8604   7.792   5.024   1.245  0.3214 -0.6559 -1.4785
 2587SOL    HW2 8605   7.765   5.122   1.133 -1.0514 -0.6171 -1.1341
 2588SOL     OW 8606   0.693   2.113   7.616  0.6282  0.1595 -0.0997
 2588SOL    HW1 8607   0.762   2.047   7.625 -1.1040 -1.9947 -1.5817
 2588SOL    HW2 8608   0.624   2.083   7.675 -0.9378 -0.5249 -2.1454
 2589SOL     OW 8609   0.892   5.840   4.122  0.3384 -0.2027 -0.3690
 2589SOL    HW1 8610   0.858   5.752   4.103 -1.4240  0.6088 -1.2139
 2589SOL    HW2 8611   0.945   5.862   4.046 -1.2810  0.4215 -1.3588
 2590SOL     OW 8612   0.780   4.578   6.746  0.0969  0.1448 -0.2066
 2590SOL    HW1 8613   0.758   4.646   6.682 -1.7007 -0.8607 -0.7411
 2590SOL    HW2 8614   0.857   4.535   6.710  0.3933  0.9583 -0.5826
 2591SOL     OW 8615   7.619   2.055   3.202 -0.3625 -0.1944 -0.1051
 2591SOL    HW1 8616   7.524   2.050   3.200 -0.3677 -3.4795  1.4389
 2591SOL    HW2 8617   7.644   2.017   3.286  2.3395  0.4027 -0.5365
 2592SOL     OW 8618   0.603   4.428   5.809  0.2197  0.6976  0.0907
 2592SOL    HW1 8619   0.599   4.504   5.751 -0.5223  0.5041 -0.1226
 2592SOL    HW2 8620   0.639   4.358   5.754 -1.1265  0.3300 -0.3659
 2593SOL     OW 8621   2.438   3.624   8.216  0.1204  0.0535  0.3624
 2593SOL    HW1 8622   2.422   3.629   8.310  1.8449 -1.0873  0.7656
 2593SOL    HW2 8623   2.417   3.711   8.183 -2.6760 -0.1191  1.3805
 2594SOL     OW 8624   3.577   8.079   0.563  0.1829 -0.3034  0.0918
 2594SOL    HW1 8625   3.641   8.035   0.508  0.3343 -0.2836  0.2510
 2594SOL    HW2 8626   3.519   8.125   0.502  0.8594  0.4203 -0.0228
 2595SOL     OW 8627   2.146   4.852   7.482  0.1119 -0.0662 -0.8253
 2595SOL    HW1 8628   2.157   4.946   7.494  1.5760 -0.4293  1.0722
 2595SOL    HW2 8629   2.235   4.818   7.470 -0.1895 -1.4086  0.4245
 2596SOL     OW 8630   7.559   4.908   4.271 -0.7052  0.2269  0.1246
 2596SOL    HW1 8631   7.646   4.924   4.233 -0.3405 -3.9312 -1.3805
 2596SOL    HW2 8632   7.577   4.884   4.362 -0.8319  3.2910  1.0512
 2597SOL     OW 8633   7.264   6.201   6.631  0.6851 -0.6261 -0.6010
 2597SOL    HW1 8634   7.313   6.144   6.690  1.8637  0.7293 -0.2152
 2597SOL    HW2 8635   7.248   6.281   6.682 -0.0577 -0.2084 -1.4456
 2598SOL     OW 8636   6.090   1.027   7.005  0.0007  0.0295 -0.9475
 2598SOL    HW1 8637   6.014   1.012   6.948 -1.8429  2.1688  0.7432
 2598SOL    HW2 8638   6.059   1.005   7.093  1.6036  0.2742 -0.2786
 2599SOL     OW 8639   5.531   4.255   3.527  0.0375 -0.0788  0.1692
 2599SOL    HW1 8640   5.575   4.294   3.602  0.1647  0.5392 -0.2227
 2599SOL    HW2 8641   5.497   4.329   3.477 -2.0977 -0.5457  0.8274
 2600SOL     OW 8642   3.544   2.063   4.095 -0.3820  0.3377  0.1828
 2600SOL    HW1 8643   3.524   2.077   4.003  1.9977 -0.8444 -0.5878
 2600SOL    HW2 8644   3.570   2.149   4.128 -0.4251  0.6011 -0.4707
 2601SOL     OW 8645   5.469   0.284   4.366 -0.4277 -0.4760  0.5802
 2601SOL    HW1 8646   5.487   0.282   4.460  0.9952  2.1233  0.4445
 2601SOL    HW2 8647   5.548   0.248   4.326 -0.8437 -1.1325  0.3298
 2602SOL     OW 8648   2.435   7.687   8.184  0.4592 -0.0291  0.2698
 2602SOL    HW1 8649   2.529   7.699   8.195  0.5379 -1.6016  1.8978
 2602SOL    HW2 8650   2.410   7.626   8.254 -1.5970 -0.4288 -0.7143
 2603SOL     OW 8651   2.319   2.636   5.847 -0.4499 -0.9037 -0.0614
 2603SOL    HW1 8652   2.313   2.711   5.906  0.0879 -0.6869 -0.2806
 2603SOL    HW2 8653   2.241   2.643   5.792  0.9459  1.0939 -1.9362
 2604SOL     OW 8654   6.852   2.426   2.795 -0.4637  0.1851  0.3905
 2604SOL    HW1 8655   6.847   2.335   2.766 -0.2420  0.5992 -1.0834
 2604SOL    HW2 8656   6.825   2.477   2.718 -0.9852  1.3500  1.3159
 2605SOL     OW 8657   4.179   4.958   4.230  0.1753  0.2405  0.4231
 2605SOL    HW1 8658   4.211   4.942   4.141  0.1827 -0.5212  0.5608
 2605SOL    HW2 8659   4.232   5.032   4.261 -0.1810  0.8586 -0.3793
 2606SOL     OW 8660   3.375   2.193   0.110  0.3879 -0.1030  0.3133
 2606SOL    HW1 8661   3.310   2.259   0.134  0.3078  0.0812 -0.3898
 2606SOL    HW2 8662   3.426   2.235   0.040  0.2275 -0.8505 -0.2609
 2607SOL     OW 8663   7.312   4.040   7.122  0.0016 -0.1104 -0.0502
 2607SOL    HW1 8664   7.357   4.002   7.047 -1.3097  1.2408 -1.5744
 2607SOL    HW2 8665   7.249   3.973   7.149 -1.7001  0.5316 -2.1824
 2608SOL     OW 8666   3.586   8.000   2.536  0.3701 -0.0655  0.0716
 2608SOL    HW1 8667   3.673   7.984   2.500  0.0260  0.3823 -0.9761
 2608SOL    HW2 8668   3.526   7.978   2.465 -0.4033 -0.7607  0.9111
 2609SOL     OW 8669   2.358   5.009   4.615  0.4449  0.2265 -0.5681
 2609SOL    HW1 8670   2.343   5.011   4.710 -0.8049  1.9301 -0.7344
 2609SOL    HW2 8671   2.287   4.956   4.581  1.2825 -0.9556 -0.5302
 2610SOL     OW 8672   7.510   4.602   3.024 -0.5023  0.7068 -0.3113
 2610SOL    HW1 8673   7.554   4.520   3.046 -0.3290  1.0625  0.7467
 2610SOL    HW2 8674   7.582   4.664   3.010 -0.6156  1.4301  1.9741
 2611SOL     OW 8675   2.798   1.423   3.837  0.5877 -0.0815 -0.2547
 2611SOL    HW1 8676   2.816   1.388   3.750 -0.4896  0.3403 -0.6719
 2611SOL    HW2 8677   2.721   1.373   3.867 -1.1914  2.0622 -1.0030
 2612SOL     OW 8678   6.334   5.549   7.987 -0.1081 -0.1159 -0.5427
 2612SOL    HW1 8679   6.281   5.515   7.915 -1.3053 -1.2826  0.8411
 2612SOL    HW2 8680   6.348   5.474   8.045 -1.3165  1.2812  1.7083
 2613SOL     OW 8681   1.810   7.103   2.715  0.1520  0.4725  0.1795
 2613SOL    HW1 8682   1.736   7.056   2.678  0.9524 -0.4927 -0.2383
 2613SOL    HW2 8683   1.779   7.133   2.801 -1.0094  0.8862 -0.3715
 2614SOL     OW 8684   6.896   2.221   4.907  0.0683 -0.0953 -0.1339
 2614SOL    HW1 8685   6.961   2.158   4.875 -0.8307 -0.9858 -0.2591
 2614SOL    HW2 8686   6.821   2.167   4.931 -0.5693  0.9022  0.1554
 2615SOL     OW 8687   0.823   4.042   0.193  0.4650  0.0315 -0.5652
 2615SOL    HW1 8688   0.848   4.094   0.269  1.9472  0.1585 -1.1089
 2615SOL    HW2 8689   0.836   3.951   0.221  1.0090  0.0779 -0.6610
 2616SOL     OW 8690   3.265   0.156   6.311 -0.0590  0.0618  0.1534
 2616SOL    HW1 8691   3.270   0.202   6.394 -1.2605 -0.8845  0.7790
 2616SOL    HW2 8692   3.173   0.134   6.301  0.2464 -0.8512 -0.8732
 2617SOL     OW 8693   0.542   2.185   0.108  0.3386  0.2078  0.2008
 2617SOL    HW1 8694   0.611   2.122   0.129  0.6236  0.5119  0.1745
 2617SOL    HW2 8695   0.548   2.253   0.175  0.3877  0.4916 -0.0884
 2618SOL     OW 8696   6.841   3.474   0.326 -0.2179  0.2349  0.9856
 2618SOL    HW1 8697   6.856   3.553   0.274 -0.2426 -0.2210  0.2720
 2618SOL    HW2 8698   6.908   3.478   0.394  1.0974 -0.1246 -0.2395
 2619SOL     OW 8699   1.202   7.179   3.287 -0.6676 -0.3782  0.0800
 2619SOL    HW1 8700   1.196   7.085   3.308 -1.5754 -0.8881 -2.1760
 2619SOL    HW2 8701   1.242   7.181   3.200 -2.0365  1.2530 -0.5553
 2620SOL     OW 8702   7.752   4.784   7.377  0.1774 -0.2360 -0.1069
 2620SOL    HW1 8703   7.829   4.772   7.320  2.1717  0.1751  2.3284
 2620SOL    HW2 8704   7.732   4.877   7.370  2.6513  0.6050  2.3589
 2621SOL     OW 8705   3.813   7.452   4.190  0.6429 -0.0929 -0.0294
 2621SOL    HW1 8706   3.795   7.530   4.138  0.2618 -0.1729 -0.0234
 2621SOL    HW2 8707   3.855   7.391   4.129 -1.0334 -0.7059 -0.6290
 2622SOL     OW 8708   2.483   3.244   6.962  0.2704 -0.2159 -0.1681
 2622SOL    HW1 8709   2.553   3.218   6.902  0.5579 -0.0622  0.1023
 2622SOL    HW2 8710   2.477   3.172   7.025  0.1923 -0.2225 -0.1821
 2623SOL     OW 8711   3.433   5.342   2.663 -0.5467 -0.9088 -0.0153
 2623SOL    HW1 8712   3.398   5.348   2.574  1.4395  0.4192 -0.7785
 2623SOL    HW2 8713   3.420   5.429   2.700  0.2012 -0.9349  0.3436
 2624SOL     OW 8714   4.363   0.868   3.103 -0.0642  0.1929  0.4440
 2624SOL    HW1 8715   4.408   0.931   3.158 -1.2236 -0.0553  1.7452
 2624SOL    HW2 8716   4.410   0.786   3.118 -0.5634  0.0540  1.3637
 2625SOL     OW 8717   7.799   5.277   5.812 -0.1779  0.4225 -0.5370
 2625SOL    HW1 8718   7.776   5.218   5.739  0.5761  0.6679 -0.9791
 2625SOL    HW2 8719   7.883   5.244   5.844 -1.1252 -0.5108  1.1273
 2626SOL     OW 8720   1.938   3.268   3.266 -0.3799 -0.1879  0.2184
 2626SOL    HW1 8721   1.861   3.304   3.309 -1.2063 -0.2334 -1.1923
 2626SOL    HW2 8722   1.970   3.338   3.210  0.5594 -0.2033  0.7153
 2627SOL     OW 8723   6.003   2.159   7.655  0.5333 -0.7236 -0.4850
 2627SOL    HW1 8724   6.063   2.229   7.680  1.1740 -1.6894  0.7824
 2627SOL    HW2 8725   6.011   2.154   7.560  0.7409  0.6652 -0.5603
 2628SOL     OW 8726   5.132   5.749   6.141  0.7752 -0.7389 -0.2390
 2628SOL    HW1 8727   5.058   5.784   6.092  0.9761  1.0484  0.6698
 2628SOL    HW2 8728   5.130   5.655   6.122 -1.4076 -0.6765 -0.6380
 2629SOL     OW 8729   8.108   2.994   2.890 -0.1694  0.2420 -0.0530
 2629SOL    HW1 8730   8.202   2.987   2.907 -0.4196  0.4848  1.7256
 2629SOL    HW2 8731   8.072   2.909   2.917 -0.2696 -0.5743 -2.5728
 2630SOL     OW 8732   4.983   3.799   6.401 -0.1143  0.0476 -0.0647
 2630SOL    HW1 8733   5.049   3.787   6.332  0.7012 -0.8501  0.8406
 2630SOL    HW2 8734   4.969   3.894   6.404  3.1470  0.6408  1.4825
 2631SOL     OW 8735   6.916   7.039   0.930 -0.4373 -0.3827  0.3611
 2631SOL    HW1 8736   6.824   7.020   0.916 -0.3731  0.4737 -1.7777
 2631SOL    HW2 8737   6.962   6.979   0.871  0.2780  0.0252  0.4916
 2632SOL     OW 8738   3.047   1.040   4.008  0.8400 -0.1513 -0.0396
 2632SOL    HW1 8739   2.996   1.103   4.059  1.6004 -0.5924  1.3003
 2632SOL    HW2 8740   3.036   1.070   3.917 -3.5250 -1.4258 -0.1653
 2633SOL     OW 8741   5.668   0.802   0.991  0.4784 -0.6170  0.0151
 2633SOL    HW1 8742   5.764   0.796   0.998  0.7122  0.9165 -1.2048
 2633SOL    HW2 8743   5.641   0.844   1.073  0.7475 -1.7081  0.6839
 2634SOL     OW 8744   7.982   0.822   5.393 -0.0659  0.2886  0.7609
 2634SOL    HW1 8745   7.929   0.886   5.442  0.0458 -0.9848  2.6335
 2634SOL    HW2 8746   7.920   0.752   5.370  0.4838 -0.5395  1.7365
 2635SOL     OW 8747   5.530   2.642   5.485  0.6148 -0.0413 -0.1177
 2635SOL    HW1 8748   5.452   2.689   5.513  0.0042  0.2357 -2.0771
 2635SOL    HW2 8749   5.559   2.593   5.562 -0.8453  0.7088  0.9480
 2636SOL     OW 8750   6.880   3.293   7.263 -0.0920 -0.0997  0.2718
 2636SOL    HW1 8751   6.806   3.318   7.318  0.1644 -0.4163  0.7731
 2636SOL    HW2 8752   6.952   3.347   7.294 -0.1850  0.4468 -0.4367
 2637SOL     OW 8753   4.524   5.113   0.621  0.1319  0.1261 -0.2853
 2637SOL    HW1 8754   4.518   5.191   0.678 -2.6993  1.0377 -1.6217
 2637SOL    HW2 8755   4.526   5.149   0.532  0.1988 -1.3121 -0.8815
 2638SOL     OW 8756   1.960   1.477   1.450 -0.0610 -0.1870 -0.1052
 2638SOL    HW1 8757   1.959   1.386   1.420  0.3539 -0.1080 -0.3560
 2638SOL    HW2 8758   1.878   1.514   1.418  0.0756 -0.2867 -0.5714
 2639SOL     OW 8759   6.932   6.254   2.056  0.2871 -0.0353 -0.2078
 2639SOL    HW1 8760   6.891   6.340   2.046  3.0473  1.6237  1.3158
 2639SOL    HW2 8761   6.874   6.206   2.116 -2.5303 -0.2460 -2.8883
 2640SOL     OW 8762   3.588   0.581   2.256  0.1298  0.2425  0.1858
 2640SOL    HW1 8763   3.645   0.591   2.332 -1.1274 -0.6742  1.2993
 2640SOL    HW2 8764   3.526   0.654   2.263 -0.6319 -0.4215  0.6749
 2641SOL     OW 8765   5.894   7.481   1.870  0.5092 -0.0583  0.3452
 2641SOL    HW1 8766   5.848   7.532   1.937  0.0569  1.1827 -0.8762
 2641SOL    HW2 8767   5.864   7.391   1.883 -1.0898  0.4809  0.5421
 2642SOL     OW 8768   1.694   4.353   1.602 -0.3000 -0.8809  0.2700
 2642SOL    HW1 8769   1.758   4.293   1.642  3.8974  2.5364 -0.5480
 2642SOL    HW2 8770   1.729   4.369   1.514 -1.9815  1.6309 -0.0335
 2643SOL     OW 8771   2.097   3.779   3.697  0.6795  0.1988 -0.1773
 2643SOL    HW1 8772   2.018   3.798   3.646  0.6157  0.1795 -0.0859
 2643SOL    HW2 8773   2.143   3.863   3.702  0.1758  0.4333  0.6039
 2644SOL     OW 8774   7.756   0.670   0.047 -0.0429 -0.3824  0.5824
 2644SOL    HW1 8775   7.751   0.681  -0.048  0.6578  0.6993  0.6533
 2644SOL    HW2 8776   7.777   0.577   0.059  1.5974 -0.1861 -0.4049
 2645SOL     OW 8777   5.685   1.973   4.740  0.5528 -0.6218  0.3796
 2645SOL    HW1 8778   5.613   1.949   4.681  0.3559  0.8562 -0.0066
 2645SOL    HW2 8779   5.649   1.961   4.828 -0.2317  0.2816  0.1912
 2646SOL     OW 8780   3.041   4.156   6.230  0.3012 -0.4518 -0.0341
 2646SOL    HW1 8781   3.067   4.113   6.311 -0.5107 -0.5503  0.1893
 2646SOL    HW2 8782   3.119   4.153   6.175  0.7350 -0.7690  0.5794
 2647SOL     OW 8783   4.094   1.766   1.492 -0.0584  0.1694 -0.3666
 2647SOL    HW1 8784   4.029   1.774   1.423  0.3729 -1.9364 -1.0704
 2647SOL    HW2 8785   4.169   1.816   1.460 -0.5434  0.8238 -0.5096
 2648SOL     OW 8786   2.186   2.975   5.027 -0.2551  0.1809  0.0492
 2648SOL    HW1 8787   2.120   2.909   5.046 -0.3289 -0.0184 -0.8332
 2648SOL    HW2 8788   2.265   2.925   5.006 -0.0205  0.4007  0.3910
 2649SOL     OW 8789   6.556   0.823   4.622  0.0462  0.4981  0.3888
 2649SOL    HW1 8790   6.638   0.779   4.647  1.4590  2.2473 -0.9436
 2649SOL    HW2 8791   6.506   0.756   4.577  1.2697 -0.3068  0.1740
 2650SOL     OW 8792   3.055   3.453   1.247 -0.4884 -0.2191  0.0231
 2650SOL    HW1 8793   3.097   3.422   1.166  1.1400  0.5042  0.5478
 2650SOL    HW2 8794   3.093   3.539   1.262 -1.9530  0.3194  0.7392
 2651SOL     OW 8795   3.757   3.278   7.658  0.0450  0.0313 -0.2578
 2651SOL    HW1 8796   3.778   3.188   7.685 -1.0614 -0.4852 -1.0791
 2651SOL    HW2 8797   3.800   3.288   7.573  1.2151  0.7330  0.3780
 2652SOL     OW 8798   7.312   2.073   3.951 -0.2602 -0.1367 -0.5299
 2652SOL    HW1 8799   7.400   2.072   3.915 -0.4171 -0.3747 -0.9185
 2652SOL    HW2 8800   7.255   2.052   3.877 -0.6419  0.0025 -0.2821
 2653SOL     OW 8801   6.366   4.173   5.371 -0.3420  0.2959  0.0785
 2653SOL    HW1 8802   6.397   4.244   5.428 -0.4212  1.0420 -0.7848
 2653SOL    HW2 8803   6.443   4.150   5.319 -0.9644  1.5678 -1.4751
 2654SOL     OW 8804   0.871   6.364   3.191  0.2795  0.0529 -0.4602
 2654SOL    HW1 8805   0.833   6.384   3.276  0.7162  0.1547 -0.2838
 2654SOL    HW2 8806   0.839   6.277   3.170  0.0361  0.0953 -0.2671
 2655SOL     OW 8807   8.018   0.982   6.115  0.2949 -0.1644 -0.0061
 2655SOL    HW1 8808   8.003   1.069   6.150  2.0573  0.1143  0.1439
 2655SOL    HW2 8809   8.113   0.972   6.114  0.1604 -1.7858 -0.7587
 2656SOL     OW 8810   4.888   6.069   0.924 -0.1650  0.0293  0.1992
 2656SOL    HW1 8811   4.924   6.135   0.983  0.1372  1.2744 -1.3057
 2656SOL    HW2 8812   4.798   6.057   0.953  0.3953 -0.5295  1.8319
 2657SOL     OW 8813   3.820   1.368   0.788 -0.2465  0.5323 -0.1107
 2657SOL    HW1 8814   3.806   1.275   0.804  0.2235  0.8255  2.5466
 2657SOL    HW2 8815   3.878   1.371   0.712  1.1380 -1.4722  0.7593
 2658SOL     OW 8816   1.989   5.249   8.115 -0.1214  0.3667 -0.1001
 2658SOL    HW1 8817   1.995   5.252   8.211  0.4816 -0.3127 -0.1132
 2658SOL    HW2 8818   1.908   5.200   8.098  0.3038 -0.3994  0.0628
 2659SOL     OW 8819   6.275   8.079   4.724  0.0410  0.0387 -0.4928
 2659SOL    HW1 8820   6.321   8.094   4.806  1.4951 -0.2739 -1.2324
 2659SOL    HW2 8821   6.231   7.995   4.736  1.2752 -0.6191 -0.4627
 2660SOL     OW 8822   6.152   0.986   7.408 -0.2330  0.0607 -0.6528
 2660SOL    HW1 8823   6.233   1.036   7.400 -0.5590  1.0794  1.6789
 2660SOL    HW2 8824   6.095   1.021   7.339  0.7056  0.4846 -1.2302
 2661SOL     OW 8825   6.503   2.640   1.856  0.6749  0.5642 -0.3342
 2661SOL    HW1 8826   6.435   2.574   1.847  0.9334  0.1751  0.4949
 2661SOL    HW2 8827   6.457   2.718   1.885  0.7261 -0.0632  1.5617
 2662SOL     OW 8828   1.800   3.417   2.654 -0.2160  0.5388  0.5078
 2662SOL    HW1 8829   1.705   3.406   2.648 -0.0261 -0.2729 -1.9162
 2662SOL    HW2 8830   1.826   3.450   2.569  1.7004  0.7864  1.1424
 2663SOL     OW 8831   3.187   1.406   3.096 -0.0662 -0.4198  0.4217
 2663SOL    HW1 8832   3.249   1.432   3.164  0.1413  1.0693 -0.2842
 2663SOL    HW2 8833   3.101   1.428   3.132  0.0231  0.0857  0.3350
 2664SOL     OW 8834   1.397   6.402   4.916  0.3070  0.4417 -0.2051
 2664SOL    HW1 8835   1.403   6.405   4.821  0.5765 -0.4773 -0.2256
 2664SOL    HW2 8836   1.329   6.337   4.934  1.7935 -1.0479  0.2426
 2665SOL     OW 8837   3.400   4.834   5.366  0.2414  0.5272  0.0994
 2665SOL    HW1 8838   3.350   4.902   5.321  0.7030  0.7422 -0.0877
 2665SOL    HW2 8839   3.487   4.837   5.327  0.4434  0.2372  0.5136
 2666SOL     OW 8840   5.987   4.345   1.872 -0.2212 -0.0334 -0.1142
 2666SOL    HW1 8841   5.969   4.383   1.786  0.7244 -1.7065 -1.1192
 2666SOL    HW2 8842   5.901   4.331   1.911 -0.6616  0.8923 -0.7221
 2667SOL     OW 8843   2.294   6.272   1.142  0.0191 -0.2700 -0.3131
 2667SOL    HW1 8844   2.225   6.278   1.208 -0.2083 -1.2336 -0.4464
 2667SOL    HW2 8845   2.313   6.178   1.136 -0.1033 -0.2237 -1.7665
 2668SOL     OW 8846   4.401   2.891   2.377  0.4321  0.0510 -0.4021
 2668SOL    HW1 8847   4.455   2.871   2.301  1.5478 -2.8954  1.0300
 2668SOL    HW2 8848   4.312   2.873   2.349  0.9644 -2.5180 -0.6846
 2669SOL     OW 8849   3.619   6.713   0.060 -0.1401  0.3195  0.2778
 2669SOL    HW1 8850   3.546   6.774   0.071 -1.6436 -1.2426 -0.4878
 2669SOL    HW2 8851   3.605   6.674  -0.026  0.0899 -1.8957  1.1736
 2670SOL     OW 8852   3.676   4.947   2.172 -0.1329  0.6752 -0.5268
 2670SOL    HW1 8853   3.739   4.938   2.101 -0.2714 -0.2272 -0.5467
 2670SOL    HW2 8854   3.729   4.942   2.252 -0.3597 -2.6578 -0.4496
 2671SOL     OW 8855   5.581   2.314   5.473  1.1767 -0.1520  0.1482
 2671SOL    HW1 8856   5.525   2.386   5.442  1.5817 -0.4649 -1.4030
 2671SOL    HW2 8857   5.635   2.354   5.542 -0.1051  0.4536  0.8357
 2672SOL     OW 8858   3.179   1.819   7.139  0.2363 -0.2195 -0.3571
 2672SOL    HW1 8859   3.202   1.733   7.104  0.9623 -0.3217  0.3455
 2672SOL    HW2 8860   3.090   1.834   7.108  0.3936 -0.8665 -1.1579
 2673SOL     OW 8861   0.167   7.919   7.569  0.5433 -0.2524 -0.1176
 2673SOL    HW1 8862   0.247   7.937   7.619 -0.4814 -1.0645  1.9363
 2673SOL    HW2 8863   0.106   7.988   7.596 -0.2687 -1.1289  0.3224
 2674SOL     OW 8864   7.032   7.540   4.469  0.2617  0.0593 -0.3948
 2674SOL    HW1 8865   6.950   7.500   4.443  0.6184  0.1093 -1.6674
 2674SOL    HW2 8866   7.065   7.485   4.540 -1.3636  0.6463  0.8631
 2675SOL     OW 8867   0.344   2.625   7.261  0.0276  0.0263  0.0282
 2675SOL    HW1 8868   0.359   2.543   7.216  2.4137 -0.3516  1.3706
 2675SOL    HW2 8869   0.267   2.608   7.316 -0.1407 -0.9329 -0.4774
 2676SOL     OW 8870   2.698   5.613   2.822  0.1456 -0.3902  0.0448
 2676SOL    HW1 8871   2.780   5.566   2.837 -0.8799 -2.0471  0.7489
 2676SOL    HW2 8872   2.661   5.573   2.743 -1.9606 -2.7285  2.0296
 2677SOL     OW 8873   2.698   4.583   4.629  0.5760  0.3461 -0.2200
 2677SOL    HW1 8874   2.712   4.560   4.537  0.6076 -0.0894 -0.1090
 2677SOL    HW2 8875   2.617   4.537   4.653  1.8685 -1.5998  0.6644
 2678SOL     OW 8876   3.043   4.436   4.552 -0.0498 -0.2615  0.2070
 2678SOL    HW1 8877   3.010   4.390   4.629 -0.3884 -0.2279  0.0849
 2678SOL    HW2 8878   3.080   4.367   4.497  0.8770 -0.1944  0.7398
 2679SOL     OW 8879   8.081   0.965   3.831 -0.1442 -0.0161  0.7831
 2679SOL    HW1 8880   8.089   0.882   3.783 -2.5187  1.3093 -2.2325
 2679SOL    HW2 8881   8.166   1.007   3.821  0.7146 -1.5114  1.3431
 2680SOL     OW 8882   7.964   2.986   1.911  0.2400  0.2269  0.1768
 2680SOL    HW1 8883   7.908   2.994   1.988  2.8099 -2.8119  2.6235
 2680SOL    HW2 8884   7.960   2.893   1.888  2.9662  0.1719 -0.4537
 2681SOL     OW 8885   5.653   6.147   1.291  0.2347 -0.3602 -0.0326
 2681SOL    HW1 8886   5.624   6.144   1.382 -0.5473  2.0128 -0.1420
 2681SOL    HW2 8887   5.731   6.091   1.289  0.4287 -0.2558  2.1395
 2682SOL     OW 8888   4.421   0.949   1.098  0.1194 -0.5865 -0.0672
 2682SOL    HW1 8889   4.465   1.031   1.073  1.4786 -0.7266  1.6929
 2682SOL    HW2 8890   4.429   0.894   1.020  1.0857  0.2005 -0.5595
 2683SOL     OW 8891   2.675   7.633   4.593  0.3066  0.4509 -0.5869
 2683SOL    HW1 8892   2.671   7.663   4.684  1.8336  0.5566 -0.5339
 2683SOL    HW2 8893   2.665   7.538   4.599  0.2679  0.4707 -0.3160
 2684SOL     OW 8894   0.194   7.702   3.935  0.0964  0.2176 -0.2835
 2684SOL    HW1 8895   0.131   7.642   3.895  1.5023 -0.7195 -1.1836
 2684SOL    HW2 8896   0.167   7.705   4.027 -0.7561 -0.8243 -0.4668
 2685SOL     OW 8897   1.003   2.518   4.528 -0.1535  0.0568 -0.2850
 2685SOL    HW1 8898   0.959   2.536   4.611 -1.4964 -0.5754 -0.8274
 2685SOL    HW2 8899   0.944   2.555   4.461  0.3354 -0.4589 -1.0131
 2686SOL     OW 8900   1.127   5.794   6.461 -0.4531 -0.8798 -0.0353
 2686SOL    HW1 8901   1.048   5.845   6.480 -0.2129 -0.4878 -0.0754
 2686SOL    HW2 8902   1.105   5.705   6.490 -1.0902 -0.8884 -0.5225
 2687SOL     OW 8903   3.459   2.914   5.840  0.0374 -0.1697 -0.6332
 2687SOL    HW1 8904   3.446   2.844   5.777 -2.0501 -1.0617  0.6807
 2687SOL    HW2 8905   3.431   2.877   5.924  1.6064  1.3365  0.6361
 2688SOL     OW 8906   4.335   3.131   4.574  0.2136 -0.0295 -0.0101
 2688SOL    HW1 8907   4.372   3.136   4.486  0.4622  1.7471  0.1640
 2688SOL    HW2 8908   4.309   3.221   4.595 -0.8083 -0.5913  1.3305
 2689SOL     OW 8909   6.464   6.010   7.259 -0.0704 -0.3538 -0.9063
 2689SOL    HW1 8910   6.386   5.966   7.226 -1.9486  1.0901  1.3439
 2689SOL    HW2 8911   6.436   6.054   7.339  2.8028  1.1278 -0.5639
 2690SOL     OW 8912   4.941   0.738   2.504  0.6433  0.5475 -0.0445
 2690SOL    HW1 8913   4.885   0.663   2.485 -1.0637  1.2727  1.7883
 2690SOL    HW2 8914   5.026   0.699   2.523  0.6149 -0.6567 -2.0549
 2691SOL     OW 8915   4.777   3.753   4.623 -0.3978  0.4207 -0.3341
 2691SOL    HW1 8916   4.710   3.805   4.579 -2.9072 -1.4710  0.9623
 2691SOL    HW2 8917   4.789   3.797   4.708 -2.5005 -0.9546  0.7525
 2692SOL     OW 8918   1.610   7.139   1.331  0.5171  0.6508  0.0580
 2692SOL    HW1 8919   1.570   7.190   1.402 -0.9016 -0.6624  0.2622
 2692SOL    HW2 8920   1.598   7.193   1.253 -0.2335  1.0077  0.4064
 2693SOL     OW 8921   4.634   3.785   1.650 -0.5738 -0.4489 -0.3473
 2693SOL    HW1 8922   4.588   3.843   1.710  0.7708  1.0595 -0.7046
 2693SOL    HW2 8923   4.645   3.837   1.570  1.8982 -0.6338 -0.2027
 2694SOL     OW 8924   8.092   2.666   2.014 -0.0987  0.1773 -0.9512
 2694SOL    HW1 8925   8.088   2.690   2.107  1.7694 -0.7438 -0.5914
 2694SOL    HW2 8926   8.104   2.571   2.014 -1.7006 -0.0580 -2.2005
 2695SOL     OW 8927   6.411   7.551   2.073  0.1047  0.2208 -0.0602
 2695SOL    HW1 8928   6.337   7.510   2.117 -0.4064  0.1283 -0.9832
 2695SOL    HW2 8929   6.401   7.528   1.981  0.1878  1.8345 -0.5089
 2696SOL     OW 8930   3.291   0.944   4.886  0.4783 -0.0274  0.1230
 2696SOL    HW1 8931   3.204   0.962   4.849  1.1176  0.2576 -1.3230
 2696SOL    HW2 8932   3.274   0.889   4.963 -0.9934  0.2474  0.0159
 2697SOL     OW 8933   4.141   1.256   6.328 -0.2210  0.3022  0.2229
 2697SOL    HW1 8934   4.190   1.222   6.253 -0.2727  0.2731  0.2025
 2697SOL    HW2 8935   4.181   1.214   6.404  0.1274  0.6749  0.2473
 2698SOL     OW 8936   6.676   2.229   7.856 -0.1341  0.1328  0.3652
 2698SOL    HW1 8937   6.650   2.150   7.809  1.1356 -1.0949  1.6113
 2698SOL    HW2 8938   6.654   2.301   7.797 -1.4964 -1.1297 -0.7264
 2699SOL     OW 8939   8.160   1.311   3.306 -0.1958  0.1799 -0.6852
 2699SOL    HW1 8940   8.223   1.383   3.316 -0.1879  0.4152 -2.2109
 2699SOL    HW2 8941   8.092   1.347   3.249  0.0079 -1.1411 -1.7952
 2700SOL     OW 8942   4.690   4.552   3.258 -0.3098 -0.2888  0.3478
 2700SOL    HW1 8943   4.716   4.517   3.343 -1.0710 -0.4213  0.5336
 2700SOL    HW2 8944   4.607   4.509   3.238 -1.4356  1.5716  0.7087
 2701SOL     OW 8945   6.956   3.841   3.795  0.4913 -0.1435  0.0924
 2701SOL    HW1 8946   7.044   3.806   3.810  0.2756 -0.3981  0.7790
 2701SOL    HW2 8947   6.935   3.888   3.876  0.7758  1.6016 -0.7954
 2702SOL     OW 8948   5.065   2.814   6.148 -0.2179  0.0277  0.1468
 2702SOL    HW1 8949   5.153   2.851   6.141 -0.0123 -0.5503 -0.3637
 2702SOL    HW2 8950   5.007   2.889   6.132  0.1982 -0.0561 -2.1091
 2703SOL     OW 8951   1.244   7.733   1.580  0.0761 -0.0535 -0.2254
 2703SOL    HW1 8952   1.271   7.779   1.501 -0.7415  0.0012 -0.4871
 2703SOL    HW2 8953   1.169   7.680   1.553 -0.4685  0.2761  0.5919
 2704SOL     OW 8954   6.425   0.782   1.444  0.4882 -0.0755  0.1720
 2704SOL    HW1 8955   6.401   0.862   1.491 -0.5335  0.4645 -1.2186
 2704SOL    HW2 8956   6.465   0.727   1.511  0.9117  1.4537  1.2394
 2705SOL     OW 8957   3.028   7.933   4.106  0.0355 -0.0890  0.8679
 2705SOL    HW1 8958   3.082   7.999   4.063  1.5259 -0.8041  1.5338
 2705SOL    HW2 8959   2.993   7.977   4.183  0.2977  0.1839  0.8329
 2706SOL     OW 8960   7.986   4.466   7.509 -0.1758  0.2499  0.3816
 2706SOL    HW1 8961   8.070   4.456   7.463  0.0657 -1.4317  1.1067
 2706SOL    HW2 8962   8.006   4.519   7.585  0.3283 -0.4470  0.7456
 2707SOL     OW 8963   6.983   0.331   3.971  0.5971  0.1890  0.2488
 2707SOL    HW1 8964   7.005   0.334   3.878  0.4437  0.9806  0.2318
 2707SOL    HW2 8965   7.058   0.289   4.012  0.6231 -0.2519 -0.2451
 2708SOL     OW 8966   6.479   7.848   2.087  0.8099 -0.3929 -0.0398
 2708SOL    HW1 8967   6.427   7.768   2.076 -0.1990  0.1985  0.3792
 2708SOL    HW2 8968   6.555   7.819   2.139  0.3059 -1.0185  0.3686
 2709SOL     OW 8969   2.650   4.120   5.793 -0.1344  0.1694  0.2865
 2709SOL    HW1 8970   2.628   4.199   5.842  1.2057  0.9039 -0.2431
 2709SOL    HW2 8971   2.643   4.146   5.701  2.7853  0.5123  0.0528
 2710SOL     OW 8972   4.125   2.566   0.863 -0.0752  0.1824 -0.6719
 2710SOL    HW1 8973   4.203   2.549   0.916 -0.1828  0.7052 -0.3386
 2710SOL    HW2 8974   4.130   2.659   0.843 -0.4458  0.1483 -0.9247
 2711SOL     OW 8975   0.774   2.054   0.181 -0.9071  0.2438  0.2212
 2711SOL    HW1 8976   0.783   1.959   0.169 -1.0958  0.2292  0.1857
 2711SOL    HW2 8977   0.854   2.091   0.143 -1.0636  0.1305 -0.2271
 2712SOL     OW 8978   3.236   6.498   6.629 -0.1643  0.1067  0.0456
 2712SOL    HW1 8979   3.162   6.535   6.582 -0.7605 -1.9853 -0.7987
 2712SOL    HW2 8980   3.233   6.538   6.716 -0.7851  1.8693 -0.7457
 2713SOL     OW 8981   5.822   6.535   3.522  0.4609  0.3630  0.0697
 2713SOL    HW1 8982   5.778   6.451   3.513 -1.0586  1.0928  0.4808
 2713SOL    HW2 8983   5.883   6.538   3.448  0.6307 -1.1408  0.1273
 2714SOL     OW 8984   1.231   7.380   4.418  0.4992  0.2990 -0.1677
 2714SOL    HW1 8985   1.314   7.388   4.466  0.4925 -0.6672  0.0287
 2714SOL    HW2 8986   1.180   7.456   4.445  2.2429  2.3481 -2.2182
 2715SOL     OW 8987   0.094   4.039   1.419 -0.2381 -0.0702  0.3997
 2715SOL    HW1 8988   0.176   4.088   1.410 -0.4591  0.1610 -0.4273
 2715SOL    HW2 8989   0.120   3.947   1.415 -0.0068  0.0009  0.2386
 2716SOL     OW 8990   8.097   0.877   5.064 -0.5668 -0.0736 -0.2416
 2716SOL    HW1 8991   8.046   0.853   5.141 -2.3455 -1.6203 -1.8066
 2716SOL    HW2 8992   8.037   0.865   4.991  1.1962  0.8900 -1.9415
 2717SOL     OW 8993   7.709   6.412   0.376 -1.0881  0.3688 -0.3840
 2717SOL    HW1 8994   7.702   6.326   0.336 -0.9293 -2.0295  4.1311
 2717SOL    HW2 8995   7.620   6.448   0.371 -1.2893 -0.2505 -1.8196
 2718SOL     OW 8996   1.989   7.951   7.937  0.5278 -0.1784 -0.1093
 2718SOL    HW1 8997   2.031   7.961   7.851 -0.4384 -0.4507 -0.6416
 2718SOL    HW2 8998   2.046   7.891   7.985  1.4977  0.5936 -0.2687
 2719SOL     OW 8999   4.345   3.265   3.032  0.4190 -0.7898 -0.1463
 2719SOL    HW1 9000   4.411   3.333   3.045  0.6016 -0.5951 -1.8863
 2719SOL    HW2 9001   4.298   3.261   3.115  1.3385  0.4420  0.4677
 2720SOL     OW 9002   6.793   4.882   7.369  0.5479 -0.1016  0.3356
 2720SOL    HW1 9003   6.826   4.794   7.351 -0.4679 -0.4237  0.0173
 2720SOL    HW2 9004   6.839   4.908   7.449  2.4083 -0.0853 -0.6785
 2721SOL     OW 9005   1.423   6.317   0.742  0.2904  0.3047  0.2536
 2721SOL    HW1 9006   1.494   6.290   0.801  1.3413 -1.1836 -1.5694
 2721SOL    HW2 9007   1.453   6.290   0.655 -1.7666  1.2367 -0.8110
 2722SOL     OW 9008   6.137   4.013   2.518  1.0911  0.0386  0.3830
 2722SOL    HW1 9009   6.086   3.966   2.451  0.7039  0.3236  0.4700
 2722SOL    HW2 9010   6.197   3.947   2.553  0.5320 -0.4100  0.5276
 2723SOL     OW 9011   2.850   3.902   7.628  0.4724 -0.6864  0.0981
 2723SOL    HW1 9012   2.842   3.844   7.703  1.5568 -0.3430  0.5084
 2723SOL    HW2 9013   2.762   3.908   7.591  0.5400 -3.5571 -0.7085
 2724SOL     OW 9014   0.857   0.096   6.555 -0.1017  0.0069  0.4069
 2724SOL    HW1 9015   0.771   0.056   6.548 -0.6332  1.1623  0.1116
 2724SOL    HW2 9016   0.906   0.062   6.479 -0.9181  0.7858 -0.4952
 2725SOL     OW 9017   6.386   0.353   6.288  0.3150  0.5243 -0.4076
 2725SOL    HW1 9018   6.448   0.417   6.324 -0.5309 -0.1163  2.4115
 2725SOL    HW2 9019   6.304   0.401   6.281  0.1204  0.2475 -0.0432
 2726SOL     OW 9020   5.902   2.072   4.563  0.3512 -0.1669  0.0301
 2726SOL    HW1 9021   5.821   2.065   4.614  1.1130 -1.2446  1.1558
 2726SOL    HW2 9022   5.920   2.166   4.559 -0.6622  0.0487  0.2179
 2727SOL     OW 9023   3.002   6.443   4.612  0.1305  0.6748 -0.5283
 2727SOL    HW1 9024   3.034   6.459   4.524  2.2084 -0.9329 -0.1388
 2727SOL    HW2 9025   2.977   6.351   4.613 -0.7216  0.8971  0.3186
 2728SOL     OW 9026   3.609   2.974   7.659  1.1591  0.0170 -0.8452
 2728SOL    HW1 9027   3.599   3.027   7.580 -1.0065 -1.4590 -1.6539
 2728SOL    HW2 9028   3.526   2.984   7.705  2.2552  0.5700  1.1142
 2729SOL     OW 9029   7.816   2.902   5.885 -0.0534  0.1120 -0.0994
 2729SOL    HW1 9030   7.849   2.933   5.801  1.9662  0.4013  0.7475
 2729SOL    HW2 9031   7.895   2.879   5.935 -1.1607  0.3923  1.8923
 2730SOL     OW 9032   0.880   1.254   3.235 -0.6741 -0.0156  0.0384
 2730SOL    HW1 9033   0.877   1.162   3.206  1.5384  0.1241 -0.8459
 2730SOL    HW2 9034   0.901   1.249   3.328  0.4141 -0.4202 -0.2160
 2731SOL     OW 9035   6.245   3.388   7.375  0.3789  0.6052  0.2606
 2731SOL    HW1 9036   6.213   3.358   7.461 -0.7986 -0.5343 -0.5315
 2731SOL    HW2 9037   6.165   3.406   7.325  0.9957 -0.4307 -1.1496
 2732SOL     OW 9038   0.211   0.527   3.166  0.1265  0.3427 -0.0743
 2732SOL    HW1 9039   0.242   0.565   3.083  1.5782 -0.5959 -0.0124
 2732SOL    HW2 9040   0.168   0.599   3.211 -0.4554  0.9491 -1.5156
 2733SOL     OW 9041   3.016   1.166   3.770 -0.1995  0.1330 -0.2176
 2733SOL    HW1 9042   2.956   1.209   3.709 -0.0900  0.4471 -0.1042
 2733SOL    HW2 9043   3.100   1.212   3.758 -0.3835  0.7583  0.7594
 2734SOL     OW 9044   3.616   3.110   2.937 -0.0312 -0.0151 -0.0555
 2734SOL    HW1 9045   3.609   3.019   2.965  1.8892  0.3790  1.9607
 2734SOL    HW2 9046   3.710   3.128   2.935 -0.3821  2.2453  0.7689
 2735SOL     OW 9047   7.434   0.869   6.784  0.8485 -0.0781 -0.1746
 2735SOL    HW1 9048   7.450   0.879   6.878 -0.8039 -0.4249  0.1785
 2735SOL    HW2 9049   7.349   0.826   6.779  2.4164 -3.3170 -1.7974
 2736SOL     OW 9050   1.907   7.119   0.211  0.2148  0.6633 -0.3614
 2736SOL    HW1 9051   1.939   7.192   0.264 -1.5417  2.1904 -1.2637
 2736SOL    HW2 9052   1.848   7.071   0.268  1.2326  0.0029  0.1764
 2737SOL     OW 9053   0.310   5.829   5.756  0.0135  0.3543  0.1626
 2737SOL    HW1 9054   0.276   5.793   5.674 -0.0809  0.7929  0.0040
 2737SOL    HW2 9055   0.349   5.754   5.801 -1.2665 -0.1863  0.4082
 2738SOL     OW 9056   6.765   1.687   2.871 -0.7747 -0.4518  0.8185
 2738SOL    HW1 9057   6.827   1.675   2.800 -0.9639 -0.5129  0.6625
 2738SOL    HW2 9058   6.679   1.688   2.829 -0.7717  1.9914  0.7379
 2739SOL     OW 9059   2.476   6.865   5.482  0.1497  0.1295 -0.5224
 2739SOL    HW1 9060   2.463   6.771   5.494  1.0403  0.0063 -0.4466
 2739SOL    HW2 9061   2.479   6.900   5.571  0.8017  0.0770 -0.5157
 2740SOL     OW 9062   7.178   1.322   7.084  0.3098  0.4625  0.3159
 2740SOL    HW1 9063   7.129   1.362   7.155  0.8215 -1.3866  1.7998
 2740SOL    HW2 9064   7.112   1.281   7.029 -0.0272  1.0116  0.3056
 2741SOL     OW 9065   8.189   6.875   7.363 -0.1144  0.0380 -0.3127
 2741SOL    HW1 9066   8.211   6.809   7.296 -1.5687 -0.6348 -0.1650
 2741SOL    HW2 9067   8.106   6.844   7.400  0.3222  0.7821  1.3284
 2742SOL     OW 9068   4.504   6.555   0.386  0.0498  0.2592 -0.1678
 2742SOL    HW1 9069   4.460   6.473   0.409  0.2593 -0.3179 -1.7450
 2742SOL    HW2 9070   4.444   6.623   0.417 -1.5528 -0.5168 -1.4060
 2743SOL     OW 9071   1.842   1.429   4.612 -0.0870 -0.4010  0.9212
 2743SOL    HW1 9072   1.841   1.496   4.543 -0.5889  0.4512  1.7332
 2743SOL    HW2 9073   1.794   1.469   4.685 -0.0192 -1.4868  1.5808
 2744SOL     OW 9074   2.634   1.161   7.338  0.2273  0.7825  0.0025
 2744SOL    HW1 9075   2.678   1.101   7.279 -0.8599  0.5006 -0.5419
 2744SOL    HW2 9076   2.689   1.163   7.416  0.5723 -0.4890 -0.1878
 2745SOL     OW 9077   6.790   2.349   1.794  0.0728 -0.4951  0.1917
 2745SOL    HW1 9078   6.803   2.429   1.846  0.0467 -0.7708  0.6288
 2745SOL    HW2 9079   6.871   2.341   1.743 -0.0413 -0.0354 -0.0712
 2746SOL     OW 9080   7.788   0.195   1.325  0.2119 -0.4226 -0.3346
 2746SOL    HW1 9081   7.731   0.270   1.313  0.0649  0.1301  3.0370
 2746SOL    HW2 9082   7.739   0.121   1.289 -0.6350  0.6837 -1.5429
 2747SOL     OW 9083   5.281   2.997   5.762  0.3164 -0.2661  0.5601
 2747SOL    HW1 9084   5.196   2.964   5.790  0.7023 -1.8719 -0.0023
 2747SOL    HW2 9085   5.267   3.025   5.671  0.6333 -1.8198 -0.0168
 2748SOL     OW 9086   5.994   3.884   2.306 -0.1020 -0.1764 -0.5286
 2748SOL    HW1 9087   5.965   3.813   2.363 -1.0971 -0.2244 -1.0804
 2748SOL    HW2 9088   5.916   3.910   2.257  0.3994  0.8531 -0.8197
 2749SOL     OW 9089   4.113   5.297   5.949  0.2942 -0.0422 -0.0056
 2749SOL    HW1 9090   4.148   5.324   5.864 -0.5954  0.4870 -0.2181
 2749SOL    HW2 9091   4.031   5.252   5.928  1.1544 -1.9150  0.4291
 2750SOL     OW 9092   5.863   1.580   2.323  0.7237 -0.4856 -0.1631
 2750SOL    HW1 9093   5.884   1.672   2.339 -1.0864  0.0232 -0.4181
 2750SOL    HW2 9094   5.767   1.577   2.328  0.7399 -2.3048 -0.4659
 2751SOL     OW 9095   3.127   1.142   1.368 -0.1101  0.3974 -0.0358
 2751SOL    HW1 9096   3.212   1.118   1.404  0.0729 -0.5091 -1.0145
 2751SOL    HW2 9097   3.075   1.170   1.443  1.4333  2.1707  0.4373
 2752SOL     OW 9098   1.604   3.318   3.174  0.2903  0.3821 -0.1909
 2752SOL    HW1 9099   1.629   3.272   3.094 -0.1574 -0.4146  0.1171
 2752SOL    HW2 9100   1.508   3.314   3.175  0.1329  2.4196 -0.7917
 2753SOL     OW 9101   8.085   4.217   1.862  0.0575  0.3989 -0.1087
 2753SOL    HW1 9102   7.998   4.193   1.830 -0.2337 -0.2796  1.1058
 2753SOL    HW2 9103   8.116   4.285   1.802 -0.4663 -0.7587 -1.7467
 2754SOL     OW 9104   0.412   5.880   3.718  1.0908  0.0779 -0.3316
 2754SOL    HW1 9105   0.350   5.817   3.681  0.5406  0.9598 -0.9367
 2754SOL    HW2 9106   0.364   5.922   3.789  1.2061  0.3212 -0.3946
 2755SOL     OW 9107   0.244   7.380   5.279 -1.0396  0.1442  0.4891
 2755SOL    HW1 9108   0.242   7.475   5.270 -3.0197  0.3354  2.2025
 2755SOL    HW2 9109   0.283   7.365   5.365  1.1087 -0.7550 -0.5550
 2756SOL     OW 9110   6.770   6.003   4.177 -0.3391 -0.2941 -0.0945
 2756SOL    HW1 9111   6.722   6.057   4.115  0.6552  0.2225 -0.4395
 2756SOL    HW2 9112   6.861   6.010   4.149  0.2422  0.4918  1.8050
 2757SOL     OW 9113   7.007   5.155   2.858 -0.1510  0.7685 -0.7573
 2757SOL    HW1 9114   7.096   5.128   2.834  0.4409  2.2727 -0.3486
 2757SOL    HW2 9115   6.976   5.086   2.917  1.4482  1.1139  0.5550
 2758SOL     OW 9116   7.810   3.203   2.473  0.2544  0.1015 -0.7875
 2758SOL    HW1 9117   7.873   3.142   2.511 -0.0130  0.7303  0.7418
 2758SOL    HW2 9118   7.765   3.153   2.406  0.8594 -1.0220 -0.3791
 2759SOL     OW 9119   2.085   4.201   3.509  0.3732  0.2591  0.0971
 2759SOL    HW1 9120   2.131   4.269   3.558  2.4676 -0.5288 -0.6685
 2759SOL    HW2 9121   2.039   4.249   3.439 -0.8282  1.1537  1.4332
 2760SOL     OW 9122   0.873   5.886   1.863  0.0977 -0.1319 -0.5174
 2760SOL    HW1 9123   0.785   5.918   1.843 -0.3092 -0.8499  0.1037
 2760SOL    HW2 9124   0.861   5.826   1.936  1.2485  0.5544  0.2515
 2761SOL     OW 9125   2.896   1.647   7.906  0.1655  0.4538  0.1343
 2761SOL    HW1 9126   2.870   1.722   7.853  1.0176 -0.2967 -1.3968
 2761SOL    HW2 9127   2.972   1.679   7.956  2.0156  0.0368 -2.2243
 2762SOL     OW 9128   0.996   5.327   1.909 -0.3969 -0.4060 -0.1508
 2762SOL    HW1 9129   1.063   5.272   1.948  0.5779  0.6058 -0.3652
 2762SOL    HW2 9130   0.928   5.334   1.977 -0.4090 -1.5964 -0.0134
 2763SOL     OW 9131   2.722   2.492   4.928 -0.2741  0.2166  1.1042
 2763SOL    HW1 9132   2.673   2.423   4.973 -0.7581  0.6697  1.2910
 2763SOL    HW2 9133   2.654   2.551   4.894  0.0950  0.0435  0.0343
 2764SOL     OW 9134   4.545   0.979   0.216 -0.4031 -0.1965  0.2832
 2764SOL    HW1 9135   4.627   0.933   0.200  0.3224 -0.0023  2.9611
 2764SOL    HW2 9136   4.483   0.911   0.242 -1.2898 -0.3917 -2.0742
 2765SOL     OW 9137   1.440   7.983   2.670  0.0315 -0.4451  0.1374
 2765SOL    HW1 9138   1.398   8.002   2.754  1.6272  3.4852  0.2564
 2765SOL    HW2 9139   1.527   7.952   2.693  0.2991  0.1621 -0.0344
 2766SOL     OW 9140   4.372   1.088   0.003 -0.5883  0.4557  0.4563
 2766SOL    HW1 9141   4.282   1.097   0.034  0.5630  3.0085  3.6554
 2766SOL    HW2 9142   4.395   1.175  -0.030  0.3376 -0.5443 -1.7636
 2767SOL     OW 9143   1.203   6.904   4.506 -0.5400  0.4368  0.0906
 2767SOL    HW1 9144   1.135   6.868   4.449  1.4464 -0.5794 -1.8186
 2767SOL    HW2 9145   1.238   6.827   4.552 -0.4091  0.8892  0.7626
 2768SOL     OW 9146   3.543   1.035   7.010 -0.0800 -0.4655  0.4134
 2768SOL    HW1 9147   3.514   0.995   6.927 -2.6105 -0.0749  1.0290
 2768SOL    HW2 9148   3.546   1.129   6.991 -1.1611 -0.3271  0.8640
 2769SOL     OW 9149   0.182   4.223   7.023  0.0900  0.4378  0.4738
 2769SOL    HW1 9150   0.216   4.137   6.999  0.5821  0.4295  1.1621
 2769SOL    HW2 9151   0.128   4.249   6.949 -0.1196 -0.4921  0.2854
 2770SOL     OW 9152   7.587   7.345   6.816  0.2893  0.1271 -0.7031
 2770SOL    HW1 9153   7.531   7.416   6.786  0.8714  0.7757 -0.2708
 2770SOL    HW2 9154   7.528   7.269   6.822 -0.3141  0.5421 -1.2442
 2771SOL     OW 9155   1.417   1.864   4.931 -0.6108  0.4445  0.6252
 2771SOL    HW1 9156   1.411   1.960   4.937 -2.2441  0.5067 -0.9796
 2771SOL    HW2 9157   1.329   1.834   4.954  0.1251 -0.7550  1.9793
 2772SOL     OW 9158   1.696   3.057   5.637 -0.0687 -0.8140  0.2567
 2772SOL    HW1 9159   1.774   3.071   5.691  0.6222 -1.1570 -0.6315
 2772SOL    HW2 9160   1.679   3.143   5.598 -0.3574 -0.6516  0.7336
 2773SOL     OW 9161   1.985   7.087   1.900  0.2305 -1.0858  0.3026
 2773SOL    HW1 9162   1.920   7.023   1.872 -0.0505 -0.5110 -0.3882
 2773SOL    HW2 9163   1.961   7.109   1.990 -0.9306 -0.4094 -0.1547
 2774SOL     OW 9164   3.168   2.715   8.142  0.9149  0.3366 -0.8207
 2774SOL    HW1 9165   3.079   2.744   8.163  1.1908  1.5596 -1.2920
 2774SOL    HW2 9166   3.222   2.748   8.214  1.0086 -0.3742 -0.5540
 2775SOL     OW 9167   5.848   0.988   7.527 -0.6562  0.2660  0.4118
 2775SOL    HW1 9168   5.852   1.071   7.575  0.4349 -0.0786  0.9592
 2775SOL    HW2 9169   5.935   0.978   7.488 -0.7582 -0.6333  0.3849
 2776SOL     OW 9170   7.593   0.384   3.596 -0.4671 -0.3864  0.0313
 2776SOL    HW1 9171   7.624   0.430   3.518 -0.3547  0.7489  0.7255
 2776SOL    HW2 9172   7.498   0.382   3.587 -0.4501 -0.3151 -0.1636
 2777SOL     OW 9173   3.383   7.165   7.136 -0.4961  0.1174 -0.6106
 2777SOL    HW1 9174   3.371   7.097   7.070 -2.1774 -0.1387 -0.0856
 2777SOL    HW2 9175   3.474   7.157   7.162 -0.1613 -0.6679 -1.9184
 2778SOL     OW 9176   7.773   0.982   8.212  0.5086 -0.1761  0.0650
 2778SOL    HW1 9177   7.719   0.906   8.235 -0.6201  0.3467 -0.7518
 2778SOL    HW2 9178   7.710   1.048   8.183  1.3058  1.5855  2.0263
 2779SOL     OW 9179   8.031   4.978   4.393  0.1483 -0.2874  0.1870
 2779SOL    HW1 9180   8.114   4.932   4.395  0.0014 -0.5776 -0.2196
 2779SOL    HW2 9181   7.992   4.962   4.478  0.4163 -0.3172  0.3061
 2780SOL     OW 9182   4.567   5.025   3.355  0.1985  0.2086  0.0191
 2780SOL    HW1 9183   4.478   4.996   3.335 -0.6555  2.0414  0.9362
 2780SOL    HW2 9184   4.601   5.056   3.271 -0.1506 -0.2160 -0.2822
 2781SOL     OW 9185   0.801   0.416   1.346 -0.0507 -0.2322 -0.1056
 2781SOL    HW1 9186   0.752   0.399   1.427 -0.3649 -1.2931 -0.5076
 2781SOL    HW2 9187   0.736   0.452   1.286 -0.0397 -0.3882 -0.2101
 2782SOL     OW 9188   0.101   2.961   0.928 -0.4127  0.2783  0.1024
 2782SOL    HW1 9189   0.058   3.044   0.949  0.8628  1.2913 -1.1153
 2782SOL    HW2 9190   0.168   2.984   0.863 -0.0603 -1.7146 -0.3077
 2783SOL     OW 9191   1.495   1.263   4.718 -0.2114 -0.5539 -0.2031
 2783SOL    HW1 9192   1.471   1.331   4.781  1.0336 -0.9601  0.7505
 2783SOL    HW2 9193   1.456   1.183   4.754 -2.6552 -0.2374 -1.9082
 2784SOL     OW 9194   3.908   1.461   2.848  0.1864 -0.7101  0.3332
 2784SOL    HW1 9195   3.898   1.510   2.767  0.4977 -0.5273  0.4033
 2784SOL    HW2 9196   4.003   1.454   2.861  0.1721 -1.9081 -0.0205
 2785SOL     OW 9197   5.403   0.019   7.933  0.1413 -0.1304  0.9350
 2785SOL    HW1 9198   5.393  -0.061   7.984  1.4460  0.9847  3.1170
 2785SOL    HW2 9199   5.384   0.090   7.995  0.0125  1.2840 -0.6404
 2786SOL     OW 9200   7.527   5.714   3.947  0.3347 -0.0037 -0.2167
 2786SOL    HW1 9201   7.552   5.678   4.033  0.2156 -1.7092 -0.8561
 2786SOL    HW2 9202   7.610   5.742   3.908  0.1059  4.3282  1.8437
 2787SOL     OW 9203   5.282   5.164   5.901  0.2467 -0.0976 -0.0712
 2787SOL    HW1 9204   5.259   5.173   5.994 -1.8257 -0.9322 -0.4475
 2787SOL    HW2 9205   5.365   5.116   5.901  0.5563  0.3806  1.3400
 2788SOL     OW 9206   0.899   1.429   0.127 -0.4241  0.0937  0.4539
 2788SOL    HW1 9207   0.939   1.342   0.116 -1.0373 -0.2064  0.5664
 2788SOL    HW2 9208   0.854   1.424   0.211 -1.3966  0.1485 -0.0555
 2789SOL     OW 9209   7.869   5.757   3.522 -0.1581 -0.2473  0.1888
 2789SOL    HW1 9210   7.844   5.681   3.470 -0.2379 -0.6808  0.8470
 2789SOL    HW2 9211   7.831   5.831   3.475 -0.8616 -0.6956  0.0256
 2790SOL     OW 9212   1.975   2.223   6.528  0.1337  0.2833 -0.1548
 2790SOL    HW1 9213   2.068   2.211   6.548  0.1962  1.1298  0.1176
 2790SOL    HW2 9214   1.967   2.200   6.436  0.5759  0.0234 -0.1342
 2791SOL     OW 9215   5.432   3.465   4.771  0.1679 -0.2743  0.1106
 2791SOL    HW1 9216   5.338   3.458   4.752  0.0547  2.6154 -0.7831
 2791SOL    HW2 9217   5.436   3.478   4.866 -0.5033  1.1323 -0.0277
 2792SOL     OW 9218   4.730   4.303   0.467  0.1008  0.3724  0.1134
 2792SOL    HW1 9219   4.728   4.390   0.505 -0.0250  0.3025  0.2730
 2792SOL    HW2 9220   4.644   4.265   0.490  0.5283 -0.1495  0.8923
 2793SOL     OW 9221   1.203   3.700   0.159 -0.3904  0.1077  0.4126
 2793SOL    HW1 9222   1.234   3.754   0.231 -2.9665  1.2864  0.7364
 2793SOL    HW2 9223   1.270   3.710   0.091  0.9846  0.7558  1.8185
 2794SOL     OW 9224   6.824   7.581   0.056 -0.7637 -0.2635  0.1484
 2794SOL    HW1 9225   6.802   7.498   0.098 -1.3893 -0.2070 -0.0585
 2794SOL    HW2 9226   6.763   7.588  -0.018 -0.5443  0.2574  0.0094
 2795SOL     OW 9227   0.059   5.222   0.347  0.0607 -0.2354 -0.2891
 2795SOL    HW1 9228   0.074   5.127   0.343  0.3022 -0.3128  1.5414
 2795SOL    HW2 9229  -0.036   5.231   0.343  0.0523 -0.4989 -0.9682
 2796SOL     OW 9230   6.481   6.710   7.299 -0.1826  0.2321 -0.6420
 2796SOL    HW1 9231   6.454   6.711   7.391 -0.0116  1.3165 -0.5926
 2796SOL    HW2 9232   6.444   6.629   7.264  1.0028 -0.9626  0.7538
 2797SOL     OW 9233   1.128   1.819   0.168 -0.4845 -0.0851 -0.1048
 2797SOL    HW1 9234   1.194   1.801   0.234  0.0053  1.3930 -0.1484
 2797SOL    HW2 9235   1.107   1.733   0.130  0.1913 -0.7754  1.0360
 2798SOL     OW 9236   3.495   4.420   5.918  0.0610 -0.4728 -0.5488
 2798SOL    HW1 9237   3.468   4.462   5.837  0.3360  0.8310  0.0010
 2798SOL    HW2 9238   3.504   4.328   5.896 -0.4257 -0.2286 -1.8491
 2799SOL     OW 9239   0.056   1.188   7.988  0.5273 -0.1376  0.2906
 2799SOL    HW1 9240   0.043   1.254   7.920  1.5391 -0.6697 -0.4350
 2799SOL    HW2 9241  -0.032   1.152   8.004  0.2217  0.2832 -0.4358
 2800SOL     OW 9242   4.710   1.985   3.968 -0.2811 -0.1432 -0.3842
 2800SOL    HW1 9243   4.671   2.023   3.889 -0.8071 -1.4346 -0.7787
 2800SOL    HW2 9244   4.660   1.905   3.983  1.1159 -0.9659  0.0932
 2801SOL     OW 9245   3.495   6.537   2.167 -0.5746 -0.1958 -0.5086
 2801SOL    HW1 9246   3.403   6.515   2.178 -0.1193 -1.0686  2.5378
 2801SOL    HW2 9247   3.524   6.565   2.254  2.3530 -1.3948 -0.9540
 2802SOL     OW 9248   3.154   8.184   5.974 -0.6993  0.2931 -0.4684
 2802SOL    HW1 9249   3.126   8.140   5.894 -0.2257  0.0985 -0.5273
 2802SOL    HW2 9250   3.210   8.256   5.944  1.7077 -1.3699 -0.2370
 2803SOL     OW 9251   2.194   2.375   3.009  0.0156 -0.5834 -0.2237
 2803SOL    HW1 9252   2.122   2.327   3.050 -0.6823  0.3208 -0.3587
 2803SOL    HW2 9253   2.260   2.382   3.077  0.2162 -1.8576 -0.2462
 2804SOL     OW 9254   0.395   4.756   1.193 -0.8464 -0.5831  0.1993
 2804SOL    HW1 9255   0.326   4.714   1.245 -0.6197  0.0395  1.0264
 2804SOL    HW2 9256   0.365   4.846   1.181  0.6950  0.2893  2.2910
 2805SOL     OW 9257   3.959   8.106   2.173 -0.4454  0.5805 -0.2066
 2805SOL    HW1 9258   3.977   8.156   2.094 -0.8034 -0.6899 -1.1331
 2805SOL    HW2 9259   4.036   8.049   2.184 -1.3191 -0.7930 -0.9184
 2806SOL     OW 9260   2.345   4.543   8.102 -0.2859  0.3377  0.3750
 2806SOL    HW1 9261   2.280   4.593   8.151  0.5657  0.2619  1.6141
 2806SOL    HW2 9262   2.427   4.556   8.149  0.2261 -1.1374 -0.0317
 2807SOL     OW 9263   3.036   6.770   0.963 -0.3630  0.2676  0.4334
 2807SOL    HW1 9264   3.056   6.691   1.014  0.9555  0.1961 -0.1606
 2807SOL    HW2 9265   3.084   6.840   1.006  2.2931 -0.0972 -1.6262
 2808SOL     OW 9266   6.574   0.233   3.481  0.2184  1.1413 -0.1537
 2808SOL    HW1 9267   6.526   0.186   3.549  1.3532  0.4266  0.1846
 2808SOL    HW2 9268   6.586   0.321   3.517 -1.0966  1.4293 -0.3842
 2809SOL     OW 9269   2.251   6.851   7.924  0.0901 -0.4178  0.1583
 2809SOL    HW1 9270   2.316   6.781   7.917  3.1479  1.9838  1.8311
 2809SOL    HW2 9271   2.234   6.858   8.018  1.1233  2.0155  0.2379
 2810SOL     OW 9272   1.251   4.497   5.804 -0.4031 -0.2241 -0.5405
 2810SOL    HW1 9273   1.275   4.473   5.714  0.1084  1.2762 -0.8386
 2810SOL    HW2 9274   1.329   4.478   5.855 -0.4038 -0.3112 -0.5726
 2811SOL     OW 9275   3.612   1.763   0.312 -0.0051  0.1342 -0.0391
 2811SOL    HW1 9276   3.570   1.836   0.267 -0.5301 -0.3046 -0.2870
 2811SOL    HW2 9277   3.688   1.801   0.356  0.0154  0.7274 -0.5831
 2812SOL     OW 9278   7.769   7.812   1.337 -0.0052 -0.1395 -0.5151
 2812SOL    HW1 9279   7.821   7.818   1.418 -1.9786 -0.1235  0.8333
 2812SOL    HW2 9280   7.743   7.720   1.333  0.3917 -0.2247 -1.3749
 2813SOL     OW 9281   3.228   7.461   6.322  0.4235  0.3079 -0.1647
 2813SOL    HW1 9282   3.275   7.504   6.251  1.1359  0.9050  0.6436
 2813SOL    HW2 9283   3.218   7.529   6.389  1.0602 -0.6057  0.9040
 2814SOL     OW 9284   2.772   4.500   1.633  0.0423 -0.0427 -0.1004
 2814SOL    HW1 9285   2.680   4.509   1.655 -0.5595 -1.5056 -1.8047
 2814SOL    HW2 9286   2.803   4.428   1.689  0.2287  0.5777  0.6135
 2815SOL     OW 9287   5.216   0.382   1.932 -0.4009 -0.0294 -0.2172
 2815SOL    HW1 9288   5.198   0.312   1.995 -0.4268  1.2741  1.2912
 2815SOL    HW2 9289   5.151   0.370   1.863  0.2893 -2.1387 -0.5810
 2816SOL     OW 9290   7.552   0.363   5.883  0.5719 -0.0023  0.3084
 2816SOL    HW1 9291   7.496   0.439   5.868 -0.3141 -0.8758 -1.0136
 2816SOL    HW2 9292   7.634   0.384   5.838  0.4099  0.2492  0.1304
 2817SOL     OW 9293   5.661   2.402   4.955  0.3620 -0.3306  0.1462
 2817SOL    HW1 9294   5.740   2.380   5.005 -0.1881 -1.3184  0.6241
 2817SOL    HW2 9295   5.683   2.383   4.864  0.9183  0.1516  0.1734
 2818SOL     OW 9296   8.080   7.594   2.930  0.8211  0.3784 -0.1215
 2818SOL    HW1 9297   8.108   7.610   3.020  0.0726 -1.6840  0.5370
 2818SOL    HW2 9298   8.152   7.547   2.889 -0.1609 -1.9120  0.5657
 2819SOL     OW 9299   6.496   6.266   4.594 -0.4439  0.2140 -0.0042
 2819SOL    HW1 9300   6.557   6.192   4.586 -0.1316  0.4712  0.0004
 2819SOL    HW2 9301   6.427   6.246   4.530  0.4117  0.6704 -1.1125
 2820SOL     OW 9302   3.553   6.991   8.056 -0.4931  0.6921 -0.1605
 2820SOL    HW1 9303   3.599   7.053   8.112  1.7241 -0.7513 -0.2739
 2820SOL    HW2 9304   3.504   6.936   8.117 -1.2598  1.5546  0.0331
 2821SOL     OW 9305   5.206   6.379   2.068 -0.1421  0.0812 -0.0126
 2821SOL    HW1 9306   5.236   6.289   2.071 -0.3150  0.0131 -0.3110
 2821SOL    HW2 9307   5.268   6.424   2.011 -0.5672 -0.0457 -0.5779
 2822SOL     OW 9308   4.958   2.067   5.090 -0.7368  0.4075 -0.0279
 2822SOL    HW1 9309   5.001   2.019   5.161 -0.4098  0.5005 -0.1598
 2822SOL    HW2 9310   4.962   2.007   5.015 -0.3143  0.6409 -0.1969
 2823SOL     OW 9311   2.706   4.443   5.434 -0.3964 -0.2149 -0.4348
 2823SOL    HW1 9312   2.692   4.536   5.416 -0.3502  0.3624  2.2304
 2823SOL    HW2 9313   2.795   4.426   5.400 -0.3305  0.7373 -0.7756
 2824SOL     OW 9314   4.920   6.769   4.001 -0.2890  0.7646 -0.0561
 2824SOL    HW1 9315   4.948   6.684   4.034  1.2249  0.4076 -2.0666
 2824SOL    HW2 9316   4.826   6.758   3.985  0.2937 -1.4954 -2.7247
 2825SOL     OW 9317   0.111   1.555   0.952  0.1924 -0.6774 -0.0600
 2825SOL    HW1 9318   0.101   1.646   0.924  0.4198 -0.5421  0.2978
 2825SOL    HW2 9319   0.196   1.529   0.915 -0.1777 -0.9609 -0.7380
 2826SOL     OW 9320   5.076   1.157   7.325  0.3873  0.2787 -0.0811
 2826SOL    HW1 9321   4.990   1.196   7.341  0.9778  1.1358  1.1142
 2826SOL    HW2 9322   5.136   1.205   7.382  1.3806 -1.4764  0.4389
 2827SOL     OW 9323   7.101   5.522   0.500 -0.3419  0.1191  0.6738
 2827SOL    HW1 9324   7.106   5.437   0.543 -0.1523  0.2983  1.0063
 2827SOL    HW2 9325   7.116   5.585   0.570 -1.9641  0.4955  0.7295
 2828SOL     OW 9326   0.327   3.584   1.831  0.0369 -0.1420 -0.1348
 2828SOL    HW1 9327   0.251   3.567   1.775  0.0924 -1.1127  0.0690
 2828SOL    HW2 9328   0.402   3.571   1.773  0.0694  2.0311 -0.6726
 2829SOL     OW 9329   1.326   2.629   0.517  0.3523  0.2999 -0.3972
 2829SOL    HW1 9330   1.286   2.691   0.578  0.4936 -0.9396  1.0055
 2829SOL    HW2 9331   1.256   2.609   0.455 -0.4102  0.1667  0.4753
 2830SOL     OW 9332   1.828   7.222   5.275  0.1261  0.2209 -0.1681
 2830SOL    HW1 9333   1.768   7.215   5.201 -0.1146  0.0408  0.0385
 2830SOL    HW2 9334   1.889   7.149   5.264  1.3736  1.3813 -1.2996
 2831SOL     OW 9335   6.099   5.743   4.944  0.6166 -0.0712 -0.3619
 2831SOL    HW1 9336   6.147   5.763   5.025 -0.6935  0.5930  0.2828
 2831SOL    HW2 9337   6.110   5.821   4.890  0.7271 -0.1419 -0.4408
 2832SOL     OW 9338   0.541   3.147   8.170  0.4645  0.5098  0.5555
 2832SOL    HW1 9339   0.481   3.221   8.179  2.7701  2.7969 -1.3377
 2832SOL    HW2 9340   0.498   3.089   8.108 -1.2818  0.3226  1.8741
 2833SOL     OW 9341   3.360   0.719   5.265  0.1162 -0.0676 -0.0876
 2833SOL    HW1 9342   3.424   0.708   5.195  0.2448 -0.4188  0.0840
 2833SOL    HW2 9343   3.280   0.748   5.220  0.6908  1.4573 -0.1884
 2834SOL     OW 9344   6.371   7.122   4.209 -0.1796 -0.1327  0.0012
 2834SOL    HW1 9345   6.420   7.095   4.131 -0.3326 -1.6297  0.3936
 2834SOL    HW2 9346   6.389   7.054   4.273 -0.4080  0.8567  1.1477
 2835SOL     OW 9347   6.206   1.695   8.095 -0.3988 -0.1422  0.1307
 2835SOL    HW1 9348   6.294   1.659   8.111  0.2471 -0.1256 -2.7733
 2835SOL    HW2 9349   6.148   1.641   8.148  1.0751 -2.3230 -0.3314
 2836SOL     OW 9350   0.700   0.615   2.472  0.2377 -0.3696  0.5213
 2836SOL    HW1 9351   0.781   0.577   2.437  0.7034  0.9838  0.0556
 2836SOL    HW2 9352   0.703   0.596   2.565  0.3444 -1.6340  0.2766
 2837SOL     OW 9353   2.670   2.268   4.654 -0.0810  0.2352  0.3780
 2837SOL    HW1 9354   2.631   2.342   4.699  1.1461  0.1422  1.6737
 2837SOL    HW2 9355   2.763   2.271   4.679  0.3109 -0.7906 -0.8443
 2838SOL     OW 9356   5.789   3.201   6.995  0.4578 -0.7605  0.0272
 2838SOL    HW1 9357   5.865   3.236   6.949  0.1072  0.4748  0.3357
 2838SOL    HW2 9358   5.739   3.279   7.021  1.8904 -1.1020  4.7545
 2839SOL     OW 9359   5.166   5.840   7.872  0.0593 -0.1426 -0.2937
 2839SOL    HW1 9360   5.183   5.746   7.859 -1.9672 -1.5729  4.6519
 2839SOL    HW2 9361   5.112   5.865   7.798 -0.3195 -3.2718 -1.2258
 2840SOL     OW 9362   5.248   5.660   1.455 -0.9462 -0.0303  0.5976
 2840SOL    HW1 9363   5.333   5.698   1.435 -0.8600 -0.5984 -0.1538
 2840SOL    HW2 9364   5.240   5.666   1.550  0.3202 -0.7677  0.7691
 2841SOL     OW 9365   7.077   4.448   4.946  0.2060 -0.2694 -0.2237
 2841SOL    HW1 9366   6.995   4.402   4.928 -0.1879  0.2787  0.1396
 2841SOL    HW2 9367   7.128   4.440   4.865 -0.2376 -0.5396 -0.4759
 2842SOL     OW 9368   3.121   7.671   4.147 -0.4351  0.0354  0.6003
 2842SOL    HW1 9369   3.191   7.652   4.085 -0.9873  0.4062 -0.1428
 2842SOL    HW2 9370   3.090   7.758   4.124 -0.2409  0.4319  1.7867
 2843SOL     OW 9371   1.608   4.459   2.454  0.2997 -0.5446 -0.2558
 2843SOL    HW1 9372   1.677   4.524   2.448 -0.4793  0.3113 -0.1892
 2843SOL    HW2 9373   1.641   4.384   2.404 -0.0622  1.0412 -3.0918
 2844SOL     OW 9374   0.241   2.952   0.115 -0.2921 -0.2889 -0.1984
 2844SOL    HW1 9375   0.180   2.921   0.182 -0.4109 -0.4313 -0.3717
 2844SOL    HW2 9376   0.191   3.016   0.064 -1.8308 -3.5391 -3.1559
 2845SOL     OW 9377   1.671   5.687   0.121 -0.0657 -0.3708 -0.2440
 2845SOL    HW1 9378   1.738   5.708   0.185 -0.7360 -0.0167  0.3416
 2845SOL    HW2 9379   1.658   5.592   0.131 -1.3915 -0.0566  1.3611
 2846SOL     OW 9380   6.025   3.216   1.449 -0.1021  0.0268 -0.2621
 2846SOL    HW1 9381   6.073   3.298   1.434  1.1013 -0.6097 -0.0165
 2846SOL    HW2 9382   5.947   3.243   1.497  0.1308  1.0609 -0.4185
 2847SOL     OW 9383   5.499   7.508   2.339  0.3888 -0.1481  0.3603
 2847SOL    HW1 9384   5.569   7.457   2.297  0.2153 -0.3626  0.3280
 2847SOL    HW2 9385   5.479   7.578   2.277  0.8780  0.1783  0.5608
 2848SOL     OW 9386   4.751   3.397   6.679  0.3762  0.0170 -0.3479
 2848SOL    HW1 9387   4.682   3.462   6.675  1.2427  1.1629  1.8058
 2848SOL    HW2 9388   4.817   3.428   6.617 -0.2203 -0.1086 -1.0606
 2849SOL     OW 9389   2.877   1.952   3.691  0.2169  0.2290  0.0541
 2849SOL    HW1 9390   2.802   1.985   3.740 -0.0619  0.7751 -0.7183
 2849SOL    HW2 9391   2.944   1.936   3.758 -0.5386 -0.1483  0.7360
 2850SOL     OW 9392   1.249   4.597   0.169  0.6792 -0.2776 -0.6736
 2850SOL    HW1 9393   1.262   4.531   0.101  0.4032 -1.3404  0.2742
 2850SOL    HW2 9394   1.322   4.583   0.229 -0.1919 -0.6960  0.2994
 2851SOL     OW 9395   1.439   1.606   5.858 -0.6222 -0.3774 -0.0809
 2851SOL    HW1 9396   1.514   1.596   5.918 -0.2496 -0.7915 -0.6067
 2851SOL    HW2 9397   1.424   1.700   5.854  0.0296 -0.2725 -0.1639
 2852SOL     OW 9398   0.980   7.730   5.300  0.1337 -0.5663 -0.0683
 2852SOL    HW1 9399   1.074   7.740   5.283  0.2372 -1.7910 -0.2522
 2852SOL    HW2 9400   0.975   7.681   5.382 -0.3740  3.1661  2.3972
 2853SOL     OW 9401   0.162   0.733   5.853 -0.0904  0.0397  0.4268
 2853SOL    HW1 9402   0.091   0.794   5.834 -0.3228  0.3473  2.1259
 2853SOL    HW2 9403   0.222   0.741   5.779 -0.5786  1.6602  0.1768
 2854SOL     OW 9404   3.836   1.231   3.071  0.3224  0.0063  0.2362
 2854SOL    HW1 9405   3.912   1.178   3.094  0.9407  1.6082  2.1657
 2854SOL    HW2 9406   3.762   1.184   3.111  0.6391 -0.2682  0.5102
 2855SOL     OW 9407   7.182   7.033   0.345 -0.3993 -0.5203  0.2459
 2855SOL    HW1 9408   7.141   7.011   0.262  2.3229  0.7177 -1.5828
 2855SOL    HW2 9409   7.151   7.122   0.365  0.8828  0.2179 -0.8738
 2856SOL     OW 9410   2.430   4.109   1.974  0.3985  0.1653 -0.1189
 2856SOL    HW1 9411   2.408   4.052   2.048  0.2783  0.5269  0.1270
 2856SOL    HW2 9412   2.345   4.137   1.940  0.4521  1.0679  0.4448
 2857SOL     OW 9413   8.101   0.604   2.826  0.3463 -0.0716  0.5982
 2857SOL    HW1 9414   8.161   0.559   2.766 -0.4233 -0.3305 -0.0044
 2857SOL    HW2 9415   8.038   0.537   2.853 -0.1203  0.3589  0.6156
 2858SOL     OW 9416   5.879   0.266   2.784 -0.1530  0.0471 -0.1518
 2858SOL    HW1 9417   5.842   0.352   2.762  0.4456  0.5040  0.6067
 2858SOL    HW2 9418   5.973   0.281   2.791 -0.1003 -0.5579  0.5134
 2859SOL     OW 9419   4.191   0.210   1.313 -0.0817 -0.0437  0.0567
 2859SOL    HW1 9420   4.177   0.139   1.250 -0.0493 -0.5107  0.5673
 2859SOL    HW2 9421   4.108   0.259   1.313  0.2919  0.6196 -1.1476
 2860SOL     OW 9422   8.097   0.808   1.923 -0.4575 -1.0734 -0.2766
 2860SOL    HW1 9423   8.137   0.822   1.837 -0.6296  1.7970  0.0298
 2860SOL    HW2 9424   8.171   0.806   1.984 -0.5260  0.6742 -0.1059
 2861SOL     OW 9425   6.264   7.218   7.309  0.1933  0.1384 -0.0879
 2861SOL    HW1 9426   6.328   7.152   7.335 -0.1537 -0.7176 -1.3573
 2861SOL    HW2 9427   6.295   7.251   7.225 -0.6607  0.2223 -0.3764
 2862SOL     OW 9428   1.941   5.622   7.407 -0.3599 -0.0703 -0.1895
 2862SOL    HW1 9429   1.991   5.656   7.482  0.1557  0.8207 -0.9257
 2862SOL    HW2 9430   1.874   5.689   7.391 -1.5329 -1.0315  0.4888
 2863SOL     OW 9431   5.266   4.515   1.001  0.4122 -0.5875  0.1731
 2863SOL    HW1 9432   5.204   4.443   0.997  0.0426 -0.3120  0.7110
 2863SOL    HW2 9433   5.247   4.558   1.085  1.9222 -1.0328  0.7881
 2864SOL     OW 9434   5.210   3.733   7.833  0.1061  0.1498  0.7362
 2864SOL    HW1 9435   5.280   3.785   7.795 -0.4353  0.3678  0.0268
 2864SOL    HW2 9436   5.130   3.781   7.812 -0.3003 -0.3677  1.0783
 2865SOL     OW 9437   5.468   7.977   5.669 -0.4354  0.3868 -0.0984
 2865SOL    HW1 9438   5.377   8.004   5.653 -0.9332  0.3027  2.3094
 2865SOL    HW2 9439   5.521   8.049   5.634 -1.3675  0.3600 -1.6992
 2866SOL     OW 9440   7.343   3.714   0.332  0.0923  0.2446 -0.2432
 2866SOL    HW1 9441   7.373   3.633   0.372  0.0218 -0.1066 -0.8951
 2866SOL    HW2 9442   7.341   3.777   0.404 -1.0142 -0.6331  0.5108
 2867SOL     OW 9443   5.410   2.708   5.056 -0.0682 -0.4007  0.0940
 2867SOL    HW1 9444   5.496   2.688   5.018 -0.0255 -1.5021  0.7228
 2867SOL    HW2 9445   5.386   2.792   5.018  0.9009 -0.4895 -0.7595
 2868SOL     OW 9446   5.079   6.386   0.929  0.0395 -0.6071  0.6239
 2868SOL    HW1 9447   5.154   6.427   0.972  0.5983 -1.7339  0.7621
 2868SOL    HW2 9448   5.030   6.345   1.000  0.3881 -1.5708  0.3178
 2869SOL     OW 9449   4.848   5.861   4.497 -0.4468  0.0638  0.0175
 2869SOL    HW1 9450   4.908   5.896   4.431 -1.4582 -2.2877 -2.3417
 2869SOL    HW2 9451   4.761   5.873   4.459 -1.0698 -1.3758  0.8917
 2870SOL     OW 9452   0.834   1.835   1.173  0.0089  0.0157  0.6865
 2870SOL    HW1 9453   0.799   1.911   1.127 -0.0528 -1.1059 -1.2163
 2870SOL    HW2 9454   0.758   1.792   1.213 -0.2286 -0.1402  0.0679
 2871SOL     OW 9455   2.998   0.917   8.125 -0.1706 -0.3378  0.7312
 2871SOL    HW1 9456   2.904   0.910   8.137  0.0605 -0.1037  3.3679
 2871SOL    HW2 9457   3.031   0.944   8.211  2.4053 -1.4690  0.1908
 2872SOL     OW 9458   6.620   3.311   2.994  0.6295 -0.2954 -0.5895
 2872SOL    HW1 9459   6.644   3.227   3.033 -1.3498  0.1525  1.8208
 2872SOL    HW2 9460   6.659   3.377   3.053 -0.8734  0.4256 -0.3588
 2873SOL     OW 9461   3.122   7.787   5.056 -0.2917  0.5601 -0.1491
 2873SOL    HW1 9462   3.158   7.818   5.140  1.6247  0.7442 -1.0024
 2873SOL    HW2 9463   3.119   7.692   5.065 -4.0003  0.6469  1.5989
 2874SOL     OW 9464   3.587   2.248   3.069  0.2330 -0.1373 -0.6366
 2874SOL    HW1 9465   3.554   2.198   3.144  2.9292  0.8657  1.3780
 2874SOL    HW2 9466   3.524   2.320   3.059  0.9810  1.1175  2.3750
 2875SOL     OW 9467   8.064   6.656   2.018 -0.2187 -0.0044  0.4531
 2875SOL    HW1 9468   8.076   6.564   2.044 -2.1476  0.2822  2.6990
 2875SOL    HW2 9469   8.094   6.706   2.094 -0.3188  1.2020 -0.2792
 2876SOL     OW 9470   4.793   1.627   0.753  0.1520  0.0173  0.3794
 2876SOL    HW1 9471   4.720   1.596   0.806 -0.0327  0.8192  0.6114
 2876SOL    HW2 9472   4.755   1.641   0.666  0.0200  0.4476  0.5036
 2877SOL     OW 9473   7.567   8.216   3.628 -0.0852 -0.0977  0.2310
 2877SOL    HW1 9474   7.652   8.188   3.661 -0.3662 -1.7566 -0.3726
 2877SOL    HW2 9475   7.585   8.250   3.540  0.1501  1.0564  0.6983
 2878SOL     OW 9476   4.533   5.893   7.283  0.2756  0.6575  0.2070
 2878SOL    HW1 9477   4.487   5.831   7.226  0.1455  0.4043  0.5821
 2878SOL    HW2 9478   4.466   5.958   7.307  0.2668  0.6283  0.2630
 2879SOL     OW 9479   0.714   5.405   5.701  0.2739 -0.2742  0.0898
 2879SOL    HW1 9480   0.759   5.327   5.732 -0.1065 -0.6797 -0.3776
 2879SOL    HW2 9481   0.744   5.417   5.611  0.3148  0.1094  0.1489
 2880SOL     OW 9482   6.366   6.534   4.112 -0.3810 -0.0085 -0.2912
 2880SOL    HW1 9483   6.432   6.518   4.044  0.2007  1.8585 -0.2143
 2880SOL    HW2 9484   6.392   6.477   4.184 -0.6556 -1.5681 -1.3648
 2881SOL     OW 9485   7.371   2.792   1.632 -0.2433  0.6483 -0.4761
 2881SOL    HW1 9486   7.331   2.715   1.591  1.0000 -0.1088 -0.3119
 2881SOL    HW2 9487   7.456   2.801   1.589  0.8623  0.1791  1.4980
 2882SOL     OW 9488   0.808   3.374   1.600  0.3747 -0.3661  0.0531
 2882SOL    HW1 9489   0.775   3.355   1.687 -1.1223  1.0193 -0.1719
 2882SOL    HW2 9490   0.781   3.298   1.547 -0.5692 -0.2403  0.3443
 2883SOL     OW 9491   0.975   0.847   7.625 -0.1107 -0.6692 -0.1048
 2883SOL    HW1 9492   1.034   0.896   7.568 -2.4375  0.2882 -1.8483
 2883SOL    HW2 9493   0.948   0.911   7.692 -0.5101 -0.5786 -0.3502
 2884SOL     OW 9494   6.356   3.049   6.004  0.1230  0.5532  0.5771
 2884SOL    HW1 9495   6.310   2.990   5.945  1.1035 -0.5409  0.8772
 2884SOL    HW2 9496   6.407   3.106   5.946 -0.0342  0.4333  0.3215
 2885SOL     OW 9497   2.310   1.396   3.527 -0.0416 -0.3359 -0.1161
 2885SOL    HW1 9498   2.390   1.439   3.498 -1.1469  0.8756 -1.5120
 2885SOL    HW2 9499   2.323   1.304   3.505  1.8557 -0.6059  1.7879
 2886SOL     OW 9500   5.240   3.908   0.415  0.2162  0.2120  0.6567
 2886SOL    HW1 9501   5.156   3.868   0.396  1.3766 -0.9709 -2.6434
 2886SOL    HW2 9502   5.225   4.002   0.408 -1.0397  0.0672  1.2630
 2887SOL     OW 9503   3.274   1.832   0.331 -0.3012  0.3494  0.2175
 2887SOL    HW1 9504   3.291   1.798   0.419  0.5295 -0.5714 -0.2746
 2887SOL    HW2 9505   3.352   1.883   0.310  0.1838 -0.6706 -0.5456
 2888SOL     OW 9506   0.770   1.371   0.361 -0.1282 -0.2045  0.0146
 2888SOL    HW1 9507   0.845   1.313   0.372  0.7784  0.8047 -0.6494
 2888SOL    HW2 9508   0.699   1.328   0.409  0.8505 -1.2089  0.6083
 2889SOL     OW 9509   0.544   8.157   2.675 -0.2402  0.1438 -0.6395
 2889SOL    HW1 9510   0.517   8.121   2.590  1.0351 -1.0387 -0.5716
 2889SOL    HW2 9511   0.626   8.112   2.696 -0.8309 -0.0299  1.5280
 2890SOL     OW 9512   4.805   6.872   4.667 -0.1539  0.0878  0.4639
 2890SOL    HW1 9513   4.755   6.792   4.680  0.5648 -0.4564 -0.0072
 2890SOL    HW2 9514   4.797   6.891   4.573  0.3363  0.1054  0.4199
 2891SOL     OW 9515   3.293   7.073   5.559  0.7375  0.3506 -0.0310
 2891SOL    HW1 9516   3.368   7.100   5.612  0.2022  0.7327  0.5358
 2891SOL    HW2 9517   3.233   7.032   5.621  1.8247 -2.9611 -0.9092
 2892SOL     OW 9518   0.178   2.274   5.787  0.0275  0.0140 -1.2143
 2892SOL    HW1 9519   0.246   2.218   5.749  0.8931  0.5880 -0.5527
 2892SOL    HW2 9520   0.197   2.361   5.753 -1.1319 -0.0113 -1.9958
 2893SOL     OW 9521   2.642   1.612   6.691 -0.2999  0.0392  0.4496
 2893SOL    HW1 9522   2.663   1.706   6.688 -1.3064  0.3869  2.4968
 2893SOL    HW2 9523   2.569   1.602   6.630  0.5652  0.3351 -0.6696
 2894SOL     OW 9524   1.460   0.914   7.493 -0.2441 -0.2467 -0.0556
 2894SOL    HW1 9525   1.390   0.851   7.511 -1.6777  0.7676 -1.7715
 2894SOL    HW2 9526   1.481   0.950   7.579 -1.7115 -0.7167  0.5502
 2895SOL     OW 9527   4.801   0.183   3.344 -0.2408  0.1126 -0.0444
 2895SOL    HW1 9528   4.752   0.263   3.364 -0.0240  0.3753 -0.5465
 2895SOL    HW2 9529   4.753   0.113   3.388 -3.0193 -0.1642 -3.1165
 2896SOL     OW 9530   7.507   3.272   6.048 -0.4384 -0.1023  0.0055
 2896SOL    HW1 9531   7.528   3.366   6.056 -2.6631  0.3360  1.4663
 2896SOL    HW2 9532   7.550   3.232   6.123  0.7301 -0.3459 -0.7599
 2897SOL     OW 9533   0.083   0.469   6.516  0.1428  0.5446 -0.0999
 2897SOL    HW1 9534   0.099   0.495   6.425  0.3629  0.4261 -0.0939
 2897SOL    HW2 9535   0.164   0.489   6.562  0.2023  0.1426 -0.0275
 2898SOL     OW 9536   5.060   5.151   2.514 -0.3220 -0.1982  0.3018
 2898SOL    HW1 9537   5.071   5.204   2.593  1.4145  0.2303 -0.1812
 2898SOL    HW2 9538   5.101   5.068   2.535  0.6869  0.1226 -0.3162
 2899SOL     OW 9539   3.378   6.856   1.159 -0.2530  0.2070 -0.4169
 2899SOL    HW1 9540   3.441   6.848   1.087 -0.3745 -0.2907 -0.4679
 2899SOL    HW2 9541   3.355   6.766   1.182 -2.0698  0.3986 -1.3610
 2900SOL     OW 9542   8.124   5.781   3.634  0.3616 -0.3942 -0.2600
 2900SOL    HW1 9543   8.055   5.760   3.571 -0.5297 -0.1691  0.6069
 2900SOL    HW2 9544   8.077   5.798   3.716  1.5617 -1.7530  0.7600
 2901SOL     OW 9545   5.949   3.145   0.966  0.4579 -0.0297 -0.4853
 2901SOL    HW1 9546   5.861   3.149   0.929  0.8693 -0.1798 -1.5016
 2901SOL    HW2 9547   5.947   3.072   1.027  0.1550 -0.6843 -1.2660
 2902SOL     OW 9548   1.330   1.216   6.508 -0.0044 -0.0612  0.0254
 2902SOL    HW1 9549   1.274   1.274   6.457  0.7798  0.4501 -0.2718
 2902SOL    HW2 9550   1.374   1.274   6.571 -1.3109 -0.7465  1.6303
 2903SOL     OW 9551   2.876   1.552   1.702  0.3140 -0.2361 -0.1921
 2903SOL    HW1 9552   2.941   1.623   1.708  0.2292 -0.1166 -0.6465
 2903SOL    HW2 9553   2.890   1.500   1.781  0.5911  0.1081 -0.0104
 2904SOL     OW 9554   6.273   5.510   6.721 -0.6009 -0.0198  0.0019
 2904SOL    HW1 9555   6.293   5.534   6.811  1.6803 -0.6042 -0.2805
 2904SOL    HW2 9556   6.276   5.414   6.720  0.6837 -0.0060 -0.8884
 2905SOL     OW 9557   2.155   0.911   4.928 -0.0761  0.1260 -0.0037
 2905SOL    HW1 9558   2.128   0.969   4.857  0.5961 -0.1023 -0.4635
 2905SOL    HW2 9559   2.077   0.902   4.983 -0.2267  1.3362  0.0006
 2906SOL     OW 9560   3.231   5.348   2.110  0.0618 -0.1828  0.2672
 2906SOL    HW1 9561   3.301   5.399   2.069  0.2599 -0.0439  0.7778
 2906SOL    HW2 9562   3.277   5.276   2.155 -0.0988  0.0563  0.8188
 2907SOL     OW 9563   3.171   3.002   6.415 -0.5613  0.9080  0.4826
 2907SOL    HW1 9564   3.222   3.062   6.470  1.7037 -1.7667  1.5584
 2907SOL    HW2 9565   3.095   2.978   6.470  0.2595  0.3301  1.4011
 2908SOL     OW 9566   1.742   2.228   1.307 -0.4084  0.3913  0.3344
 2908SOL    HW1 9567   1.811   2.287   1.274  0.1665 -0.3810  0.1135
 2908SOL    HW2 9568   1.774   2.199   1.393 -2.0405  2.6324  1.8129
 2909SOL     OW 9569   7.150   2.744   0.285  0.2276  0.1373  0.3306
 2909SOL    HW1 9570   7.168   2.651   0.277 -1.3405 -0.1738  0.1983
 2909SOL    HW2 9571   7.195   2.770   0.366  1.8909 -0.3755 -0.3764
 2910SOL     OW 9572   6.835   1.062   7.459 -0.2576 -0.1787 -0.3920
 2910SOL    HW1 9573   6.846   1.126   7.529 -0.9912  0.8721 -1.1965
 2910SOL    HW2 9574   6.789   0.989   7.500 -0.3183  0.2468  0.3070
 2911SOL     OW 9575   0.606   1.820   5.097  0.8439 -0.1753 -0.3272
 2911SOL    HW1 9576   0.663   1.752   5.132 -0.6377 -1.4642 -0.3328
 2911SOL    HW2 9577   0.657   1.859   5.026  1.0805 -2.5264 -1.5548
 2912SOL     OW 9578   8.095   1.668   2.503 -0.0700 -0.4703 -0.3531
 2912SOL    HW1 9579   8.189   1.672   2.485  0.1139 -0.4575  0.5697
 2912SOL    HW2 9580   8.055   1.723   2.436  0.4831 -1.2462 -1.3570
 2913SOL     OW 9581   4.369   1.745   3.452 -0.2377  0.3949  0.1782
 2913SOL    HW1 9582   4.454   1.743   3.496 -0.0895 -1.7761 -0.0822
 2913SOL    HW2 9583   4.379   1.684   3.379 -2.1584 -0.3646  0.4799
 2914SOL     OW 9584   2.742   6.652   4.212 -0.3517  0.2214 -0.2629
 2914SOL    HW1 9585   2.793   6.573   4.228  0.1398  0.1208 -2.0547
 2914SOL    HW2 9586   2.658   6.636   4.256 -0.4950 -1.5870 -1.1006
 2915SOL     OW 9587   3.323   1.508   2.862  0.0006 -0.3750  0.3184
 2915SOL    HW1 9588   3.279   1.478   2.942 -0.8227  1.0606  0.4338
 2915SOL    HW2 9589   3.298   1.600   2.854  3.3629  0.7087  0.6384
 2916SOL     OW 9590   7.784   1.497   0.352  0.3704 -0.5973  0.3338
 2916SOL    HW1 9591   7.876   1.524   0.359  0.4686 -0.9122  0.3172
 2916SOL    HW2 9592   7.753   1.537   0.272  1.0317 -1.9746 -0.6707
 2917SOL     OW 9593   6.850   6.454   5.882 -0.2216 -0.1771 -0.3436
 2917SOL    HW1 9594   6.821   6.491   5.965  1.4963  0.6872 -0.0810
 2917SOL    HW2 9595   6.930   6.502   5.861 -1.0561  0.2321 -2.9475
 2918SOL     OW 9596   4.498   5.538   4.015 -0.3051 -0.4549  0.5028
 2918SOL    HW1 9597   4.426   5.594   3.986 -0.5209 -0.0302  1.7610
 2918SOL    HW2 9598   4.493   5.461   3.960 -1.1144  0.0054 -0.0912
 2919SOL     OW 9599   0.446   0.790   1.768 -0.4126  0.2996  0.4721
 2919SOL    HW1 9600   0.521   0.771   1.712  0.3363 -0.5959  1.7357
 2919SOL    HW2 9601   0.396   0.856   1.720 -0.7044 -1.6135 -2.0563
 2920SOL     OW 9602   1.884   3.756   0.244 -0.5446  1.0355 -0.0459
 2920SOL    HW1 9603   1.810   3.815   0.258  0.2994  2.3488 -0.9399
 2920SOL    HW2 9604   1.938   3.765   0.323 -1.5231 -0.2754  0.8166
 2921SOL     OW 9605   1.467   4.111   4.562  0.1688  0.9433 -0.0543
 2921SOL    HW1 9606   1.454   4.093   4.469 -1.9827 -0.0543  0.3652
 2921SOL    HW2 9607   1.478   4.024   4.602 -0.1638  1.2540  0.7520
 2922SOL     OW 9608   4.401   3.864   0.717  0.2763 -0.2466  0.5156
 2922SOL    HW1 9609   4.480   3.831   0.760  1.2413  1.9697  0.5490
 2922SOL    HW2 9610   4.416   3.958   0.707 -2.2499  0.1995  0.2489
 2923SOL     OW 9611   4.011   6.680   4.164  0.0945 -0.3447 -0.2116
 2923SOL    HW1 9612   3.999   6.774   4.156 -0.9770 -0.5206 -0.8417
 2923SOL    HW2 9613   3.940   6.642   4.112  0.3690 -1.4984  0.2241
 2924SOL     OW 9614   1.025   1.743   7.767 -0.0839 -0.4452 -0.1548
 2924SOL    HW1 9615   0.933   1.717   7.769  0.0066 -0.7823  1.5664
 2924SOL    HW2 9616   1.040   1.785   7.852  1.3591 -0.4066 -0.3966
 2925SOL     OW 9617   4.012   3.328   1.843  0.0480  0.0472  0.4465
 2925SOL    HW1 9618   4.105   3.317   1.864 -0.1018  0.5254  1.4055
 2925SOL    HW2 9619   3.967   3.272   1.906 -0.3019 -0.6898 -0.4360
 2926SOL     OW 9620   5.967   7.698   2.404  0.5274 -0.4915 -0.6366
 2926SOL    HW1 9621   6.043   7.709   2.347 -0.2668  0.6236 -1.5356
 2926SOL    HW2 9622   5.897   7.670   2.346 -0.4546  1.2313 -0.3571
 2927SOL     OW 9623   4.663   0.871   7.618 -0.1133 -0.0084  0.1126
 2927SOL    HW1 9624   4.681   0.836   7.705 -1.6928  1.2729  1.0143
 2927SOL    HW2 9625   4.718   0.949   7.612 -0.4615  0.2529  0.2395
 2928SOL     OW 9626   1.295   7.955   5.969  0.2211  0.0058  0.0517
 2928SOL    HW1 9627   1.379   7.938   6.011 -0.3135 -0.5156  0.9627
 2928SOL    HW2 9628   1.260   8.032   6.016  0.2128  0.2592 -0.3623
 2929SOL     OW 9629   6.662   7.685   1.655 -0.3143  0.0140  0.5377
 2929SOL    HW1 9630   6.633   7.775   1.640 -0.8709 -0.2391  0.0968
 2929SOL    HW2 9631   6.644   7.639   1.573  1.4233 -0.1313  0.1943
 2930SOL     OW 9632   1.785   1.248   3.783 -0.3694  0.2924 -0.1874
 2930SOL    HW1 9633   1.822   1.178   3.731 -1.7955 -0.6609  0.0290
 2930SOL    HW2 9634   1.767   1.318   3.721 -0.9235 -0.3673 -0.7832
 2931SOL     OW 9635   2.763   7.064   7.234 -0.6517  0.6872  0.3712
 2931SOL    HW1 9636   2.857   7.052   7.224 -0.4300  2.6785 -0.3865
 2931SOL    HW2 9637   2.751   7.089   7.326 -0.6685 -1.0604  0.8844
 2932SOL     OW 9638   4.227   0.947   6.713 -0.3956  0.1605 -0.0234
 2932SOL    HW1 9639   4.217   0.876   6.777  0.2030 -1.0431 -1.2172
 2932SOL    HW2 9640   4.175   1.019   6.749 -2.3495 -1.3949  0.4697
 2933SOL     OW 9641   7.900   2.989   7.310 -0.2373 -0.1352  0.4823
 2933SOL    HW1 9642   7.810   2.981   7.280 -0.2798 -0.3585  0.6684
 2933SOL    HW2 9643   7.902   3.071   7.358 -0.1915  0.1794 -0.0426
 2934SOL     OW 9644   7.337   7.424   2.647  0.1943  0.3128 -0.3035
 2934SOL    HW1 9645   7.321   7.456   2.736 -1.2264 -1.1761  0.0204
 2934SOL    HW2 9646   7.269   7.358   2.633  1.6607 -0.9546 -1.7427
 2935SOL     OW 9647   3.605   1.161   1.823  0.3109  0.2747  0.1125
 2935SOL    HW1 9648   3.595   1.197   1.736 -0.1756 -0.0937  0.0088
 2935SOL    HW2 9649   3.587   1.234   1.882  0.6992  0.5382 -0.0924
 2936SOL     OW 9650   3.463   6.203   0.181  0.3399 -0.1757  0.7065
 2936SOL    HW1 9651   3.419   6.272   0.231  0.5130  1.4864 -1.2965
 2936SOL    HW2 9652   3.399   6.132   0.177 -0.7363  0.7456  0.9558
 2937SOL     OW 9653   7.724   1.488   1.866 -0.0359  0.1970 -0.2574
 2937SOL    HW1 9654   7.733   1.458   1.956  0.7410  1.0425 -0.0343
 2937SOL    HW2 9655   7.774   1.424   1.815 -1.5927 -1.0660 -0.2911
 2938SOL     OW 9656   0.626   3.794   0.733  0.6843 -0.3514 -0.1314
 2938SOL    HW1 9657   0.542   3.820   0.769  0.1780 -2.0507 -0.0479
 2938SOL    HW2 9658   0.654   3.870   0.682 -1.4005 -0.1498 -1.0569
 2939SOL     OW 9659   4.966   5.885   1.564  0.1999  0.0705 -0.1149
 2939SOL    HW1 9660   4.947   5.794   1.541  0.7511 -0.2171  0.5378
 2939SOL    HW2 9661   5.061   5.887   1.579 -0.0639  0.2867  1.8119
 2940SOL     OW 9662   2.585   7.164   3.002  0.2301 -0.2452  0.1925
 2940SOL    HW1 9663   2.490   7.172   3.013  0.0636 -0.9359 -0.6560
 2940SOL    HW2 9664   2.606   7.226   2.933  0.1801 -1.0784 -0.5837
 2941SOL     OW 9665   6.291   5.314   2.755 -0.3319 -0.6013  0.5347
 2941SOL    HW1 9666   6.236   5.363   2.817 -0.3383  0.0060  0.0599
 2941SOL    HW2 9667   6.306   5.230   2.798 -0.6610 -0.3358  1.1896
 2942SOL     OW 9668   0.323   1.368   2.850  0.1131  0.6197 -0.0478
 2942SOL    HW1 9669   0.399   1.370   2.792 -0.5186  0.5977 -0.8999
 2942SOL    HW2 9670   0.336   1.442   2.909  1.5279 -0.2568  0.8064
 2943SOL     OW 9671   2.073   0.333   4.192 -0.1008 -0.3275  0.3515
 2943SOL    HW1 9672   2.095   0.339   4.285 -0.5432 -1.6702  0.5668
 2943SOL    HW2 9673   2.022   0.252   4.184 -0.1456 -0.1951 -1.0463
 2944SOL     OW 9674   8.005   5.618   1.182  0.4156 -0.4459 -0.2753
 2944SOL    HW1 9675   8.042   5.614   1.270 -0.1054 -1.7450 -0.0919
 2944SOL    HW2 9676   7.911   5.603   1.195  0.5815 -2.6853 -1.1919
 2945SOL     OW 9677   7.063   6.968   5.142  0.0523  0.3418 -0.3878
 2945SOL    HW1 9678   7.139   6.957   5.085  0.3041 -0.5055  0.1044
 2945SOL    HW2 9679   7.000   7.016   5.087  1.4359  2.3420 -0.3244
 2946SOL     OW 9680   4.596   2.883   0.220 -0.2138 -0.6344 -0.1022
 2946SOL    HW1 9681   4.659   2.870   0.291 -0.7713 -0.3577  0.4516
 2946SOL    HW2 9682   4.583   2.796   0.182  0.3969 -0.7139 -0.1300
 2947SOL     OW 9683   0.689   2.622   5.083 -0.2402 -0.4109 -0.4437
 2947SOL    HW1 9684   0.607   2.593   5.122  0.1573  0.7704  1.4069
 2947SOL    HW2 9685   0.753   2.614   5.153  0.7507  0.7943 -1.1627
 2948SOL     OW 9686   5.588   7.524   1.622  0.3528  0.4413 -0.4624
 2948SOL    HW1 9687   5.523   7.581   1.664  0.4788  0.2733 -0.0344
 2948SOL    HW2 9688   5.584   7.442   1.672  0.2620  0.1134 -0.9968
 2949SOL     OW 9689   4.189   5.088   0.326 -0.1904  0.3377 -0.3951
 2949SOL    HW1 9690   4.122   5.150   0.354 -1.5465 -1.7285  1.2369
 2949SOL    HW2 9691   4.229   5.057   0.407 -1.4891 -2.9037 -0.8363
 2950SOL     OW 9692   6.348   4.213   4.069 -0.0493 -0.1693 -0.0528
 2950SOL    HW1 9693   6.419   4.206   4.133  0.2189 -0.9343 -0.4145
 2950SOL    HW2 9694   6.348   4.128   4.025  1.8394  1.2761 -3.2035
 2951SOL     OW 9695   5.568   5.484   1.209 -0.5345 -0.3427 -0.6762
 2951SOL    HW1 9696   5.656   5.448   1.196 -0.2878 -1.0005  2.1375
 2951SOL    HW2 9697   5.510   5.413   1.182 -0.3486  0.4893 -3.6418
 2952SOL     OW 9698   7.100   7.640   5.583 -0.2896  0.2352 -0.0413
 2952SOL    HW1 9699   7.183   7.605   5.551 -0.7625  0.2844 -1.3712
 2952SOL    HW2 9700   7.043   7.644   5.506 -1.0756  1.5318  0.5585
 2953SOL     OW 9701   8.172   7.677   7.244  0.3550 -0.0561  0.0552
 2953SOL    HW1 9702   8.136   7.588   7.243  0.2207 -0.0120  0.7523
 2953SOL    HW2 9703   8.175   7.702   7.151  0.3142 -0.7507 -0.1424
 2954SOL     OW 9704   7.143   6.641   3.041  0.2488  0.4127  0.2384
 2954SOL    HW1 9705   7.079   6.582   3.082  0.3388  1.7931  2.5841
 2954SOL    HW2 9706   7.092   6.718   3.016  0.1102 -0.5879 -2.9053
 2955SOL     OW 9707   7.455   7.077   0.486 -0.0454 -0.1418  0.3154
 2955SOL    HW1 9708   7.382   7.074   0.425 -0.8971  1.2208  1.2096
 2955SOL    HW2 9709   7.420   7.041   0.568 -0.1872  1.8025  1.1607
 2956SOL     OW 9710   4.530   2.080   6.511 -0.0294  0.2963  0.4481
 2956SOL    HW1 9711   4.458   2.086   6.574  1.3153 -0.2019  2.1050
 2956SOL    HW2 9712   4.586   2.154   6.531  0.9758 -0.4822  0.5661
 2957SOL     OW 9713   4.628   6.901   5.154 -0.0715 -0.4377 -0.2194
 2957SOL    HW1 9714   4.579   6.957   5.094 -0.6805 -0.5155  0.1919
 2957SOL    HW2 9715   4.635   6.952   5.234 -1.1577 -1.1622  0.3650
 2958SOL     OW 9716   5.227   3.874   1.712 -0.0806 -0.2564 -0.1589
 2958SOL    HW1 9717   5.235   3.923   1.794 -0.0738 -0.0674 -0.2718
 2958SOL    HW2 9718   5.142   3.901   1.676  0.5312  0.7443 -0.9127
 2959SOL     OW 9719   0.355   1.473   1.991  0.1970 -0.1383  0.6303
 2959SOL    HW1 9720   0.332   1.561   2.019  1.1223  0.8978 -1.5876
 2959SOL    HW2 9721   0.272   1.425   1.992 -0.8275  1.5040 -0.5361
 2960SOL     OW 9722   2.369   2.910   1.357  0.4705 -0.0809 -0.2900
 2960SOL    HW1 9723   2.298   2.854   1.389 -0.3613 -0.3952 -2.4695
 2960SOL    HW2 9724   2.448   2.855   1.363  0.0245 -0.7508 -0.4195
 2961SOL     OW 9725   7.272   7.740   4.796 -0.2607  0.1666  0.0398
 2961SOL    HW1 9726   7.294   7.669   4.736  0.5241 -1.4537  2.1151
 2961SOL    HW2 9727   7.336   7.808   4.776  2.5226 -1.8404  1.4688
 2962SOL     OW 9728   6.606   0.281   4.287 -0.3309 -0.1214 -0.1268
 2962SOL    HW1 9729   6.569   0.215   4.345  1.3822 -0.4285  0.6784
 2962SOL    HW2 9730   6.683   0.239   4.249  1.1103  1.5272  0.7969
 2963SOL     OW 9731   1.422   7.396   0.729 -0.0840  0.0773 -0.6902
 2963SOL    HW1 9732   1.374   7.412   0.648 -0.0747 -1.3275 -0.9984
 2963SOL    HW2 9733   1.472   7.316   0.712  1.1160  0.6145  0.1805
 2964SOL     OW 9734   5.006   2.960   5.721 -0.2216  0.6558  0.6277
 2964SOL    HW1 9735   4.957   3.027   5.768 -1.2527 -0.4735  1.1997
 2964SOL    HW2 9736   4.944   2.924   5.658  0.1734 -0.1140  0.6723
 2965SOL     OW 9737   1.034   1.194   5.256  1.0314  0.2655  0.0696
 2965SOL    HW1 9738   0.992   1.168   5.338 -0.7419 -0.8451 -1.1190
 2965SOL    HW2 9739   0.961   1.222   5.200  2.3418  2.4997 -0.6485
 2966SOL     OW 9740   2.022   4.273   7.736 -0.3447 -0.0771  0.3825
 2966SOL    HW1 9741   1.948   4.213   7.728  0.1398 -0.7530  0.8588
 2966SOL    HW2 9742   1.983   4.356   7.765 -0.9588 -0.3103  0.2379
 2967SOL     OW 9743   4.757   0.227   0.638  0.2393  0.0652 -0.2484
 2967SOL    HW1 9744   4.779   0.202   0.548  0.3533 -0.4776 -0.0761
 2967SOL    HW2 9745   4.837   0.208   0.688 -0.4022 -1.3878  0.2811
 2968SOL     OW 9746   5.600   5.817   0.152  0.1093 -0.0863  0.0631
 2968SOL    HW1 9747   5.598   5.783   0.063  1.4084 -0.6249  0.2077
 2968SOL    HW2 9748   5.678   5.777   0.191 -0.5879 -0.0761  1.5319
 2969SOL     OW 9749   2.764   3.657   6.074 -0.4102 -0.0093  0.1806
 2969SOL    HW1 9750   2.762   3.619   5.986  0.8133  1.3411 -0.4659
 2969SOL    HW2 9751   2.747   3.750   6.060  1.6968  0.5717  1.1193
 2970SOL     OW 9752   0.180   4.159   2.709 -0.1919 -0.0175  0.1875
 2970SOL    HW1 9753   0.192   4.115   2.625 -2.0992 -0.6249  0.2020
 2970SOL    HW2 9754   0.129   4.237   2.688 -1.0659 -0.4022  0.8163
 2971SOL     OW 9755   8.005   2.821   2.211  0.0967  0.1790  0.3002
 2971SOL    HW1 9756   8.070   2.872   2.261 -0.0262 -0.3784  1.0499
 2971SOL    HW2 9757   7.954   2.887   2.164  0.8719  0.6607  0.1064
 2972SOL     OW 9758   3.456   4.814   2.505  0.1468  0.3583  0.9072
 2972SOL    HW1 9759   3.470   4.891   2.560  0.7743  1.3772 -0.6187
 2972SOL    HW2 9760   3.544   4.778   2.491 -0.1126 -0.5097  1.3872
 2973SOL     OW 9761   5.867   2.413   2.800 -0.4142 -1.0328  0.1562
 2973SOL    HW1 9762   5.815   2.484   2.838 -1.2172 -1.7020  0.3615
 2973SOL    HW2 9763   5.918   2.378   2.873  0.8929  0.0744 -0.1887
 2974SOL     OW 9764   2.228   6.133   2.129 -0.2942 -0.1571  0.2211
 2974SOL    HW1 9765   2.298   6.114   2.191 -0.8535  0.2393  0.9786
 2974SOL    HW2 9766   2.274   6.167   2.051  0.4939 -1.7798 -0.0582
 2975SOL     OW 9767   4.982   2.843   3.826 -0.0679  0.1792 -0.4053
 2975SOL    HW1 9768   5.027   2.836   3.742 -0.5830  0.8795 -0.7479
 2975SOL    HW2 9769   5.003   2.761   3.871  0.3495 -0.1316 -1.1458
 2976SOL     OW 9770   0.450   2.828   3.667  0.3009 -0.3057 -0.0410
 2976SOL    HW1 9771   0.511   2.818   3.740  1.6171  1.7006 -0.7687
 2976SOL    HW2 9772   0.440   2.740   3.632  2.9377 -0.7201  0.0309
 2977SOL     OW 9773   0.558   4.083   4.654 -0.8481  0.3396  0.1387
 2977SOL    HW1 9774   0.576   4.177   4.653  2.2307 -0.1337  0.1521
 2977SOL    HW2 9775   0.507   4.069   4.734 -0.1943  1.8321  0.8467
 2978SOL     OW 9776   0.186   3.152   4.729  0.1137  0.0742 -0.2673
 2978SOL    HW1 9777   0.201   3.117   4.817  0.7674 -0.9018 -0.7602
 2978SOL    HW2 9778   0.090   3.159   4.723  0.0195 -0.6965  0.2009
 2979SOL     OW 9779   7.659   2.744   0.721  0.3245 -0.2128  0.0731
 2979SOL    HW1 9780   7.665   2.691   0.641  0.0848 -0.0583 -0.0475
 2979SOL    HW2 9781   7.679   2.833   0.693 -1.3726  0.1433 -0.1464
 2980SOL     OW 9782   3.362   4.378   5.419 -0.5797  0.5649 -0.0869
 2980SOL    HW1 9783   3.445   4.341   5.449 -0.2890  1.6434  0.4748
 2980SOL    HW2 9784   3.352   4.345   5.329  0.2259  0.0606  0.0010
 2981SOL     OW 9785   5.442   6.812   4.599  0.5520  0.1374 -0.4077
 2981SOL    HW1 9786   5.419   6.887   4.543  2.5320  0.2369 -1.1601
 2981SOL    HW2 9787   5.481   6.851   4.676 -1.6669 -0.0317  0.9014
 2982SOL     OW 9788   0.584   3.269   2.056  0.2679 -0.3469  0.1267
 2982SOL    HW1 9789   0.649   3.334   2.030  0.8827 -1.2606 -0.6725
 2982SOL    HW2 9790   0.623   3.184   2.034 -0.2474 -1.0500  1.7456
 2983SOL     OW 9791   7.157   6.804   1.991 -0.5313  0.0167  0.1516
 2983SOL    HW1 9792   7.245   6.806   2.028 -0.4513  1.4604 -0.0396
 2983SOL    HW2 9793   7.138   6.711   1.979  0.9257 -0.3284  0.2908
 2984SOL     OW 9794   5.401   3.596   4.024  0.0112  0.0097 -1.0790
 2984SOL    HW1 9795   5.467   3.604   3.955 -0.1693  0.2662 -1.2233
 2984SOL    HW2 9796   5.320   3.576   3.978 -0.1124  0.1959 -0.9422
 2985SOL     OW 9797   0.235   3.559   2.065 -0.3118 -0.0627 -0.1011
 2985SOL    HW1 9798   0.284   3.576   1.985 -1.1518 -0.3353 -0.6812
 2985SOL    HW2 9799   0.278   3.482   2.103  0.0103 -0.0086 -0.3465
 2986SOL     OW 9800   6.122   3.531   7.018  0.1979  0.5778 -0.0394
 2986SOL    HW1 9801   6.069   3.606   6.994  1.4739  1.7893  0.7384
 2986SOL    HW2 9802   6.210   3.567   7.031  1.4601 -1.4446 -2.0737
 2987SOL     OW 9803   6.987   0.384   1.964  0.0199 -0.8698  0.7185
 2987SOL    HW1 9804   6.992   0.479   1.949  0.0593 -1.2428 -2.4083
 2987SOL    HW2 9805   7.078   0.356   1.970  0.1686 -0.9880 -1.2839
 2988SOL     OW 9806   5.402   0.867   3.768  0.4340  0.5077 -0.0125
 2988SOL    HW1 9807   5.352   0.930   3.821  0.9883  1.4046 -0.5333
 2988SOL    HW2 9808   5.446   0.812   3.833 -0.6418  0.1643  0.4542
 2989SOL     OW 9809   2.921   2.312   4.759  0.1966 -0.0608  0.0703
 2989SOL    HW1 9810   3.008   2.286   4.788  1.1981  1.4199 -1.3853
 2989SOL    HW2 9811   2.891   2.375   4.825  0.1553 -0.6437  0.6227
 2990SOL     OW 9812   2.046   0.905   2.802 -0.0688  0.2138  0.4022
 2990SOL    HW1 9813   2.022   0.982   2.750 -2.5591 -0.2677  0.7194
 2990SOL    HW2 9814   1.971   0.891   2.860  0.9177 -1.6481  1.3010
 2991SOL     OW 9815   1.809   4.053   6.343  0.0396  0.4151  0.4880
 2991SOL    HW1 9816   1.828   4.043   6.249 -1.1221  1.7315  0.0749
 2991SOL    HW2 9817   1.865   4.125   6.371 -1.3160  1.6309  0.2009
 2992SOL     OW 9818   4.112   2.073   0.577 -0.4452  0.4388 -0.0158
 2992SOL    HW1 9819   4.035   2.025   0.549  0.4139 -0.6899 -0.5195
 2992SOL    HW2 9820   4.162   2.089   0.497  0.3360  0.2582  0.4162
 2993SOL     OW 9821   7.141   5.356   5.093  0.0515  0.0000  0.3990
 2993SOL    HW1 9822   7.090   5.437   5.088 -0.0483  0.1080  2.3752
 2993SOL    HW2 9823   7.215   5.371   5.034 -0.4869  1.1313 -0.0208
 2994SOL     OW 9824   4.619   2.976   5.436  0.2297  0.0994  0.1576
 2994SOL    HW1 9825   4.629   2.885   5.408  2.3056  0.9823 -2.4805
 2994SOL    HW2 9826   4.602   3.024   5.355  0.0043  2.1679  1.3553
 2995SOL     OW 9827   3.391   1.152   2.902 -0.2630  0.0025  0.1914
 2995SOL    HW1 9828   3.415   1.152   2.809 -1.3207  0.3246 -0.0963
 2995SOL    HW2 9829   3.359   1.241   2.918 -1.1745 -0.3766  0.5663
 2996SOL     OW 9830   5.802   1.661   0.032 -0.4578 -0.3846 -0.5251
 2996SOL    HW1 9831   5.790   1.643  -0.061  2.6894  0.9006 -1.3177
 2996SOL    HW2 9832   5.785   1.755   0.041 -0.3105 -0.4132  0.1115
 2997SOL     OW 9833   3.911   3.502   0.319 -0.3853 -0.0137  0.3676
 2997SOL    HW1 9834   3.888   3.410   0.307  0.3138 -0.1880  0.2672
 2997SOL    HW2 9835   3.969   3.522   0.246 -0.4435  0.4751  0.4503
 2998SOL     OW 9836   7.866   6.447   3.134 -0.1757 -0.0531  0.0863
 2998SOL    HW1 9837   7.818   6.447   3.051  0.2099 -0.3241 -0.1439
 2998SOL    HW2 9838   7.798   6.447   3.202 -0.5062 -0.5523 -0.2342
 2999SOL     OW 9839   5.241   4.327   5.388 -0.1340 -0.2080  0.0784
 2999SOL    HW1 9840   5.167   4.285   5.345 -1.0833 -0.4912  1.9091
 2999SOL    HW2 9841   5.224   4.420   5.378  0.0898 -0.2514 -0.8361
 3000SOL     OW 9842   4.317   6.225   6.902  0.1768  0.1529  0.0871
 3000SOL    HW1 9843   4.339   6.160   6.836 -1.2325  0.2563 -0.5251
 3000SOL    HW2 9844   4.221   6.223   6.907  0.1726  1.2978  0.9398
 3001SOL     OW 9845   0.228   3.793   1.284 -0.4293 -0.4072 -0.3978
 3001SOL    HW1 9846   0.292   3.724   1.266 -0.6553 -0.5736 -0.5695
 3001SOL    HW2 9847   0.279   3.874   1.283 -0.2364 -0.5286 -0.6355
 3002SOL     OW 9848   1.410   2.616   0.906  0.5914  0.4548 -0.4963
 3002SOL    HW1 9849   1.387   2.523   0.914 -0.1385  0.6915  0.2388
 3002SOL    HW2 9850   1.402   2.651   0.995  0.6881  1.2647 -0.7954
 3003SOL     OW 9851   2.406   1.137   3.524 -0.2565  0.4212 -0.0443
 3003SOL    HW1 9852   2.366   1.114   3.608 -0.7607  0.5317 -0.2499
 3003SOL    HW2 9853   2.421   1.053   3.482 -1.7242  0.4105 -0.6220
 3004SOL     OW 9854   2.126   4.814   2.335 -0.2866 -0.5022 -0.2326
 3004SOL    HW1 9855   2.042   4.848   2.305 -0.1630 -1.5507 -1.8586
 3004SOL    HW2 9856   2.111   4.720   2.349  0.0358 -0.3144  1.7133
 3005SOL     OW 9857   1.070   3.488   3.462 -0.2022  0.3897 -0.4763
 3005SOL    HW1 9858   1.058   3.568   3.412  2.1933 -0.0688 -1.9334
 3005SOL    HW2 9859   1.108   3.426   3.400 -1.4371 -1.7245  0.7572
 3006SOL     OW 9860   7.923   4.717   4.544 -0.4527 -0.2075  0.4701
 3006SOL    HW1 9861   7.889   4.646   4.490  1.4717 -0.6052 -0.3226
 3006SOL    HW2 9862   7.924   4.682   4.633 -1.8609 -0.2377  0.4907
 3007SOL     OW 9863   3.112   1.211   2.845  0.0113  0.4376 -0.3509
 3007SOL    HW1 9864   3.120   1.280   2.910  0.6324 -0.4107  0.4992
 3007SOL    HW2 9865   3.097   1.131   2.896  1.5938 -0.4258 -1.1675
 3008SOL     OW 9866   4.382   1.707   5.863  0.5276 -0.1776  0.1202
 3008SOL    HW1 9867   4.461   1.759   5.848  0.5537 -0.2107  0.1417
 3008SOL    HW2 9868   4.415   1.618   5.878  0.4316 -0.3933 -0.8905
 3009SOL     OW 9869   6.747   8.215   6.727 -0.3493 -0.1601 -0.2354
 3009SOL    HW1 9870   6.771   8.237   6.637  0.6739 -3.4523 -0.9034
 3009SOL    HW2 9871   6.661   8.256   6.739  1.1448  3.6880 -1.2192
 3010SOL     OW 9872   4.418   1.928   3.950 -0.0030  0.5614 -0.2639
 3010SOL    HW1 9873   4.447   1.839   3.970 -1.6667 -0.1711 -0.8777
 3010SOL    HW2 9874   4.329   1.916   3.914 -0.6002  2.5389  0.4526
 3011SOL     OW 9875   5.577   3.404   0.027 -0.4996 -0.1090 -0.6063
 3011SOL    HW1 9876   5.497   3.411  -0.024 -0.9868 -0.0344  0.1536
 3011SOL    HW2 9877   5.548   3.401   0.118  0.4105  0.8487 -0.2643
 3012SOL     OW 9878   3.458   0.270   7.541 -0.0487  0.5584  0.4183
 3012SOL    HW1 9879   3.469   0.345   7.599 -1.0477  0.8921  0.1990
 3012SOL    HW2 9880   3.368   0.278   7.508  0.1777 -0.1604 -0.4161
 3013SOL     OW 9881   0.020   1.651   2.874 -0.0663 -0.1268 -0.0440
 3013SOL    HW1 9882   0.039   1.560   2.895 -0.5187  0.5392  4.0500
 3013SOL    HW2 9883  -0.076   1.655   2.870 -0.1436  0.4106  1.6102
 3014SOL     OW 9884   3.436   8.086   5.872 -0.7900  0.0020  0.1512
 3014SOL    HW1 9885   3.484   8.154   5.919 -0.7510 -0.9868  1.6098
 3014SOL    HW2 9886   3.504   8.036   5.826 -0.4368 -0.9206  1.5905
 3015SOL     OW 9887   5.966   5.042   7.742 -0.7849 -0.0072 -0.2355
 3015SOL    HW1 9888   6.022   5.042   7.820 -1.0541  0.0771 -0.0405
 3015SOL    HW2 9889   5.937   4.951   7.733 -1.0750  0.0582 -0.0011
 3016SOL     OW 9890   3.226   1.942   7.381 -0.2999 -0.1357 -0.2431
 3016SOL    HW1 9891   3.205   1.922   7.290  2.3608  0.1331 -1.0165
 3016SOL    HW2 9892   3.255   1.857   7.417  0.3817  0.0952 -0.2239
 3017SOL     OW 9893   6.301   1.061   3.179 -0.0674 -0.0516  0.0590
 3017SOL    HW1 9894   6.248   0.981   3.174 -0.6871  0.4066 -1.3367
 3017SOL    HW2 9895   6.275   1.101   3.262 -1.2926 -0.2823 -0.1846
 3018SOL     OW 9896   6.069   5.384   1.067 -0.7906  0.3616 -0.2936
 3018SOL    HW1 9897   5.984   5.350   1.039 -0.4195 -0.4587 -0.4367
 3018SOL    HW2 9898   6.086   5.340   1.151  1.4361 -2.8720 -2.2093
 3019SOL     OW 9899   2.393   7.112   7.348 -0.1967 -0.1112 -0.1079
 3019SOL    HW1 9900   2.460   7.048   7.323  1.0906  0.9586  0.4989
 3019SOL    HW2 9901   2.386   7.104   7.443 -1.4211 -0.6668 -0.2342
 3020SOL     OW 9902   6.057   1.331   1.197  0.1877 -0.8684  0.0411
 3020SOL    HW1 9903   6.118   1.392   1.238 -0.7158 -0.2997  0.5726
 3020SOL    HW2 9904   6.034   1.372   1.113 -0.7126 -0.2809  0.5675
 3021SOL     OW 9905   0.816   2.768   0.747 -0.1853 -0.1697  0.2373
 3021SOL    HW1 9906   0.870   2.750   0.824 -0.9703  1.6681  1.2714
 3021SOL    HW2 9907   0.749   2.828   0.778 -0.3655  0.8482 -1.9505
 3022SOL     OW 9908   3.458   1.866   8.097  0.3483  0.0824 -0.4083
 3022SOL    HW1 9909   3.516   1.790   8.084  1.7140  0.5095  2.3351
 3022SOL    HW2 9910   3.515   1.942   8.083 -0.8037  0.6585 -2.3056
 3023SOL     OW 9911   5.431   3.860   6.000  0.0969  0.3228  0.0001
 3023SOL    HW1 9912   5.512   3.905   6.024 -0.1922  1.1109 -0.4809
 3023SOL    HW2 9913   5.436   3.775   6.045  2.1613 -0.5231 -1.6955
 3024SOL     OW 9914   4.790   6.887   0.552 -0.4003  0.6514 -0.3497
 3024SOL    HW1 9915   4.792   6.806   0.500  1.4767  0.3012  0.1627
 3024SOL    HW2 9916   4.722   6.872   0.617 -0.5387 -0.2518 -0.6849
 3025SOL     OW 9917   1.668   4.493   0.041  0.1762  0.4385  0.1874
 3025SOL    HW1 9918   1.707   4.522  -0.041 -0.4577  1.4621  0.2197
 3025SOL    HW2 9919   1.617   4.569   0.070  1.0984  0.4325  1.9696
 3026SOL     OW 9920   1.090   4.235   0.248  0.0267 -0.2374  0.2139
 3026SOL    HW1 9921   1.060   4.144   0.244  0.5396 -0.3674 -1.8422
 3026SOL    HW2 9922   1.171   4.231   0.299 -0.4695 -0.7768  0.9729
 3027SOL     OW 9923   2.681   3.455   0.788  0.5750  0.4520  0.1881
 3027SOL    HW1 9924   2.772   3.425   0.790  0.4411  0.0662  0.7605
 3027SOL    HW2 9925   2.643   3.421   0.869  0.5089  2.5154  1.0813
 3028SOL     OW 9926   4.480   0.503   5.109  0.2596  0.3946 -0.2192
 3028SOL    HW1 9927   4.402   0.507   5.053 -1.3474 -4.0597  1.2237
 3028SOL    HW2 9928   4.456   0.551   5.188 -0.5543  0.1481 -0.3055
 3029SOL     OW 9929   0.267   0.075   6.237 -0.3914  0.4959 -0.5769
 3029SOL    HW1 9930   0.317  -0.007   6.239  0.6070  1.0617 -1.4699
 3029SOL    HW2 9931   0.175   0.046   6.236 -0.0510 -0.6518 -1.8473
 3030SOL     OW 9932   4.676   2.690   4.981  0.0577 -0.4228 -0.6495
 3030SOL    HW1 9933   4.683   2.785   4.993 -0.1827 -0.5150  0.3432
 3030SOL    HW2 9934   4.767   2.660   4.978  0.1390 -0.2557 -0.0646
 3031SOL     OW 9935   1.386   5.551   6.926 -0.9471  0.1561  0.2664
 3031SOL    HW1 9936   1.304   5.569   6.973 -0.0340  1.8123  1.3150
 3031SOL    HW2 9937   1.413   5.636   6.891  1.2555  0.0481  1.5157
 3032SOL     OW 9938   3.790   5.163   5.494  0.4889  0.1933  0.0979
 3032SOL    HW1 9939   3.698   5.189   5.485  0.1683 -0.0174  2.1625
 3032SOL    HW2 9940   3.839   5.243   5.478 -0.2219  0.9141  1.2949
 3033SOL     OW 9941   4.115   5.691   4.131 -0.0228  0.7819 -0.0156
 3033SOL    HW1 9942   4.036   5.744   4.128 -1.2462 -0.9711 -0.6300
 3033SOL    HW2 9943   4.173   5.738   4.191 -0.6094  3.2813 -1.2810
 3034SOL     OW 9944   3.313   1.599   7.815 -0.0081 -0.0150 -0.1532
 3034SOL    HW1 9945   3.376   1.565   7.879  0.2422  2.5134  1.0790
 3034SOL    HW2 9946   3.367   1.629   7.742  0.2009  1.1949  0.4564
 3035SOL     OW 9947   1.898   6.825   5.982  0.0455 -0.4161  0.1705
 3035SOL    HW1 9948   1.943   6.769   6.045 -0.3305 -1.9713 -0.8968
 3035SOL    HW2 9949   1.960   6.896   5.966  0.0288  0.2136  2.4842
 3036SOL     OW 9950   4.211   8.207   2.527  0.0588  0.0578 -0.6150
 3036SOL    HW1 9951   4.279   8.158   2.480 -1.3934 -1.3762 -1.3177
 3036SOL    HW2 9952   4.259   8.258   2.592  1.9450  0.3773 -2.1622
 3037SOL     OW 9953   2.255   7.287   8.186 -0.6343 -0.3120  0.3172
 3037SOL    HW1 9954   2.310   7.269   8.109 -1.0213  0.2375 -0.0920
 3037SOL    HW2 9955   2.224   7.200   8.212 -0.2749 -0.5372  0.0276
 3038SOL     OW 9956   2.302   5.516   2.889 -0.3704 -0.0009  0.1596
 3038SOL    HW1 9957   2.325   5.483   2.803  2.1151 -2.0906  1.4626
 3038SOL    HW2 9958   2.230   5.461   2.918 -0.2528 -0.2709 -0.0532
 3039SOL     OW 9959   7.376   6.160   5.651  0.1323  0.7723  0.1420
 3039SOL    HW1 9960   7.420   6.096   5.707  0.0270  1.6523  1.2703
 3039SOL    HW2 9961   7.292   6.175   5.692  0.2140  1.7474 -0.0084
 3040SOL     OW 9962   3.319   6.686   4.160  0.2981 -0.5837 -0.7058
 3040SOL    HW1 9963   3.288   6.684   4.069  1.8422  2.4670 -1.4242
 3040SOL    HW2 9964   3.273   6.761   4.198  0.0913 -1.4984  0.9300
 3041SOL     OW 9965   0.194   4.417   5.080 -0.3067  0.0784 -0.0715
 3041SOL    HW1 9966   0.162   4.418   4.990 -1.3110  1.1247  0.2656
 3041SOL    HW2 9967   0.154   4.495   5.120 -0.1697 -0.5673  1.3713
 3042SOL     OW 9968   5.967   4.292   3.131  0.4532 -0.0148  0.4291
 3042SOL    HW1 9969   6.060   4.277   3.147  2.1404  4.7349 -2.7649
 3042SOL    HW2 9970   5.941   4.222   3.072  2.9156  0.1573 -0.9948
 3043SOL     OW 9971   7.700   4.138   7.291  0.2546 -0.0187 -0.1851
 3043SOL    HW1 9972   7.722   4.084   7.215  1.4949  1.1295 -0.6892
 3043SOL    HW2 9973   7.783   4.152   7.335 -0.2514  0.4253  0.6479
 3044SOL     OW 9974   2.389   7.506   5.988 -0.1170  0.1925  0.4748
 3044SOL    HW1 9975   2.405   7.466   6.073  2.0417  2.2718  1.1575
 3044SOL    HW2 9976   2.305   7.552   5.998  0.2396  0.6300  1.5837
 3045SOL     OW 9977   5.446   2.432   2.862 -0.0970  0.3210  0.2236
 3045SOL    HW1 9978   5.492   2.495   2.807  1.6930 -0.8195  0.3024
 3045SOL    HW2 9979   5.392   2.382   2.802 -0.4219  0.9918 -0.0477
 3046SOL     OW 9980   5.793   0.877   4.881 -0.1193 -0.3564 -0.0402
 3046SOL    HW1 9981   5.809   0.944   4.815 -0.0285 -0.5231 -0.1897
 3046SOL    HW2 9982   5.761   0.925   4.957 -0.6257 -0.1986 -0.3451
 3047SOL     OW 9983   6.067   3.352   6.621 -0.0439  0.0966 -0.4873
 3047SOL    HW1 9984   6.059   3.447   6.625  0.0072  0.0835  0.0151
 3047SOL    HW2 9985   6.145   3.337   6.566 -0.4685  0.3223 -1.1695
 3048SOL     OW 9986   6.611   4.820   2.652 -0.4565 -0.1903  0.8817
 3048SOL    HW1 9987   6.542   4.813   2.718  1.7991  1.9369  3.7232
 3048SOL    HW2 9988   6.621   4.914   2.638  1.8953 -0.4303  0.6314
 3049SOL     OW 9989   1.190   5.182   2.109 -0.0777 -0.0626  0.4737
 3049SOL    HW1 9990   1.280   5.150   2.117  0.2610 -0.0148 -2.1211
 3049SOL    HW2 9991   1.145   5.114   2.058 -1.1974  0.4700  0.7175
 3050SOL     OW 9992   7.954   0.615   7.082  0.0000  0.4598  0.1338
 3050SOL    HW1 9993   7.989   0.526   7.080  1.5407  1.0491 -0.2669
 3050SOL    HW2 9994   8.026   0.670   7.052 -1.4128  1.6948 -1.1651
 3051SOL     OW 9995   0.009   2.340   2.550  0.4635  0.2088 -0.0899
 3051SOL    HW1 9996  -0.023   2.260   2.510  0.8547 -0.5500  1.0621
 3051SOL    HW2 9997  -0.057   2.361   2.617  0.9043  0.2301  0.3463
 3052SOL     OW 9998   2.325   2.964   8.011  0.8548 -0.2408 -0.2962
 3052SOL    HW1 9999   2.260   2.920   7.955  1.1041 -1.4297  0.3099
 3052SOL    HW210000   2.409   2.933   7.978  1.1614  1.3711 -1.1417
 3053SOL     OW10001   5.047   6.551   2.899  0.2144  0.3067 -0.2983
 3053SOL    HW110002   4.983   6.563   2.829  0.0727 -1.1880 -0.4528
 3053SOL    HW210003   5.065   6.640   2.930 -0.8122  0.8737 -1.2432
 3054SOL     OW10004   3.610   3.002   5.467 -0.5479  0.4087 -0.5962
 3054SOL    HW110005   3.531   2.982   5.517 -0.9214  0.6662 -1.0733
 3054SOL    HW210006   3.588   2.980   5.377 -1.0848  3.1001 -1.2075
 3055SOL     OW10007   1.450   1.252   2.428 -0.3290 -0.3323 -0.2672
 3055SOL    HW110008   1.523   1.193   2.412 -0.6923 -1.0351  0.5872
 3055SOL    HW210009   1.390   1.202   2.485  0.0030  1.2977  1.6346
 3056SOL     OW10010   3.772   1.395   3.329 -0.1278  0.5844  0.2240
 3056SOL    HW110011   3.728   1.423   3.249 -0.1057  0.1088  0.0411
 3056SOL    HW210012   3.754   1.301   3.335  0.8118  0.3850  0.1656
 3057SOL     OW10013   6.728   1.489   7.774  0.7756 -0.6749 -0.0480
 3057SOL    HW110014   6.795   1.547   7.810  0.0973 -0.2898  0.6073
 3057SOL    HW210015   6.767   1.401   7.780  0.3867 -0.7572  2.4618
 3058SOL     OW10016   6.753   1.484   5.582 -0.5719 -0.1000 -0.2892
 3058SOL    HW110017   6.715   1.511   5.498  1.7751  2.6285 -0.6459
 3058SOL    HW210018   6.733   1.557   5.642  1.7150  0.2336  0.1732
 3059SOL     OW10019   0.653   7.697   7.932 -0.2116 -0.1036 -0.3477
 3059SOL    HW110020   0.711   7.620   7.932 -0.6847 -0.4637 -0.5152
 3059SOL    HW210021   0.682   7.748   8.008 -0.8925 -1.2133  0.6950
 3060SOL     OW10022   5.237   7.156   2.788  0.0138 -0.3514 -0.0956
 3060SOL    HW110023   5.190   7.121   2.864 -0.5541  0.2015 -0.1870
 3060SOL    HW210024   5.303   7.214   2.826 -0.3331  0.0008 -0.0199
 3061SOL     OW10025   6.610   2.609   2.207 -0.3544 -0.0334 -0.0993
 3061SOL    HW110026   6.681   2.634   2.267  0.3578 -1.0101 -0.5051
 3061SOL    HW210027   6.571   2.692   2.180  1.0883  0.5795 -0.3993
 3062SOL     OW10028   7.596   3.109   6.243 -1.1835  0.3441  0.7948
 3062SOL    HW110029   7.539   3.097   6.319  0.1513 -1.6081  1.5554
 3062SOL    HW210030   7.685   3.112   6.279 -0.6681  1.8402 -0.4919
 3063SOL     OW10031   1.055   0.494   6.838 -0.5211 -0.6204  0.8266
 3063SOL    HW110032   0.995   0.440   6.787  0.9748  0.4254 -2.2970
 3063SOL    HW210033   1.018   0.583   6.833  1.3619  0.1518 -1.6324
 3064SOL     OW10034   4.950   7.996   4.410  0.5190 -0.3888 -0.1038
 3064SOL    HW110035   4.873   8.038   4.448  1.1497 -0.0463  0.8502
 3064SOL    HW210036   4.944   7.905   4.438  0.5160 -0.3348  0.0719
 3065SOL     OW10037   0.635   3.046   3.636  0.0091 -0.3268  0.1976
 3065SOL    HW110038   0.582   2.967   3.643  0.0111 -0.2957  0.5760
 3065SOL    HW210039   0.608   3.085   3.552 -0.5835 -0.3023  0.3924
 3066SOL     OW10040   8.043   4.028   1.460 -0.2181  0.6696  0.8812
 3066SOL    HW110041   8.137   4.028   1.445 -0.5840  0.4987 -1.7359
 3066SOL    HW210042   8.012   3.945   1.424 -1.5990  1.5531 -0.0677
 3067SOL     OW10043   4.907   0.831   4.675  0.3506 -0.4852  0.0126
 3067SOL    HW110044   4.949   0.821   4.590  0.5490  0.2213  0.0165
 3067SOL    HW210045   4.867   0.918   4.672 -0.5668 -0.8940  0.2482
 3068SOL     OW10046   1.752   3.098   0.761 -0.5967 -0.2164 -0.3926
 3068SOL    HW110047   1.679   3.053   0.804 -1.5152  0.2784 -1.3953
 3068SOL    HW210048   1.729   3.099   0.668  2.3065 -3.0954 -1.3324
 3069SOL     OW10049   1.951   4.456   0.013  0.1712 -0.1869  0.2415
 3069SOL    HW110050   1.973   4.369  -0.020 -1.4192 -0.4584 -0.1883
 3069SOL    HW210051   1.872   4.443   0.065  1.3031  0.6229  2.2735
 3070SOL     OW10052   2.390   4.972   0.066  0.6179  0.5226  0.2854
 3070SOL    HW110053   2.335   5.017   0.001 -0.9638 -0.3832  0.9390
 3070SOL    HW210054   2.469   4.949   0.017  1.5146  3.8422 -0.1119
 3071SOL     OW10055   7.558   2.870   0.352  0.0157  0.2630 -0.5461
 3071SOL    HW110056   7.604   2.920   0.419 -0.3699 -0.7957  0.5465
 3071SOL    HW210057   7.486   2.828   0.398  0.1831 -1.0997 -1.4560
 3072SOL     OW10058   3.202   0.532   1.201 -0.6132  0.1465  0.3209
 3072SOL    HW110059   3.262   0.568   1.267  0.1078 -1.0543  0.3545
 3072SOL    HW210060   3.133   0.598   1.193  1.8171  2.7394 -1.3914
 3073SOL     OW10061   5.047   5.158   6.787  0.0731 -0.3501  0.6244
 3073SOL    HW110062   4.973   5.164   6.847 -0.8152 -0.7064 -0.4054
 3073SOL    HW210063   5.010   5.173   6.701  1.0502 -1.3269 -0.0012
 3074SOL     OW10064   4.727   7.660   3.289  0.4254  0.1889  0.2684
 3074SOL    HW110065   4.784   7.652   3.213  0.9075 -1.1727  0.7506
 3074SOL    HW210066   4.786   7.659   3.364 -0.0257  1.6823  0.6881
 3075SOL     OW10067   2.212   5.486   3.923 -0.0343 -0.2194 -0.2439
 3075SOL    HW110068   2.145   5.458   3.860 -0.3500 -2.4130  0.9625
 3075SOL    HW210069   2.170   5.559   3.971 -1.3616 -1.1515  0.0776
 3076SOL     OW10070   4.609   1.097   3.677 -0.1117 -0.0760 -0.1094
 3076SOL    HW110071   4.572   1.184   3.662  0.3923 -0.3506 -3.6171
 3076SOL    HW210072   4.698   1.102   3.644 -0.4235 -2.1849 -1.4815
 3077SOL     OW10073   2.933   7.492   1.138  0.0279  0.6986  0.2248
 3077SOL    HW110074   2.948   7.585   1.155 -1.1706  0.6551  1.6198
 3077SOL    HW210075   2.987   7.474   1.061  1.4744  2.1858  0.8083
 3078SOL     OW10076   2.774   6.042   2.092  0.0660  0.4829 -0.1175
 3078SOL    HW110077   2.747   6.109   2.029  0.0082  0.6275  0.0615
 3078SOL    HW210078   2.859   6.073   2.124  0.9234 -0.4432 -1.3879
 3079SOL     OW10079   3.156   6.633   3.367 -0.4403 -0.3331 -0.0964
 3079SOL    HW110080   3.183   6.541   3.374 -1.6869 -0.6499  0.8868
 3079SOL    HW210081   3.162   6.667   3.456 -1.3138  0.1389 -0.2017
 3080SOL     OW10082   4.439   7.924   1.283 -0.2495  0.6110 -0.4228
 3080SOL    HW110083   4.443   8.017   1.309  2.0080  0.7283 -0.9930
 3080SOL    HW210084   4.450   7.926   1.188  2.5811 -0.2992 -0.2046
 3081SOL     OW10085   3.388   6.255   5.755  0.3933  0.7063 -0.1798
 3081SOL    HW110086   3.393   6.297   5.841 -0.5998  0.3293  0.0732
 3081SOL    HW210087   3.466   6.287   5.709  1.4830  0.1340  1.1876
 3082SOL     OW10088   7.780   5.824   2.037  0.8940  0.0872  0.0205
 3082SOL    HW110089   7.767   5.904   1.986 -0.8164 -0.3981 -0.3620
 3082SOL    HW210090   7.857   5.842   2.090  0.1237  2.3027  0.5108
 3083SOL     OW10091   4.020   4.769   5.514  0.5548 -0.9481 -0.0813
 3083SOL    HW110092   4.085   4.718   5.562  0.1821 -0.2578  1.2027
 3083SOL    HW210093   3.996   4.839   5.574 -0.5248 -0.5189 -0.9880
 3084SOL     OW10094   3.804   2.081   0.792 -0.6786 -0.6255 -0.0807
 3084SOL    HW110095   3.805   2.026   0.714  1.5735 -0.6660 -0.1072
 3084SOL    HW210096   3.849   2.161   0.766  1.9668 -1.4193  1.5989
 3085SOL     OW10097   2.001   1.968   7.537 -0.6497 -0.6848 -0.1978
 3085SOL    HW110098   2.015   1.971   7.443  1.9247  2.0723  0.1080
 3085SOL    HW210099   1.906   1.961   7.547 -1.0126 -0.8732 -2.9597
 3086SOL     OW10100   5.761   2.430   0.666 -0.2638 -0.2809  0.3144
 3086SOL    HW110101   5.748   2.486   0.589 -2.2426  1.9759  2.1201
 3086SOL    HW210102   5.697   2.360   0.656  0.9289 -1.2590 -1.0307
 3087SOL     OW10103   0.924   5.144   6.542  0.4758  0.2651 -0.9270
 3087SOL    HW110104   0.978   5.123   6.618 -0.5803  0.2520 -0.1529
 3087SOL    HW210105   0.894   5.060   6.509 -1.0013  0.3232  0.1261
 3088SOL     OW10106   7.294   5.051   3.484 -0.0361 -0.0252  0.4241
 3088SOL    HW110107   7.371   5.017   3.529  0.6022  0.8334  0.0036
 3088SOL    HW210108   7.328   5.093   3.405 -0.8658  0.8424  0.5029
 3089SOL     OW10109   6.887   4.381   6.063 -0.4207  0.5962  0.4824
 3089SOL    HW110110   6.872   4.356   6.155  4.1920 -0.9326  1.0448
 3089SOL    HW210111   6.914   4.472   6.067  2.2647 -0.1519  1.1121
 3090SOL     OW10112   7.691   0.644   8.008  0.5805  0.5702 -0.1713
 3090SOL    HW110113   7.638   0.678   7.937  0.2036  1.2876  0.4457
 3090SOL    HW210114   7.766   0.603   7.965 -0.6451 -0.7914 -1.0647
 3091SOL     OW10115   6.325   2.582   4.052 -0.1971  0.1134  0.2753
 3091SOL    HW110116   6.359   2.666   4.082  0.5386  0.6824 -1.9662
 3091SOL    HW210117   6.238   2.602   4.018 -0.8736 -0.4506  1.6156
 3092SOL     OW10118   2.443   0.602   8.048  0.3878  0.8024  0.1262
 3092SOL    HW110119   2.475   0.683   8.008 -0.0768  2.2921  2.5661
 3092SOL    HW210120   2.353   0.594   8.019  0.7292  0.5727 -0.9214
 3093SOL     OW10121   2.066   1.488   4.802  0.3665  0.9135  0.5813
 3093SOL    HW110122   2.002   1.507   4.734 -1.3035 -0.2274  1.7439
 3093SOL    HW210123   2.121   1.566   4.806  0.3108  1.1547 -1.7868
 3094SOL     OW10124   4.702   7.963   5.846 -0.1416  0.1148  0.2419
 3094SOL    HW110125   4.632   7.985   5.785 -0.3369  0.5190  0.6055
 3094SOL    HW210126   4.760   8.039   5.845  0.3092 -0.2248 -0.0710
 3095SOL     OW10127   2.064   2.032   2.540  0.2320  0.2538  0.3351
 3095SOL    HW110128   2.006   2.108   2.530 -0.7449 -0.5006  0.1702
 3095SOL    HW210129   2.076   2.000   2.451  1.5856  0.8710  0.2618
 3096SOL     OW10130   2.961   1.923   0.160 -0.0610 -0.5032 -0.1215
 3096SOL    HW110131   2.990   1.954   0.245 -0.4704 -0.4180 -0.0119
 3096SOL    HW210132   2.868   1.943   0.157  0.0554 -0.0410 -0.7999
 3097SOL     OW10133   2.409   6.068   2.567  0.1887  0.2138  0.3174
 3097SOL    HW110134   2.396   6.147   2.621  0.0966  0.3451  0.1060
 3097SOL    HW210135   2.324   6.056   2.524  0.5214  0.6099 -0.4661
 3098SOL     OW10136   7.683   3.333   1.029  0.0850 -0.0388 -0.0520
 3098SOL    HW110137   7.604   3.305   0.982 -0.0939  0.7067 -0.2005
 3098SOL    HW210138   7.702   3.260   1.089 -0.7984 -0.1593  0.0923
 3099SOL     OW10139   0.402   2.529   1.008 -0.1146  0.4615  0.3827
 3099SOL    HW110140   0.394   2.485   0.924  0.5059  1.0969 -0.0195
 3099SOL    HW210141   0.381   2.621   0.989  1.9935  1.0031  0.4998
 3100SOL     OW10142   3.065   2.555   5.972 -0.6519  0.7752 -0.1910
 3100SOL    HW110143   3.016   2.506   5.906 -1.4107  1.0916  0.1271
 3100SOL    HW210144   2.999   2.581   6.036 -0.0392  1.0922  0.3192
 3101SOL     OW10145   6.689   0.277   0.918  0.2166 -0.1945  0.3436
 3101SOL    HW110146   6.716   0.301   1.006  0.8526 -0.0237  0.1049
 3101SOL    HW210147   6.623   0.208   0.931  0.5701 -0.4266  0.9425
 3102SOL     OW10148   7.572   4.886   5.188  0.2132 -0.4782  0.3066
 3102SOL    HW110149   7.626   4.959   5.160 -0.3306  0.8244  2.4096
 3102SOL    HW210150   7.633   4.813   5.200  0.8481 -0.2295 -1.2023
 3103SOL     OW10151   7.937   2.595   7.301 -0.2036 -0.3260  0.0115
 3103SOL    HW110152   7.983   2.606   7.218 -2.8535  0.3541 -1.5035
 3103SOL    HW210153   7.987   2.648   7.363 -0.0424  2.1182 -2.0166
 3104SOL     OW10154   6.652   0.349   7.859 -0.4264 -0.5808 -0.1978
 3104SOL    HW110155   6.700   0.275   7.823  0.8247  0.3641 -0.5603
 3104SOL    HW210156   6.712   0.387   7.923 -1.6009 -0.6850  1.0038
 3105SOL     OW10157   1.619   2.550   3.332 -0.0045 -0.3509  0.2253
 3105SOL    HW110158   1.619   2.586   3.421  0.4275  1.1975 -0.3615
 3105SOL    HW210159   1.707   2.568   3.299  0.1271 -1.7086 -0.2315
 3106SOL     OW10160   7.299   3.506   0.770 -0.7657  0.1185 -0.0173
 3106SOL    HW110161   7.293   3.432   0.710 -0.7343  0.0372  0.0807
 3106SOL    HW210162   7.375   3.556   0.739  1.3359 -1.6701  1.9136
 3107SOL     OW10163   7.120   3.133   0.853 -0.1307 -0.7623  0.3324
 3107SOL    HW110164   7.091   3.163   0.939  0.0302  0.5153 -0.0283
 3107SOL    HW210165   7.114   3.038   0.856 -2.0015 -0.6495  1.0825
 3108SOL     OW10166   0.247   7.426   1.835  0.3993  0.3397  0.1288
 3108SOL    HW110167   0.302   7.367   1.783 -0.9521 -0.6035 -0.2765
 3108SOL    HW210168   0.264   7.513   1.799  2.4151  0.2406  0.7266
 3109SOL     OW10169   7.276   1.834   4.776  0.0125  1.2056 -0.0477
 3109SOL    HW110170   7.258   1.767   4.841 -1.4911  1.9709  0.3562
 3109SOL    HW210171   7.352   1.801   4.728  0.0390 -0.2039  0.9214
 3110SOL     OW10172   0.227   1.046   5.557 -0.3028 -0.2693 -0.2872
 3110SOL    HW110173   0.243   0.953   5.545 -0.0775 -0.3525  0.5684
 3110SOL    HW210174   0.132   1.054   5.565 -0.2170 -0.7209  1.7152
 3111SOL     OW10175   1.226   4.944   0.280 -0.5624 -0.1481 -0.0447
 3111SOL    HW110176   1.181   4.969   0.199 -1.0037  0.9896  0.5179
 3111SOL    HW210177   1.319   4.944   0.257 -0.6836  0.1749 -0.5541
 3112SOL     OW10178   5.247   3.048   5.501 -0.1802  0.0621 -0.1175
 3112SOL    HW110179   5.204   2.964   5.492  1.5180 -1.6303  4.5714
 3112SOL    HW210180   5.334   3.035   5.463 -0.9805  0.9165 -2.3980
 3113SOL     OW10181   3.447   0.672   3.000 -0.6436 -0.3546  0.2874
 3113SOL    HW110182   3.487   0.659   2.913  5.2083 -1.4123  2.6630
 3113SOL    HW210183   3.411   0.586   3.022  1.1150 -1.1622  0.1833
 3114SOL     OW10184   0.724   7.819   5.295 -0.4965 -0.1717 -0.4982
 3114SOL    HW110185   0.666   7.746   5.275 -1.3011 -0.1581  1.4819
 3114SOL    HW210186   0.809   7.778   5.313 -0.8750 -0.6340  0.3253
 3115SOL     OW10187   7.101   1.002   7.141 -0.3164  0.0159 -0.3621
 3115SOL    HW110188   7.192   0.977   7.128 -0.7601 -0.6405 -2.5913
 3115SOL    HW210189   7.063   0.928   7.189 -0.5682 -1.7063 -3.0044
 3116SOL     OW10190   1.891   4.433   5.444 -0.0606 -0.1144  0.0656
 3116SOL    HW110191   1.937   4.438   5.528 -0.9842  1.5550  0.5298
 3116SOL    HW210192   1.799   4.451   5.466 -0.4078 -0.1982 -1.2386
 3117SOL     OW10193   5.813   4.008   1.868  0.2668 -0.1557  0.5491
 3117SOL    HW110194   5.792   4.077   1.805 -1.3105  0.1124  1.3305
 3117SOL    HW210195   5.908   4.015   1.880  0.4904  0.2715 -1.2163
 3118SOL     OW10196   2.279   4.328   2.102  0.1625 -0.3136 -0.1381
 3118SOL    HW110197   2.297   4.346   2.194  1.5109  0.2276 -0.4813
 3118SOL    HW210198   2.363   4.339   2.058 -0.0978 -2.1724 -1.2202
 3119SOL     OW10199   7.201   1.041   6.176  0.3129 -0.0082  0.1490
 3119SOL    HW110200   7.165   1.116   6.225  0.9724  0.3949  0.0199
 3119SOL    HW210201   7.123   0.995   6.145 -0.1075  0.8539 -0.1264
 3120SOL     OW10202   1.217   2.759   0.766  0.2869 -0.1049  0.3001
 3120SOL    HW110203   1.288   2.704   0.800  0.1444  2.1448  5.0131
 3120SOL    HW210204   1.139   2.729   0.812 -0.7053  1.0806 -0.5419
 3121SOL     OW10205   6.789   3.994   0.967  0.2127 -0.3800 -0.3311
 3121SOL    HW110206   6.704   3.981   0.924  0.1340 -0.4342 -0.1631
 3121SOL    HW210207   6.836   3.911   0.953  0.3821 -0.2200 -0.7376
 3122SOL     OW10208   1.246   3.172   5.978 -0.1003 -0.7836  0.3371
 3122SOL    HW110209   1.322   3.228   5.960  0.3932 -1.6801 -0.4436
 3122SOL    HW210210   1.186   3.191   5.906 -1.1553  0.7756  1.5573
 3123SOL     OW10211   4.302   2.175   5.713 -0.6756  0.7570 -0.4834
 3123SOL    HW110212   4.263   2.107   5.767 -0.1400  0.6764 -0.2001
 3123SOL    HW210213   4.254   2.169   5.630 -1.5362  0.9232 -0.0096
 3124SOL     OW10214   2.958   2.097   5.534  0.0697 -0.6043  0.2866
 3124SOL    HW110215   2.891   2.158   5.567 -0.6884 -0.3401 -1.6167
 3124SOL    HW210216   2.911   2.014   5.525 -0.0052 -0.4524 -0.9193
 3125SOL     OW10217   2.142   4.682   8.202  0.0978 -0.4508 -0.3207
 3125SOL    HW110218   2.077   4.612   8.202  1.0988 -1.4239  0.2114
 3125SOL    HW210219   2.111   4.744   8.268 -0.2799 -0.8952 -0.0796
 3126SOL     OW10220   6.408   5.038   2.465  0.9912 -0.0023 -0.1973
 3126SOL    HW110221   6.460   5.010   2.389  1.9741 -1.1495  0.8664
 3126SOL    HW210222   6.473   5.069   2.528  0.3153 -0.5912  0.8062
 3127SOL     OW10223   5.243   2.487   6.688  0.0280 -0.1284 -0.3285
 3127SOL    HW110224   5.255   2.414   6.749  0.7979 -0.1053 -0.4409
 3127SOL    HW210225   5.176   2.541   6.729  1.0411  0.2762  0.8817
 3128SOL     OW10226   7.950   4.461   3.454  0.0579  0.2472  0.1376
 3128SOL    HW110227   8.006   4.538   3.467 -0.2154  0.4493  0.1351
 3128SOL    HW210228   8.009   4.393   3.422  0.1161  0.7697 -0.8920
 3129SOL     OW10229   4.900   1.166   2.732  0.0187  0.0764  0.1069
 3129SOL    HW110230   4.901   1.092   2.793  0.3686 -1.1364 -1.2909
 3129SOL    HW210231   4.822   1.216   2.756 -0.8232 -1.3441  0.4512
 3130SOL     OW10232   1.389   7.422   1.441  0.3814 -0.0018 -0.0590
 3130SOL    HW110233   1.450   7.373   1.496 -0.9454 -1.1930  0.4151
 3130SOL    HW210234   1.428   7.509   1.433  0.7349  0.1730  2.6094
 3131SOL     OW10235   7.024   3.581   1.986  0.0403  0.3849 -0.1957
 3131SOL    HW110236   7.070   3.665   1.998  0.6254  0.0666 -0.1741
 3131SOL    HW210237   7.080   3.532   1.926  0.4190 -0.5219  0.8623
 3132SOL     OW10238   2.901   2.625   5.078 -0.5107 -0.1758  0.3704
 3132SOL    HW110239   2.838   2.565   5.039  0.5357 -0.9757 -0.1072
 3132SOL    HW210240   2.984   2.578   5.079  0.1668  0.9587  0.7346
 3133SOL     OW10241   6.960   5.505   3.782 -0.5623 -0.3496  0.2368
 3133SOL    HW110242   7.004   5.574   3.732  0.2529 -0.7364  0.4084
 3133SOL    HW210243   7.012   5.426   3.765 -1.0415 -0.7645  0.6570
 3134SOL     OW10244   6.022   6.872   4.427 -0.5096 -0.6215  0.3827
 3134SOL    HW110245   6.025   6.802   4.361 -0.0702 -0.8278  0.6190
 3134SOL    HW210246   5.930   6.895   4.433 -0.3482  1.1738 -2.1937
 3135SOL     OW10247   1.909   1.187   1.389  0.0984  0.2706  0.0704
 3135SOL    HW110248   1.816   1.181   1.369 -0.5537  1.7447  2.2433
 3135SOL    HW210249   1.939   1.097   1.395 -1.1762 -0.2256 -0.6616
 3136SOL     OW10250   0.032   3.366   7.330 -0.1576  0.1081  0.3060
 3136SOL    HW110251   0.019   3.354   7.236  1.1465 -0.0368  0.1253
 3136SOL    HW210252   0.052   3.278   7.363  0.5984  0.3485  0.5021
 3137SOL     OW10253   4.132   1.273   2.405 -0.5553  0.3665  0.1401
 3137SOL    HW110254   4.112   1.215   2.331 -1.1202  0.1422  0.4612
 3137SOL    HW210255   4.204   1.328   2.374 -1.5793  1.1038 -1.0037
 3138SOL     OW10256   0.349   4.476   2.678 -1.1257  0.1716  0.3791
 3138SOL    HW110257   0.304   4.556   2.702 -2.0419 -0.5971  1.3174
 3138SOL    HW210258   0.290   4.431   2.617 -0.4613  0.3579 -0.4259
 3139SOL     OW10259   5.146   1.256   3.499 -0.0823 -0.4216 -0.3740
 3139SOL    HW110260   5.130   1.185   3.561 -2.6960  0.9064  0.5939
 3139SOL    HW210261   5.084   1.240   3.428  0.5820 -0.0892 -1.0444
 3140SOL     OW10262   2.442   3.087   7.201  0.6119  0.3628 -0.3431
 3140SOL    HW110263   2.421   2.996   7.184  0.7063  0.1075  0.8381
 3140SOL    HW210264   2.378   3.116   7.266  1.4508  0.7191  0.3446
 3141SOL     OW10265   1.984   7.977   3.867 -0.0229  0.2213  0.6187
 3141SOL    HW110266   1.937   8.044   3.818  0.7542  0.6862  0.4927
 3141SOL    HW210267   1.995   7.905   3.805  1.6013  1.0886 -0.1774
 3142SOL     OW10268   6.818   0.313   0.679 -0.2697 -0.5644 -0.1336
 3142SOL    HW110269   6.812   0.218   0.666 -1.0281 -0.3694 -1.4267
 3142SOL    HW210270   6.770   0.329   0.761 -1.6276 -1.1403 -0.7750
 3143SOL     OW10271   0.388   3.230   4.558 -0.2495 -0.9798 -0.7315
 3143SOL    HW110272   0.462   3.172   4.577 -1.1072 -2.5432 -1.8701
 3143SOL    HW210273   0.314   3.191   4.606 -0.5800 -0.0705 -0.4759
 3144SOL     OW10274   2.976   0.972   5.897  0.0177 -0.6062  0.2950
 3144SOL    HW110275   2.979   1.066   5.912  1.5791 -0.6119  0.1755
 3144SOL    HW210276   2.884   0.954   5.877 -0.2645  0.9176  0.0850
 3145SOL     OW10277   3.865   5.734   5.247 -0.0808  0.1249  0.5263
 3145SOL    HW110278   3.860   5.747   5.152  2.5179 -2.8699 -0.1699
 3145SOL    HW210279   3.775   5.716   5.273 -0.8482  0.9684 -1.3491
 3146SOL     OW10280   7.420   1.077   7.457  0.3377  0.0600 -0.1596
 3146SOL    HW110281   7.472   1.141   7.408  0.4332 -0.0958 -0.2634
 3146SOL    HW210282   7.329   1.104   7.443  0.2892 -0.6918 -1.4482
 3147SOL     OW10283   2.771   7.721   6.887  0.1678 -0.2751 -0.3011
 3147SOL    HW110284   2.787   7.655   6.955  0.1738  0.1976  0.1593
 3147SOL    HW210285   2.698   7.686   6.837 -1.3577  0.4178  1.3401
 3148SOL     OW10286   2.879   4.116   4.063 -0.2214  0.4954  0.5574
 3148SOL    HW110287   2.804   4.081   4.015 -0.0001  1.8089 -0.8344
 3148SOL    HW210288   2.930   4.162   3.997  0.7734  1.3144  1.8482
 3149SOL     OW10289   7.459   0.001   2.746  0.4457 -0.1550  0.3780
 3149SOL    HW110290   7.442   0.050   2.665 -2.5592 -1.1810  0.2565
 3149SOL    HW210291   7.451   0.067   2.815  1.1991  0.3884 -0.0365
 3150SOL     OW10292   8.188   5.536   4.934  0.3322 -0.0622 -0.0474
 3150SOL    HW110293   8.231   5.559   5.016 -0.0220 -0.3626  0.2247
 3150SOL    HW210294   8.104   5.581   4.937  0.7667  0.8286 -0.7458
 3151SOL     OW10295   6.143   3.769   4.669  0.3926  0.6540  0.1582
 3151SOL    HW110296   6.198   3.840   4.702  0.2039  1.2226 -0.7247
 3151SOL    HW210297   6.124   3.793   4.578  1.7426 -1.3453 -0.7378
 3152SOL     OW10298   0.836   6.075   4.609  0.3765  0.3867  0.4755
 3152SOL    HW110299   0.931   6.078   4.596  0.4197  3.4094  0.6604
 3152SOL    HW210300   0.823   6.105   4.699 -0.7817  1.0407  0.1173
 3153SOL     OW10301   4.403   5.142   4.288 -0.0344  0.0475 -0.5590
 3153SOL    HW110302   4.493   5.135   4.256  0.4054  0.7961  0.4454
 3153SOL    HW210303   4.370   5.223   4.250 -0.6878 -0.7828 -1.8227
 3154SOL     OW10304   0.125   7.131   3.776  0.0985 -0.0270 -0.3221
 3154SOL    HW110305   0.062   7.061   3.792  0.3452 -0.2034 -0.1068
 3154SOL    HW210306   0.139   7.171   3.862 -0.3586  0.5620 -0.5167
 3155SOL     OW10307   5.111   2.113   0.483  0.1688 -0.0539 -0.3170
 3155SOL    HW110308   5.114   2.151   0.571  0.1336  1.7812 -1.0490
 3155SOL    HW210309   5.060   2.176   0.432  1.2000 -0.4487 -1.9100
 3156SOL     OW10310   0.057   2.833   0.274  0.5253  0.1018  0.6314
 3156SOL    HW110311   0.057   2.739   0.256 -0.2262  0.3087 -0.5173
 3156SOL    HW210312  -0.003   2.844   0.348 -0.9758 -0.1200 -0.5060
 3157SOL     OW10313   3.396   1.090   7.722 -0.1589  0.7702  0.2254
 3157SOL    HW110314   3.466   1.035   7.757 -0.0800  1.3482  0.9981
 3157SOL    HW210315   3.330   1.091   7.791 -0.1647  1.6401  0.2109
 3158SOL     OW10316   2.525   1.359   0.745 -0.1348  0.1199 -0.1791
 3158SOL    HW110317   2.612   1.319   0.745 -0.6227 -1.0272 -1.8153
 3158SOL    HW210318   2.491   1.342   0.833  0.4425 -1.3598 -0.2195
 3159SOL     OW10319   0.964   7.970   5.793  0.6480 -0.1147 -0.0703
 3159SOL    HW110320   1.037   7.969   5.731  0.5142 -1.4785 -0.2322
 3159SOL    HW210321   0.886   7.978   5.738  0.6668  4.7282  0.2034
 3160SOL     OW10322   6.176   0.361   5.540  0.1862  0.0940  0.0983
 3160SOL    HW110323   6.211   0.312   5.465 -1.3985  1.2492 -1.4628
 3160SOL    HW210324   6.082   0.345   5.537 -0.2274  2.2807  0.2389
 3161SOL     OW10325   2.017   7.848   3.259 -0.5140  0.1110 -0.2480
 3161SOL    HW110326   2.011   7.903   3.337  2.3818 -1.5994  1.3841
 3161SOL    HW210327   2.048   7.906   3.190  0.0890  1.0122  0.7569
 3162SOL     OW10328   6.221   6.686   3.367 -0.3887 -0.0830 -0.4379
 3162SOL    HW110329   6.284   6.648   3.306  0.1370 -1.3057  0.7985
 3162SOL    HW210330   6.135   6.657   3.335  0.0230 -3.4470  1.0325
 3163SOL     OW10331   2.119   5.616   6.660 -0.2164 -0.2131  0.4699
 3163SOL    HW110332   2.048   5.640   6.601 -0.6935 -2.0544  0.2426
 3163SOL    HW210333   2.075   5.595   6.743  0.3766  1.5641  1.2931
 3164SOL     OW10334   8.018   7.382   4.947 -0.2463 -0.0255 -0.4507
 3164SOL    HW110335   8.054   7.294   4.932  1.9448  0.7217 -0.0598
 3164SOL    HW210336   7.936   7.367   4.993  0.1742 -1.8727 -0.2065
 3165SOL     OW10337   0.283   6.384   1.971 -0.2756  0.0211  0.3692
 3165SOL    HW110338   0.215   6.450   1.987 -1.4164 -0.2811 -2.5882
 3165SOL    HW210339   0.356   6.433   1.933 -0.2258 -0.1149  0.2887
 3166SOL     OW10340   0.210   1.596   0.271 -0.2793  0.3885 -0.1810
 3166SOL    HW110341   0.234   1.514   0.315  0.7212  0.3983 -0.6709
 3166SOL    HW210342   0.115   1.593   0.265 -0.2129 -1.2878 -1.1956
 3167SOL     OW10343   5.493   6.677   3.579  0.2835  0.4684 -0.2429
 3167SOL    HW110344   5.429   6.744   3.556 -1.1994 -0.4712  0.9954
 3167SOL    HW210345   5.529   6.649   3.495 -0.5065  1.4256 -0.9228
 3168SOL     OW10346   8.146   0.845   2.363 -0.4107 -0.0467  0.5405
 3168SOL    HW110347   8.088   0.812   2.294 -0.8405 -0.5595  1.1387
 3168SOL    HW210348   8.218   0.783   2.366  0.6265  1.0266 -0.7589
 3169SOL     OW10349   2.875   7.811   2.586  0.4591 -0.6896  0.3806
 3169SOL    HW110350   2.791   7.780   2.619  0.4816 -1.5171 -0.3161
 3169SOL    HW210351   2.940   7.772   2.645  0.5283 -2.5407 -0.8508
 3170SOL     OW10352   5.801   3.669   6.543  0.6665 -0.5700 -0.0640
 3170SOL    HW110353   5.796   3.591   6.487  2.0674 -0.7126 -0.0187
 3170SOL    HW210354   5.893   3.676   6.566  0.4122  0.6057  0.6664
 3171SOL     OW10355   1.709   4.069   0.660 -0.2474  0.0596  0.2498
 3171SOL    HW110356   1.776   4.085   0.593  0.0870  1.1859  0.8140
 3171SOL    HW210357   1.718   3.977   0.682  0.7293  0.0618 -0.1037
 3172SOL     OW10358   3.008   3.000   3.659  0.2635  0.4045 -0.0983
 3172SOL    HW110359   2.999   3.066   3.728  0.5836  0.5038 -0.1497
 3172SOL    HW210360   2.974   3.044   3.580 -0.9012  0.0013  0.1581
 3173SOL     OW10361   2.114   3.349   0.598  0.4066  1.1827  0.0362
 3173SOL    HW110362   2.203   3.331   0.629  0.6483 -1.3165 -1.8436
 3173SOL    HW210363   2.115   3.328   0.505 -1.9934  1.7995 -0.2110
 3174SOL     OW10364   4.071   4.215   0.221 -0.7895  0.2028  0.3080
 3174SOL    HW110365   4.071   4.247   0.131  1.1402 -0.7903 -0.1095
 3174SOL    HW210366   4.100   4.124   0.214 -1.3111 -0.1133  1.8782
 3175SOL     OW10367   6.524   4.598   1.727  0.3086 -0.2830  0.0704
 3175SOL    HW110368   6.547   4.691   1.719  0.7779 -0.4797 -1.0161
 3175SOL    HW210369   6.429   4.597   1.726  0.3058  0.1621 -0.2227
 3176SOL     OW10370   4.358   1.577   0.156  1.0370  0.2848  0.0518
 3176SOL    HW110371   4.424   1.514   0.183  1.3945  0.7778  0.3601
 3176SOL    HW210372   4.283   1.525   0.130  1.0434 -0.2431  1.0536
 3177SOL     OW10373   5.308   7.286   2.116 -0.0564 -0.0003 -0.2110
 3177SOL    HW110374   5.246   7.267   2.187  0.1759  0.7895  0.2155
 3177SOL    HW210375   5.315   7.381   2.115 -0.1757  0.0107 -1.4143
 3178SOL     OW10376   6.030   7.052   6.703 -0.6031  0.0376 -0.1080
 3178SOL    HW110377   5.954   7.004   6.671  0.3016 -1.4323 -0.1550
 3178SOL    HW210378   6.011   7.067   6.796 -1.6192  1.1083 -0.4529
 3179SOL     OW10379   1.792   0.140   7.970 -0.0871  0.5694 -0.0750
 3179SOL    HW110380   1.697   0.134   7.959 -0.0546  0.3713 -0.2711
 3179SOL    HW210381   1.805   0.208   8.036 -0.3232  1.2841 -0.7487
 3180SOL     OW10382   0.957   5.513   4.488 -0.4202  0.0717 -0.5666
 3180SOL    HW110383   0.932   5.469   4.570  1.2589 -1.2928 -0.7167
 3180SOL    HW210384   0.916   5.460   4.419  2.1443 -1.7994 -0.7811
 3181SOL     OW10385   5.358   0.801   0.588 -0.3537 -0.3586  0.0151
 3181SOL    HW110386   5.322   0.859   0.656 -2.6501 -0.0850 -1.3240
 3181SOL    HW210387   5.452   0.797   0.607 -0.3855  2.3522  1.2244
 3182SOL     OW10388   7.922   1.845   1.583 -0.0184 -0.2067  0.5508
 3182SOL    HW110389   7.972   1.923   1.559  1.8425 -1.4397  0.2179
 3182SOL    HW210390   7.960   1.817   1.666  0.6025 -1.7809 -0.2433
 3183SOL     OW10391   7.359   1.134   3.301  0.3623 -0.2791 -0.2771
 3183SOL    HW110392   7.297   1.082   3.251  0.0967 -0.0661 -0.1688
 3183SOL    HW210393   7.338   1.225   3.280  0.7266 -0.2091 -0.3466
 3184SOL     OW10394   1.305   6.363   8.103 -0.4314  0.5360  0.0006
 3184SOL    HW110395   1.332   6.310   8.028 -0.6014  0.6618 -0.1502
 3184SOL    HW210396   1.274   6.299   8.167 -1.1549  0.4773 -0.3893
 3185SOL     OW10397   7.144   8.125   1.429 -0.4574 -0.1444 -0.1773
 3185SOL    HW110398   7.087   8.059   1.467  0.9140 -1.7682 -0.8451
 3185SOL    HW210399   7.140   8.198   1.491 -0.9649 -1.3661  1.2954
 3186SOL     OW10400   5.318   4.016   2.706 -0.7983  0.0965  0.0963
 3186SOL    HW110401   5.299   4.110   2.716 -1.3752  0.1136 -1.0050
 3186SOL    HW210402   5.371   4.011   2.626  0.2977 -0.3979  0.8375
 3187SOL     OW10403   4.807   4.599   0.420 -0.0180 -0.6953 -0.4860
 3187SOL    HW110404   4.729   4.647   0.393  0.7035  0.4223 -0.6752
 3187SOL    HW210405   4.821   4.626   0.511  0.3566 -0.5783 -0.5746
 3188SOL     OW10406   3.810   4.022   7.300  0.1463  0.4329 -0.2422
 3188SOL    HW110407   3.865   3.950   7.269  0.2774  1.3047 -2.1411
 3188SOL    HW210408   3.809   4.011   7.396  0.4972 -1.8123 -0.4373
 3189SOL     OW10409   1.274   2.517   6.263  0.2665  0.0801 -0.1715
 3189SOL    HW110410   1.257   2.497   6.171 -2.9952 -0.2342  0.3733
 3189SOL    HW210411   1.320   2.439   6.296  2.3556  0.5969 -1.6677
 3190SOL     OW10412   5.239   3.919   3.114  0.3847  0.2511  0.3787
 3190SOL    HW110413   5.192   3.912   3.197 -1.8860 -0.5946 -0.8657
 3190SOL    HW210414   5.299   3.844   3.114 -0.1583 -0.1944  0.9333
 3191SOL     OW10415   4.748   6.641   0.434 -0.4345  0.4346  0.3906
 3191SOL    HW110416   4.797   6.561   0.453 -1.8282 -0.3789  0.6767
 3191SOL    HW210417   4.658   6.612   0.419 -0.6708  1.7709 -1.1211
 3192SOL     OW10418   5.875   2.161   3.368 -0.0799  0.6193  0.0624
 3192SOL    HW110419   5.883   2.250   3.403  1.5762  0.4279  0.2524
 3192SOL    HW210420   5.953   2.149   3.314  0.0400 -0.9331  0.5297
 3193SOL     OW10421   4.829   7.622   0.814 -0.2653 -0.9793 -0.1660
 3193SOL    HW110422   4.859   7.705   0.850  0.2631 -1.4420  0.4748
 3193SOL    HW210423   4.734   7.626   0.820 -0.2402 -0.4448 -0.0921
 3194SOL     OW10424   7.455   3.644   2.666 -0.3954 -0.0771 -0.5335
 3194SOL    HW110425   7.450   3.723   2.720  0.9122 -0.0338 -0.4454
 3194SOL    HW210426   7.393   3.584   2.707  1.5997 -0.6018  2.0362
 3195SOL     OW10427   2.736   2.804   5.269  0.3656  0.4410 -0.0620
 3195SOL    HW110428   2.744   2.712   5.242 -2.2047  0.4860 -1.2933
 3195SOL    HW210429   2.646   2.812   5.299  1.2357  2.0401  2.4380
 3196SOL     OW10430   3.634   7.917   7.278 -0.0985  0.0039  0.0462
 3196SOL    HW110431   3.569   7.875   7.221 -0.3536  0.9960 -0.4031
 3196SOL    HW210432   3.673   7.985   7.223  0.5362  0.1509  0.6726
 3197SOL     OW10433   7.057   3.713   5.589  0.0130  0.4890 -0.0103
 3197SOL    HW110434   7.098   3.676   5.510  3.2254  1.6798  0.9170
 3197SOL    HW210435   7.003   3.642   5.624 -0.0947 -0.6570 -2.3165
 3198SOL     OW10436   0.870   2.626   0.089 -0.3379  0.1532 -0.2843
 3198SOL    HW110437   0.818   2.700   0.058 -0.7555  0.5139  1.1599
 3198SOL    HW210438   0.932   2.665   0.151  1.7518 -0.2682 -2.0298
 3199SOL     OW10439   1.708   5.854   2.608  0.2104 -0.1190  0.2394
 3199SOL    HW110440   1.778   5.813   2.557  0.5069  0.5455  0.1130
 3199SOL    HW210441   1.753   5.895   2.682  0.0867  1.2205 -0.4033
 3200SOL     OW10442   7.790   5.449   2.801 -0.0032 -0.8533 -0.4128
 3200SOL    HW110443   7.706   5.414   2.773 -0.5982  1.1943 -1.3312
 3200SOL    HW210444   7.792   5.434   2.896 -2.3674  0.9174 -0.0110
 3201SOL     OW10445   4.631   3.787   2.332  0.2967  0.8905  0.1091
 3201SOL    HW110446   4.577   3.787   2.411  1.9506 -2.2009  1.3971
 3201SOL    HW210447   4.576   3.745   2.265  0.4389 -0.5690  0.8921
 3202SOL     OW10448   2.309   0.586   7.178  0.7056  0.6381 -0.9072
 3202SOL    HW110449   2.283   0.674   7.204 -0.6952  0.3895 -1.3823
 3202SOL    HW210450   2.227   0.536   7.178  1.2799 -0.3480 -1.8645
 3203SOL     OW10451   6.236   0.679   8.156 -0.2003  0.1557  0.1811
 3203SOL    HW110452   6.284   0.670   8.238  0.7453  1.4480 -0.2023
 3203SOL    HW210453   6.186   0.760   8.165  0.6694  0.8447 -0.8567
 3204SOL     OW10454   5.338   3.238   0.879 -0.1694 -0.1995  0.3637
 3204SOL    HW110455   5.272   3.169   0.891  1.3700 -1.6564  0.8607
 3204SOL    HW210456   5.339   3.254   0.785 -0.7932 -0.6104  0.2809
 3205SOL     OW10457   0.385   5.376   4.199  0.3923  0.2151  0.6319
 3205SOL    HW110458   0.414   5.304   4.256 -1.0185 -1.0133 -0.1347
 3205SOL    HW210459   0.289   5.373   4.204  0.1711 -0.5076 -2.4250
 3206SOL     OW10460   0.032   7.750   6.162  0.3531 -0.1190  0.5098
 3206SOL    HW110461   0.121   7.769   6.132  0.0478  0.1904 -0.2531
 3206SOL    HW210462  -0.007   7.837   6.174 -0.9062 -0.1410 -2.5134
 3207SOL     OW10463   5.301   0.980   5.290  0.3207  0.0959 -0.2982
 3207SOL    HW110464   5.315   1.073   5.303  0.7960 -0.0231  0.0971
 3207SOL    HW210465   5.388   0.945   5.272  0.5015 -0.5921  1.6911
 3208SOL     OW10466   2.990   2.179   7.109 -0.7741  0.1243 -0.0489
 3208SOL    HW110467   3.016   2.123   7.035 -0.4819 -0.9758  0.8508
 3208SOL    HW210468   3.059   2.166   7.174 -0.8078  1.4035  0.2670
 3209SOL     OW10469   8.136   2.308   5.912  0.0920  0.0569  0.9464
 3209SOL    HW110470   8.098   2.306   5.824  0.8752  1.6834  0.5411
 3209SOL    HW210471   8.229   2.290   5.899  0.1883  0.1599  1.4577
 3210SOL     OW10472   6.578   4.568   4.117 -0.1513 -0.0070 -0.2135
 3210SOL    HW110473   6.496   4.616   4.132  0.4950  0.9834  0.2815
 3210SOL    HW210474   6.646   4.630   4.144  0.8584 -0.0541 -2.5074
 3211SOL     OW10475   5.637   7.036   0.099 -0.4984 -0.3944  0.1350
 3211SOL    HW110476   5.710   7.033   0.161 -0.0812 -1.8877 -0.3904
 3211SOL    HW210477   5.563   6.999   0.147 -0.4010 -0.7155  0.0419
 3212SOL     OW10478   3.387   4.543   5.683  0.3669 -0.6360  0.5542
 3212SOL    HW110479   3.360   4.633   5.704 -1.1898 -1.4180  2.1952
 3212SOL    HW210480   3.343   4.524   5.600  0.3459 -0.0404  0.4233
 3213SOL     OW10481   6.075   5.616   0.687  0.8908  1.0224 -0.9788
 3213SOL    HW110482   5.979   5.615   0.688  0.8550 -0.1565 -2.4843
 3213SOL    HW210483   6.100   5.526   0.667  2.3144  1.3557 -0.7903
 3214SOL     OW10484   6.471   7.356   0.106  0.1968 -0.3081 -0.0292
 3214SOL    HW110485   6.463   7.379   0.013 -0.0211  1.1496  0.3314
 3214SOL    HW210486   6.409   7.284   0.118 -1.3605  0.8866 -0.5719
 3215SOL     OW10487   4.944   2.961   5.081  0.2820 -0.0585  0.9298
 3215SOL    HW110488   4.850   2.978   5.069 -0.4081 -4.2911 -1.5481
 3215SOL    HW210489   4.985   3.012   5.011 -0.4845 -0.3163  0.2690
 3216SOL     OW10490   2.536   6.943   5.228 -0.1658  0.3161  0.1581
 3216SOL    HW110491   2.484   6.909   5.300 -0.7627  0.7500 -0.0562
 3216SOL    HW210492   2.619   6.970   5.268 -0.3269  0.1522  0.6038
 3217SOL     OW10493   4.958   4.423   1.277  0.4547  0.2962 -0.3974
 3217SOL    HW110494   4.868   4.392   1.264  0.6649 -0.4189 -0.2072
 3217SOL    HW210495   5.007   4.345   1.303  1.1189  0.6936 -0.4204
 3218SOL     OW10496   7.266   2.418   2.055 -0.2419 -0.4733 -0.2350
 3218SOL    HW110497   7.226   2.425   1.968 -0.5184  1.3576  0.0183
 3218SOL    HW210498   7.341   2.477   2.052 -0.2997 -0.3280  0.8075
 3219SOL     OW10499   1.543   4.036   1.251 -0.6584 -0.3507 -0.1772
 3219SOL    HW110500   1.591   3.954   1.266 -1.7514 -0.8378  0.8511
 3219SOL    HW210501   1.593   4.081   1.183 -0.1049 -1.9392 -0.8719
 3220SOL     OW10502   4.306   6.192   3.143 -0.0564  0.3125 -0.7067
 3220SOL    HW110503   4.339   6.148   3.221 -0.8895 -2.8610 -1.9847
 3220SOL    HW210504   4.309   6.286   3.165  2.3043 -0.2557  2.0501
 3221SOL     OW10505   2.146   1.698   4.125 -0.0072  0.3439  0.4913
 3221SOL    HW110506   2.098   1.666   4.049 -1.9105  0.1965  1.6873
 3221SOL    HW210507   2.230   1.727   4.090 -0.1645 -1.2941 -1.3886
 3222SOL     OW10508   5.471   6.529   6.166  0.4082  0.0545  0.5433
 3222SOL    HW110509   5.556   6.573   6.160 -0.1833  1.1939  0.0103
 3222SOL    HW210510   5.453   6.500   6.077  1.2313 -2.2211  1.0644
 3223SOL     OW10511   1.652   0.749   0.368  0.0150 -0.1219 -0.4445
 3223SOL    HW110512   1.579   0.802   0.334  2.2397  2.7750 -1.0590
 3223SOL    HW210513   1.670   0.685   0.298 -0.6950  0.3833 -1.1066
 3224SOL     OW10514   4.239   2.583   6.659  0.3253 -0.1071  0.2795
 3224SOL    HW110515   4.190   2.531   6.723 -0.1891  0.4970  0.4012
 3224SOL    HW210516   4.181   2.657   6.640  1.9894  1.7469  1.9693
 3225SOL     OW10517   3.791   6.171   0.591  0.4730  0.1752 -0.7150
 3225SOL    HW110518   3.711   6.187   0.640  1.2357  0.6915  0.4163
 3225SOL    HW210519   3.763   6.127   0.511 -0.8042 -0.8477  0.2619
 3226SOL     OW10520   4.253   1.067   5.946 -0.1814 -0.4542  0.0627
 3226SOL    HW110521   4.271   1.135   5.881 -1.6677 -0.5734 -0.5180
 3226SOL    HW210522   4.298   1.096   6.025  1.0023  0.1002 -0.7828
 3227SOL     OW10523   3.256   5.098   5.413  0.2494  0.5220 -0.1427
 3227SOL    HW110524   3.252   5.083   5.319 -0.2869  2.3481 -0.4527
 3227SOL    HW210525   3.165   5.093   5.441  0.4025  0.0428  0.2892
 3228SOL     OW10526   3.058   4.802   7.143 -0.1375  0.1723 -0.1030
 3228SOL    HW110527   2.978   4.750   7.143 -1.3981  2.0151  0.4335
 3228SOL    HW210528   3.055   4.850   7.060  0.6821 -0.1197 -0.3098
 3229SOL     OW10529   4.875   1.241   4.387  0.3838  0.8424  0.0251
 3229SOL    HW110530   4.915   1.294   4.456  0.3172  0.8800  0.0360
 3229SOL    HW210531   4.939   1.173   4.367 -0.5234 -0.5992  1.7648
 3230SOL     OW10532   3.618   6.070   3.103 -0.4902  0.2976 -0.0127
 3230SOL    HW110533   3.618   5.997   3.041 -0.0201 -0.8210  1.2554
 3230SOL    HW210534   3.588   6.145   3.052 -3.4023 -1.2472 -0.7743
 3231SOL     OW10535   7.783   4.098   6.052 -0.2700 -0.0844 -0.4113
 3231SOL    HW110536   7.813   4.189   6.044  0.8864 -0.5102 -1.1232
 3231SOL    HW210537   7.764   4.071   5.962  1.0236 -1.0604 -0.4177
 3232SOL     OW10538   4.598   0.764   1.998  0.0854 -0.2458  1.3039
 3232SOL    HW110539   4.609   0.671   1.979 -0.1570 -0.1691  0.7954
 3232SOL    HW210540   4.652   0.809   1.933 -0.2161 -0.0102  1.2170
 3233SOL     OW10541   4.830   7.174   7.867  0.1670 -0.1491 -0.0112
 3233SOL    HW110542   4.828   7.247   7.929 -1.4958  2.6207 -3.0309
 3233SOL    HW210543   4.921   7.172   7.836  0.3525  0.2743  0.4850
 3234SOL     OW10544   3.841   2.327   4.962 -0.0692 -0.0166  0.4708
 3234SOL    HW110545   3.754   2.293   4.941  0.4763 -1.4079  0.3558
 3234SOL    HW210546   3.828   2.421   4.975 -1.4159 -0.0379 -0.5282
 3235SOL     OW10547   2.799   3.545   6.982 -0.1354 -0.3589 -0.2482
 3235SOL    HW110548   2.816   3.639   6.987 -0.1366 -0.3169 -0.9240
 3235SOL    HW210549   2.836   3.518   6.898 -0.6223 -0.8597 -0.3122
 3236SOL     OW10550   6.415   6.503   7.158  0.2788  0.1845 -0.5599
 3236SOL    HW110551   6.326   6.499   7.124  0.4602  0.1391 -1.0423
 3236SOL    HW210552   6.470   6.507   7.080  0.7249 -0.2799 -0.2763
 3237SOL     OW10553   1.835   4.075   5.871  0.2302 -0.4945  0.3220
 3237SOL    HW110554   1.922   4.075   5.831  0.1506  0.1132  0.1429
 3237SOL    HW210555   1.778   4.037   5.805 -0.0771  1.4045 -0.5628
 3238SOL     OW10556   2.342   4.283   3.005  0.0872 -0.4843 -0.0083
 3238SOL    HW110557   2.296   4.202   2.980  0.4506 -1.0060  0.9707
 3238SOL    HW210558   2.300   4.351   2.953 -2.8948 -0.6503  1.9666
 3239SOL     OW10559   0.977   6.461   1.881 -0.1846 -0.0942  0.2389
 3239SOL    HW110560   0.969   6.371   1.913  2.2652 -0.4356  0.0720
 3239SOL    HW210561   1.009   6.511   1.956  1.6137 -0.0509 -0.5245
 3240SOL     OW10562   0.374   1.902   6.924 -0.6475  0.3072  0.5743
 3240SOL    HW110563   0.445   1.920   6.985  0.0114 -1.0532  0.2457
 3240SOL    HW210564   0.359   1.986   6.880  0.7593  0.6259  0.6517
 3241SOL     OW10565   1.236   6.067   8.021  0.3732 -0.2773  0.2740
 3241SOL    HW110566   1.163   6.051   7.960 -0.8557  0.4769  1.4974
 3241SOL    HW210567   1.242   5.987   8.073  0.3309 -0.2833  0.2699
 3242SOL     OW10568   5.525   4.735   0.940  0.4574 -0.4673  0.2584
 3242SOL    HW110569   5.469   4.762   1.013  1.4450 -0.3891  1.0256
 3242SOL    HW210570   5.467   4.732   0.864 -0.3870  0.4782  0.8349
 3243SOL     OW10571   3.891   4.602   3.050  0.1447 -0.5496 -0.0341
 3243SOL    HW110572   3.900   4.693   3.076  3.6860  0.0453 -2.5400
 3243SOL    HW210573   3.797   4.587   3.044 -0.5536  2.9693  0.3324
 3244SOL     OW10574   6.682   1.143   7.060 -0.0040 -0.3286 -0.0010
 3244SOL    HW110575   6.760   1.180   7.101 -0.2953 -1.3557  1.5889
 3244SOL    HW210576   6.694   1.158   6.967  1.3050  0.9971  0.3492
 3245SOL     OW10577   7.273   0.692   3.885 -0.3746 -0.5236 -0.3013
 3245SOL    HW110578   7.349   0.688   3.942  0.0624 -0.2354 -0.8443
 3245SOL    HW210579   7.279   0.779   3.843 -0.2825 -0.9957 -1.3060
 3246SOL     OW10580   0.804   6.102   7.993 -0.8758 -0.3614 -0.4859
 3246SOL    HW110581   0.885   6.119   7.945 -0.6458 -1.2482 -0.4186
 3246SOL    HW210582   0.798   6.174   8.056  0.3087 -0.7710  0.1071
 3247SOL     OW10583   2.780   1.135   4.560 -0.3298  0.1220  0.2129
 3247SOL    HW110584   2.773   1.149   4.654 -1.6300 -0.0442  0.1643
 3247SOL    HW210585   2.751   1.217   4.521  0.3455  0.2423 -0.0500
 3248SOL     OW10586   7.174   5.064   0.621 -0.1785 -0.4173  0.0281
 3248SOL    HW110587   7.155   5.003   0.551  2.0564  0.6356 -1.6397
 3248SOL    HW210588   7.187   5.009   0.699 -0.6584 -1.7980 -0.8394
 3249SOL     OW10589   0.668   4.874   3.618  0.4299 -0.0980 -0.2161
 3249SOL    HW110590   0.617   4.951   3.643  2.4260  1.0360  0.6411
 3249SOL    HW210591   0.695   4.835   3.701  1.6280 -0.1628 -0.6180
 3250SOL     OW10592   0.135   3.374   4.997  0.7183 -0.4410 -0.2822
 3250SOL    HW110593   0.044   3.374   5.027  0.7211 -0.4274 -0.2733
 3250SOL    HW210594   0.135   3.431   4.920  1.3381  2.2640  1.5990
 3251SOL     OW10595   3.329   3.744   4.874 -0.4509 -0.3279 -0.3813
 3251SOL    HW110596   3.303   3.653   4.887 -0.0096 -0.2227  1.4522
 3251SOL    HW210597   3.398   3.740   4.808 -0.7176 -1.2710 -0.6198
 3252SOL     OW10598   1.648   6.340   3.706  0.5627 -0.5080  0.1360
 3252SOL    HW110599   1.720   6.392   3.669  0.3500 -0.7267 -0.5940
 3252SOL    HW210600   1.633   6.271   3.641 -0.4546 -0.3375  0.1891
 3253SOL     OW10601   0.659   7.353   0.037 -0.1894  0.0342 -0.2174
 3253SOL    HW110602   0.720   7.426   0.045 -0.4725  0.1337  1.3272
 3253SOL    HW210603   0.684   7.293   0.107  0.2719 -1.5666 -1.6789
 3254SOL     OW10604   7.265   0.366   2.241 -0.3157 -0.3416 -0.5727
 3254SOL    HW110605   7.207   0.290   2.235 -0.6349  0.0465 -3.5580
 3254SOL    HW210606   7.349   0.329   2.270 -1.1379 -1.3955  0.6012
 3255SOL     OW10607   2.838   7.889   4.358 -0.1720  0.1250  0.2419
 3255SOL    HW110608   2.860   7.801   4.389  0.2432  1.1141  2.9320
 3255SOL    HW210609   2.793   7.873   4.274 -0.6262 -2.6742  0.9028
 3256SOL     OW10610   2.473   6.024   0.369 -0.3859  0.4796  0.5691
 3256SOL    HW110611   2.535   6.054   0.303 -1.1186 -1.7022 -1.2570
 3256SOL    HW210612   2.516   5.950   0.411  0.1191  1.9094  2.7490
 3257SOL     OW10613   4.006   3.471   2.590  0.2215 -0.6461  0.1298
 3257SOL    HW110614   3.934   3.532   2.571  0.5507 -0.6694 -1.3071
 3257SOL    HW210615   4.058   3.516   2.657  0.0472  0.3270 -0.3715
 3258SOL     OW10616   6.168   6.435   3.531  0.4097  0.6162 -0.3604
 3258SOL    HW110617   6.114   6.454   3.455  0.8258  0.4859 -0.6929
 3258SOL    HW210618   6.109   6.392   3.593  0.2792 -0.0861 -0.9634
 3259SOL     OW10619   4.203   2.595   5.454  0.5446  0.4194 -0.0991
 3259SOL    HW110620   4.196   2.663   5.387  0.1807  0.0073 -0.4886
 3259SOL    HW210621   4.265   2.630   5.518  0.5796  0.9922 -0.4418
 3260SOL     OW10622   7.316   3.924   8.174 -0.2145 -0.5926  0.6495
 3260SOL    HW110623   7.325   3.834   8.204  0.3300 -0.7498  0.0327
 3260SOL    HW210624   7.370   3.929   8.095 -2.9632 -0.6921 -1.3943
 3261SOL     OW10625   7.705   2.140   7.939  0.1831  0.2970 -0.3129
 3261SOL    HW110626   7.774   2.128   8.005 -0.7345 -2.0540  0.3318
 3261SOL    HW210627   7.643   2.070   7.958 -2.9773  2.9171 -0.1621
 3262SOL     OW10628   7.769   4.044   6.557  0.2147 -0.1192  0.1251
 3262SOL    HW110629   7.823   3.986   6.503 -0.9633 -0.3238 -0.9015
 3262SOL    HW210630   7.717   3.985   6.612 -0.8577 -0.0753 -0.7947
 3263SOL     OW10631   6.336   1.295   2.692  0.0365 -0.4774  0.1767
 3263SOL    HW110632   6.316   1.324   2.781  1.3996  0.4731  0.1967
 3263SOL    HW210633   6.318   1.371   2.637  0.1793 -0.7361 -0.2339
 3264SOL     OW10634   2.793   4.553   0.821 -0.4482 -0.3545 -0.5296
 3264SOL    HW110635   2.883   4.522   0.833  0.4521  1.3419 -2.2050
 3264SOL    HW210636   2.757   4.497   0.752 -1.0941 -1.7445  0.9011
 3265SOL     OW10637   0.207   3.549   4.773  0.5542  0.5814  0.5081
 3265SOL    HW110638   0.301   3.532   4.765  0.2022 -1.0534 -0.6867
 3265SOL    HW210639   0.166   3.483   4.716 -1.4112  0.1950  2.2616
 3266SOL     OW10640   6.308   0.322   3.536 -0.0678 -1.0895 -0.2767
 3266SOL    HW110641   6.292   0.315   3.630 -1.6937 -0.4135 -0.4547
 3266SOL    HW210642   6.402   0.313   3.526  0.5206  1.6440  1.7234
 3267SOL     OW10643   7.796   6.746   3.283 -0.1484 -0.5387  0.5181
 3267SOL    HW110644   7.778   6.652   3.282 -0.5236 -0.4674  0.0463
 3267SOL    HW210645   7.756   6.778   3.202 -2.5244  0.4747  1.9781
 3268SOL     OW10646   2.440   0.442   6.987  0.2524 -0.0601  0.2160
 3268SOL    HW110647   2.394   0.500   7.047 -0.4415  0.3639 -0.6967
 3268SOL    HW210648   2.410   0.354   7.010  0.8304 -0.0181  1.1913
 3269SOL     OW10649   7.187   1.221   5.948 -0.1895 -0.2658 -1.1748
 3269SOL    HW110650   7.237   1.159   6.002 -0.7746  0.1007 -0.1699
 3269SOL    HW210651   7.107   1.174   5.927 -0.8129  0.2572 -0.0725
 3270SOL     OW10652   5.482   2.992   3.202 -0.1842  0.2887 -0.2376
 3270SOL    HW110653   5.458   2.965   3.113 -0.8246  1.1981 -0.3612
 3270SOL    HW210654   5.574   3.018   3.195  0.3351 -1.4171 -0.1963
 3271SOL     OW10655   6.021   3.028   4.892  0.2089 -0.0009 -0.1938
 3271SOL    HW110656   5.996   3.024   4.985  0.8188 -0.7886 -0.0533
 3271SOL    HW210657   5.943   3.059   4.848  0.0890  0.9563  0.6581
 3272SOL     OW10658   6.149   7.822   4.804 -0.2738  0.1068  0.1658
 3272SOL    HW110659   6.080   7.778   4.755  0.4565 -0.3320 -0.4887
 3272SOL    HW210660   6.125   7.809   4.895 -1.4006  0.5210 -0.0516
 3273SOL     OW10661   1.861   5.991   2.792  0.5234  0.0071  0.4569
 3273SOL    HW110662   1.854   6.042   2.872 -0.8517 -0.0999  0.4305
 3273SOL    HW210663   1.955   5.978   2.779  0.8334  1.4312  1.1437
 3274SOL     OW10664   7.977   1.755   7.920 -0.1661  0.1394  0.2056
 3274SOL    HW110665   8.005   1.714   7.838 -1.6053 -1.9563  0.6777
 3274SOL    HW210666   7.903   1.702   7.949 -0.9307  2.0131  1.8821
 3275SOL     OW10667   2.244   6.284   0.840 -0.0495  0.1807 -0.4663
 3275SOL    HW110668   2.234   6.255   0.931  0.2004  0.0660 -0.4753
 3275SOL    HW210669   2.172   6.346   0.827  0.5469  1.0318  0.1593
 3276SOL     OW10670   3.720   4.420   5.137 -0.3752 -0.0082  0.3583
 3276SOL    HW110671   3.727   4.330   5.168 -0.1185 -0.6271 -1.3679
 3276SOL    HW210672   3.797   4.464   5.173 -0.0658 -0.6938  0.5549
 3277SOL     OW10673   2.464   2.797   7.201 -0.5246 -0.2429  0.7213
 3277SOL    HW110674   2.558   2.806   7.213 -0.0860  0.0375 -2.3162
 3277SOL    HW210675   2.448   2.703   7.204  0.1958 -0.4303 -0.6339
 3278SOL     OW10676   2.774   5.581   6.052  0.4334 -0.2911 -0.1415
 3278SOL    HW110677   2.683   5.604   6.072  0.4021 -0.7263  0.2273
 3278SOL    HW210678   2.770   5.492   6.018  0.7281 -0.3234 -0.0970
 3279SOL     OW10679   3.675   3.835   4.936 -0.0872  0.0430  0.3325
 3279SOL    HW110680   3.658   3.824   4.842  0.5934  0.4830  0.1569
 3279SOL    HW210681   3.632   3.760   4.976 -1.8577  0.7157 -0.1615
 3280SOL     OW10682   5.891   6.379   7.381  0.0610 -0.8279 -0.0126
 3280SOL    HW110683   5.811   6.402   7.428 -0.6165 -1.4555 -0.8399
 3280SOL    HW210684   5.911   6.290   7.409  1.2852 -0.2040  1.2633
 3281SOL     OW10685   7.971   3.412   2.696  0.5282 -0.1044  0.1690
 3281SOL    HW110686   7.972   3.356   2.774  0.8872  0.7266  0.7656
 3281SOL    HW210687   7.885   3.395   2.656  0.7981 -1.4029  0.0926
 3282SOL     OW10688   7.660   2.678   6.230  0.1353  0.5497  0.3142
 3282SOL    HW110689   7.611   2.599   6.209 -0.6638  0.9314  0.6876
 3282SOL    HW210690   7.637   2.740   6.161  1.2348  0.2796 -0.3224
 3283SOL     OW10691   0.983   4.387   0.032 -0.5216 -0.0583  0.1819
 3283SOL    HW110692   1.045   4.340   0.088 -1.0134 -0.8129  0.0988
 3283SOL    HW210693   0.960   4.325  -0.036 -0.4063  0.6503 -0.5204
 3284SOL     OW10694   4.318   6.516   2.887 -0.3612  0.1588  0.1894
 3284SOL    HW110695   4.330   6.423   2.870  1.9632  0.7110 -1.8016
 3284SOL    HW210696   4.229   6.523   2.920 -0.8137 -2.6796 -0.1593
 3285SOL     OW10697   4.115   7.911   5.795  0.0312 -0.7104  0.1670
 3285SOL    HW110698   4.191   7.910   5.737 -0.8843  1.2770 -1.1739
 3285SOL    HW210699   4.046   7.870   5.743 -0.3922 -0.4043  0.4871
 3286SOL     OW10700   4.495   2.699   3.189  0.0692  0.0945 -0.3113
 3286SOL    HW110701   4.483   2.765   3.122 -0.3797  1.0642  0.6834
 3286SOL    HW210702   4.536   2.746   3.262 -0.9340 -0.5465  0.6925
 3287SOL     OW10703   3.135   3.712   1.241  0.4065  0.6131 -0.0545
 3287SOL    HW110704   3.129   3.806   1.259  0.8437  0.3213  1.7106
 3287SOL    HW210705   3.229   3.694   1.237  0.3396  0.0803  0.6261
 3288SOL     OW10706   6.271   7.168   2.086  0.6418  0.1435  0.0976
 3288SOL    HW110707   6.234   7.250   2.120  0.0742 -0.6331  1.4344
 3288SOL    HW210708   6.362   7.189   2.066  0.8947  0.7685  1.7485
 3289SOL     OW10709   2.672   2.063   1.653 -0.2576 -0.1085 -0.1077
 3289SOL    HW110710   2.607   2.088   1.718  0.5325  0.7832  0.3668
 3289SOL    HW210711   2.666   2.131   1.585 -0.3280 -0.4317 -0.4315
 3290SOL     OW10712   4.114   7.439   0.592 -0.0979  0.0332 -0.2419
 3290SOL    HW110713   4.132   7.358   0.641  0.7375  1.1260  1.3493
 3290SOL    HW210714   4.186   7.498   0.615 -1.9840  2.1264  0.7345
 3291SOL     OW10715   1.376   5.496   7.519 -0.3125  0.3607 -0.6430
 3291SOL    HW110716   1.367   5.585   7.553 -1.1031 -0.7104  2.2110
 3291SOL    HW210717   1.389   5.442   7.596  2.0741 -1.8470 -2.4156
 3292SOL     OW10718   6.980   6.003   7.554 -0.2211 -0.0511  0.1241
 3292SOL    HW110719   6.990   6.077   7.614 -0.1577 -0.1793  0.2737
 3292SOL    HW210720   6.935   5.936   7.607 -1.3210  0.2992 -0.3453
 3293SOL     OW10721   4.934   7.546   6.077  0.2965  0.2806 -0.4207
 3293SOL    HW110722   4.960   7.479   6.141 -1.7593 -0.8119 -0.6094
 3293SOL    HW210723   5.015   7.572   6.035  1.2531 -1.8639 -0.0766
 3294SOL     OW10724   2.492   4.659   7.004  0.2099 -0.0999 -0.4121
 3294SOL    HW110725   2.477   4.735   6.946 -0.5733 -0.2644 -0.4395
 3294SOL    HW210726   2.568   4.615   6.966 -0.2344 -0.1502 -1.2725
 3295SOL     OW10727   0.901   4.975   1.770  0.5633  0.4333  0.0837
 3295SOL    HW110728   0.883   5.063   1.736  2.1483  1.2954  1.3222
 3295SOL    HW210729   0.821   4.926   1.752 -0.7504  2.3951  0.2443
 3296SOL     OW10730   1.563   7.050   3.217  0.3264  0.5710  0.0633
 3296SOL    HW110731   1.616   6.992   3.271 -0.5919 -0.0936  0.2730
 3296SOL    HW210732   1.490   6.995   3.186  0.6230  1.0274 -1.5430
 3297SOL     OW10733   8.212   3.780   6.473 -0.1213 -0.4412  0.0415
 3297SOL    HW110734   8.305   3.785   6.495  0.1271 -0.3595 -0.9868
 3297SOL    HW210735   8.195   3.860   6.424 -0.5039 -0.9211 -0.6172
 3298SOL     OW10736   5.427   6.587   7.792  0.2439 -0.0423  0.0029
 3298SOL    HW110737   5.387   6.555   7.712 -2.1398  3.1066 -0.2558
 3298SOL    HW210738   5.361   6.571   7.860  0.9021  0.1585  0.7068
 3299SOL     OW10739   5.503   4.341   0.949 -0.4123 -0.1606  0.1826
 3299SOL    HW110740   5.471   4.283   1.018 -0.7973  1.0131  1.0336
 3299SOL    HW210741   5.464   4.426   0.970 -0.2138  0.3141 -1.2687
 3300SOL     OW10742   7.105   7.262   7.343 -0.2508  0.4400 -0.1285
 3300SOL    HW110743   7.106   7.358   7.339  1.2381  0.6003  2.1809
 3300SOL    HW210744   7.188   7.236   7.303 -0.3337  0.1518 -0.1143
 3301SOL     OW10745   6.099   8.208   2.860  0.3792  0.4165 -0.1128
 3301SOL    HW110746   6.048   8.278   2.901  0.0003  0.1742 -0.1628
 3301SOL    HW210747   6.070   8.209   2.769 -1.0002 -1.0084  0.2686
 3302SOL     OW10748   7.622   7.749   5.735 -0.1427  0.2052 -0.1156
 3302SOL    HW110749   7.605   7.700   5.654  0.4141  0.5080 -0.4148
 3302SOL    HW210750   7.677   7.822   5.708 -0.1405  0.4341  0.5034
 3303SOL     OW10751   3.710   5.246   0.353  0.7004  0.3373 -0.3667
 3303SOL    HW110752   3.795   5.224   0.391  1.1389  1.1323 -0.8464
 3303SOL    HW210753   3.706   5.342   0.359  0.1519  0.3571 -0.9867
 3304SOL     OW10754   6.839   1.118   1.742 -0.1354 -0.6085  0.3013
 3304SOL    HW110755   6.858   1.181   1.673 -2.1498 -0.7865 -0.4951
 3304SOL    HW210756   6.848   1.168   1.823  0.6775  0.0382 -0.1747
 3305SOL     OW10757   3.182   6.983   0.270  0.3176  0.2262 -0.9262
 3305SOL    HW110758   3.117   7.052   0.254  1.1271  0.6791 -2.4715
 3305SOL    HW210759   3.130   6.909   0.303 -0.6853  1.2655 -0.1145
 3306SOL     OW10760   3.631   0.695   3.508 -0.2167  0.0767 -0.1149
 3306SOL    HW110761   3.649   0.602   3.495  1.4821  0.1499  1.2411
 3306SOL    HW210762   3.601   0.701   3.599  2.3985  1.0972  0.7833
 3307SOL     OW10763   4.518   6.151   5.379 -0.1563  0.0989 -0.0353
 3307SOL    HW110764   4.443   6.092   5.388 -0.0252 -0.2069 -0.8696
 3307SOL    HW210765   4.552   6.134   5.291  1.1039 -0.0018  0.4561
 3308SOL     OW10766   2.956   3.367   2.340  0.4560  0.0030 -0.2882
 3308SOL    HW110767   3.039   3.400   2.373 -0.0806  0.2323  0.8948
 3308SOL    HW210768   2.950   3.278   2.377  0.6880 -0.4415 -1.2980
 3309SOL     OW10769   1.540   8.142   3.978 -0.2558  0.0655  0.1270
 3309SOL    HW110770   1.446   8.126   3.973 -0.3627  1.1073 -2.6887
 3309SOL    HW210771   1.579   8.055   3.969 -0.9240 -0.3097  0.7493
 3310SOL     OW10772   7.066   3.464   3.521  0.2441 -0.0480 -0.6074
 3310SOL    HW110773   7.154   3.432   3.502  0.9353  2.0169 -1.2183
 3310SOL    HW210774   7.078   3.522   3.597 -0.4662  0.7050 -1.0577
 3311SOL     OW10775   0.606   5.862   2.816 -0.2404 -0.7864 -0.6695
 3311SOL    HW110776   0.674   5.836   2.878 -1.4458 -1.1187  0.5699
 3311SOL    HW210777   0.564   5.779   2.790 -1.5244 -0.4596  0.2420
 3312SOL     OW10778   0.043   4.517   3.919 -0.5955 -0.0152  0.3818
 3312SOL    HW110779   0.060   4.446   3.981  0.1250 -0.5390 -0.3925
 3312SOL    HW210780   0.093   4.493   3.841 -0.8592  1.0255 -0.1232
 3313SOL     OW10781   4.276   7.278   1.916  0.0297 -0.3368 -0.2941
 3313SOL    HW110782   4.305   7.365   1.889 -1.5187 -0.5492 -3.1077
 3313SOL    HW210783   4.308   7.220   1.847 -2.0418 -1.3895 -0.4589
 3314SOL     OW10784   7.377   0.868   1.419 -0.3154 -0.2054 -0.2653
 3314SOL    HW110785   7.289   0.869   1.456  0.0132 -1.2433  0.5757
 3314SOL    HW210786   7.427   0.929   1.473  0.0740 -1.4499  0.8185
 3315SOL     OW10787   3.453   3.373   6.219 -1.0097 -0.2758 -0.0811
 3315SOL    HW110788   3.454   3.302   6.155  0.7555 -0.1536 -0.2204
 3315SOL    HW210789   3.495   3.447   6.176 -2.3420  0.7239  0.2535
 3316SOL     OW10790   7.668   1.403   6.076 -0.1857  0.9404 -0.2195
 3316SOL    HW110791   7.724   1.326   6.090  0.2475  0.7127 -2.8554
 3316SOL    HW210792   7.728   1.477   6.082  0.0571  0.8252 -1.1359
 3317SOL     OW10793   7.147   1.244   6.346  0.0732 -0.2509 -0.1152
 3317SOL    HW110794   7.141   1.337   6.326 -0.8193  0.2428  2.0682
 3317SOL    HW210795   7.227   1.235   6.397 -0.9098 -0.2088  1.5353
 3318SOL     OW10796   1.903   4.001   0.064  0.0270 -0.1181  0.4971
 3318SOL    HW110797   1.815   4.021   0.096  0.3472  2.0869  0.1134
 3318SOL    HW210798   1.950   3.969   0.141 -0.2963  1.5215  1.4210
 3319SOL     OW10799   7.998   7.434   0.555  0.0211 -0.5098  0.3477
 3319SOL    HW110800   7.909   7.431   0.518 -1.0221  0.0134  2.6539
 3319SOL    HW210801   8.016   7.344   0.580 -0.0702 -0.5211  0.3742
 3320SOL     OW10802   5.372   0.730   0.091 -0.1737 -0.1138 -0.0992
 3320SOL    HW110803   5.305   0.760   0.153 -1.2849 -1.1818 -0.7619
 3320SOL    HW210804   5.454   0.740   0.140 -0.9600 -0.4343  1.3615
 3321SOL     OW10805   1.877   4.206   6.582 -0.8869  0.0033  0.1729
 3321SOL    HW110806   1.794   4.219   6.628 -0.6775 -0.0144  0.5541
 3321SOL    HW210807   1.878   4.274   6.515 -2.7389 -1.9805 -2.0442
 3322SOL     OW10808   5.309   5.095   7.887  0.1790  0.6035 -0.0748
 3322SOL    HW110809   5.264   5.111   7.804  1.4127 -0.6933 -1.0517
 3322SOL    HW210810   5.370   5.024   7.868 -0.7600 -1.0053  2.4418
 3323SOL     OW10811   3.101   0.546   6.144 -0.6470  0.2897  0.2556
 3323SOL    HW110812   3.186   0.518   6.178  0.7298  2.9020 -0.7016
 3323SOL    HW210813   3.052   0.574   6.221 -0.0232  0.1897  0.6917
 3324SOL     OW10814   1.565   5.512   7.894 -0.0224 -0.1433 -0.1134
 3324SOL    HW110815   1.495   5.447   7.892 -0.0381 -0.1140 -1.2368
 3324SOL    HW210816   1.632   5.473   7.950 -0.0010 -1.1917 -0.8187
 3325SOL     OW10817   6.999   7.476   7.681  0.2739 -0.4176  0.2825
 3325SOL    HW110818   7.050   7.439   7.753 -0.5008 -0.4268  0.8301
 3325SOL    HW210819   6.930   7.526   7.723  0.6004  0.7060 -0.4444
 3326SOL     OW10820   0.093   7.289   7.451  0.2373 -0.4567 -0.5180
 3326SOL    HW110821   0.041   7.240   7.515  0.1755 -0.5511 -0.6402
 3326SOL    HW210822   0.091   7.235   7.372 -0.1141 -0.1022 -0.7614
 3327SOL     OW10823   0.617   2.035   6.485  0.7648  0.2807 -0.4582
 3327SOL    HW110824   0.636   2.022   6.577  0.9643  0.9740 -0.3955
 3327SOL    HW210825   0.684   1.986   6.438  0.4135 -0.4191 -0.2405
 3328SOL     OW10826   6.251   2.864   5.787  0.1171 -0.5094 -0.1936
 3328SOL    HW110827   6.321   2.816   5.741  1.0853 -1.8617  2.4544
 3328SOL    HW210828   6.208   2.797   5.840 -0.0431  1.1204  1.8537
 3329SOL     OW10829   0.889   7.821   1.380  0.0882  0.3198  0.6439
 3329SOL    HW110830   0.799   7.843   1.403 -0.5555 -1.2219 -0.2311
 3329SOL    HW210831   0.932   7.906   1.368 -1.0670  1.0888  1.6619
 3330SOL     OW10832   2.893   3.540   2.584 -0.6206 -0.0296  0.6293
 3330SOL    HW110833   2.854   3.454   2.601  0.2240 -0.5433  0.0257
 3330SOL    HW210834   2.880   3.554   2.490  1.2002 -0.5051  0.2800
 3331SOL     OW10835   4.672   6.117   6.745 -0.4135 -0.5210  0.4654
 3331SOL    HW110836   4.733   6.093   6.815  3.0604  1.4948 -1.5342
 3331SOL    HW210837   4.631   6.198   6.776  2.6278  1.5242 -0.3801
 3332SOL     OW10838   0.565   2.994   7.284 -0.2229  0.5839  0.1490
 3332SOL    HW110839   0.620   2.917   7.271  0.0989  0.9532 -0.8198
 3332SOL    HW210840   0.548   2.997   7.378  2.4684  1.1533  0.6842
 3333SOL     OW10841   1.620   1.031   2.411 -0.2056  0.4022  0.2184
 3333SOL    HW110842   1.627   0.977   2.489  1.1366 -1.3866 -1.0606
 3333SOL    HW210843   1.707   1.068   2.399  0.2323 -1.0791 -1.5648
 3334SOL     OW10844   4.183   4.406   3.559  0.1588  0.6106 -0.3596
 3334SOL    HW110845   4.209   4.353   3.634 -0.8501  1.5713  0.7111
 3334SOL    HW210846   4.089   4.422   3.572 -0.5695 -0.9304 -2.9237
 3335SOL     OW10847   1.366   8.177   3.097 -0.4611  0.1362 -0.5037
 3335SOL    HW110848   1.371   8.114   3.169  0.6608  0.7442 -0.0278
 3335SOL    HW210849   1.319   8.130   3.028 -3.6894  0.3003  1.3678
 3336SOL     OW10850   2.369   3.650   0.265  0.6160 -0.0027  0.3858
 3336SOL    HW110851   2.435   3.581   0.270  1.1138  0.5188  1.5008
 3336SOL    HW210852   2.351   3.672   0.357 -1.9247 -0.8861  0.1706
 3337SOL     OW10853   5.209   4.284   6.822  0.6375 -0.5148 -0.0226
 3337SOL    HW110854   5.165   4.356   6.777  0.3994 -1.6215 -1.6830
 3337SOL    HW210855   5.252   4.235   6.752 -0.1542 -2.6306  0.8644
 3338SOL     OW10856   6.285   6.164   4.860 -0.1874 -0.6205  0.6101
 3338SOL    HW110857   6.312   6.254   4.845  0.1959 -0.4426  2.1882
 3338SOL    HW210858   6.314   6.144   4.949 -1.2023 -1.9570  0.6862
 3339SOL     OW10859   0.014   6.689   2.903 -0.2494 -0.1114  0.0100
 3339SOL    HW110860  -0.054   6.686   2.970 -0.7337  0.6684 -0.4287
 3339SOL    HW210861  -0.020   6.635   2.831  0.0434 -0.5306  0.1806
 3340SOL     OW10862   6.043   7.875   4.333 -0.2598  0.4331  0.4384
 3340SOL    HW110863   6.108   7.805   4.326  1.3482  1.8445  0.7218
 3340SOL    HW210864   5.977   7.853   4.266  1.4503 -0.0717 -1.1806
 3341SOL     OW10865   0.069   7.605   5.221 -0.0540 -0.2579 -0.1015
 3341SOL    HW110866   0.084   7.567   5.135 -0.3662 -0.7890  0.0759
 3341SOL    HW210867   0.060   7.699   5.205 -1.1939 -0.4744 -0.7895
 3342SOL     OW10868   7.242   5.232   7.631  0.0844  0.2315  0.3593
 3342SOL    HW110869   7.335   5.257   7.632  0.2197 -0.1619 -1.1042
 3342SOL    HW210870   7.216   5.238   7.539 -0.7344 -1.8763  0.4051
 3343SOL     OW10871   2.471   5.816   6.425  0.2540  0.6150  0.1309
 3343SOL    HW110872   2.560   5.782   6.433 -0.3338 -0.9967  0.3711
 3343SOL    HW210873   2.425   5.779   6.501 -0.7884  0.7825 -0.3971
 3344SOL     OW10874   1.746   1.280   5.988  0.0227 -0.5128 -0.2421
 3344SOL    HW110875   1.704   1.317   6.065  1.9639 -0.1654  0.6967
 3344SOL    HW210876   1.778   1.194   6.017  3.7069  0.9574  0.4591
 3345SOL     OW10877   7.133   2.875   4.027  0.5047 -0.1583  0.4748
 3345SOL    HW110878   7.054   2.828   3.999  1.4003 -1.3405 -0.1392
 3345SOL    HW210879   7.135   2.953   3.970  0.1348 -0.4523  0.0456
 3346SOL     OW10880   4.030   1.118   7.393 -0.0678  0.1728 -0.1536
 3346SOL    HW110881   4.034   1.038   7.445 -0.1551 -0.5129 -1.1896
 3346SOL    HW210882   3.936   1.136   7.383 -0.0887 -0.5206 -1.3065
 3347SOL     OW10883   2.968   5.742   0.647  0.5426 -0.1637  0.5762
 3347SOL    HW110884   2.966   5.721   0.554  1.0457  2.7407 -0.2156
 3347SOL    HW210885   2.901   5.687   0.687 -0.2870 -0.8557 -1.6512
 3348SOL     OW10886   3.375   3.019   7.784  0.5014  0.1316 -0.0745
 3348SOL    HW110887   3.352   3.106   7.818 -0.6605  0.2466 -1.0832
 3348SOL    HW210888   3.297   2.966   7.799  0.4535 -0.1749 -1.3011
 3349SOL     OW10889   6.115   1.666   6.834 -0.1940 -0.3041  0.7412
 3349SOL    HW110890   6.195   1.657   6.885  0.7407  1.5156 -0.3130
 3349SOL    HW210891   6.080   1.752   6.860  1.0919  1.4008 -2.5811
 3350SOL     OW10892   4.604   1.898   5.805 -0.1654 -0.3488  0.0063
 3350SOL    HW110893   4.641   1.909   5.892 -0.3672 -0.7103  0.1413
 3350SOL    HW210894   4.584   1.987   5.775  2.3472  0.0499 -0.7596
 3351SOL     OW10895   4.115   0.703   4.858  0.1909  0.2372 -0.1641
 3351SOL    HW110896   4.063   0.623   4.860  0.3630  0.0949 -1.0980
 3351SOL    HW210897   4.178   0.690   4.787  1.3120  0.5341  0.7506
 3352SOL     OW10898   4.145   1.535   6.172  0.3642 -0.0841  0.2231
 3352SOL    HW110899   4.135   1.498   6.084  0.3295 -0.1270  0.2449
 3352SOL    HW210900   4.156   1.459   6.229  3.3937  0.0053 -0.0864
 3353SOL     OW10901   1.402   4.557   0.646  0.1434  0.2435  0.5266
 3353SOL    HW110902   1.449   4.639   0.633 -0.7415  0.7181  0.2741
 3353SOL    HW210903   1.470   4.490   0.641  0.9821  0.9958  1.4207
 3354SOL     OW10904   4.085   7.031   5.695 -0.4763 -0.5757  0.4766
 3354SOL    HW110905   4.112   7.022   5.786  2.3904 -0.5984 -0.3043
 3354SOL    HW210906   4.160   7.070   5.651 -1.5171 -1.2162 -2.0291
 3355SOL     OW10907   1.603   5.368   4.140 -0.4870  0.1571  0.7419
 3355SOL    HW110908   1.577   5.385   4.049  0.6173  1.1631  0.5778
 3355SOL    HW210909   1.526   5.331   4.181 -0.8731 -0.7448 -0.7291
 3356SOL     OW10910   0.324   2.701   4.911 -0.5562 -0.4634  0.0274
 3356SOL    HW110911   0.379   2.646   4.967  1.2782  1.5234  0.3113
 3356SOL    HW210912   0.325   2.658   4.826  0.3367 -1.1771  0.3883
 3357SOL     OW10913   4.448   7.103   3.686 -0.0116  0.1218 -0.3644
 3357SOL    HW110914   4.452   7.052   3.605 -1.4262 -0.5485 -0.0495
 3357SOL    HW210915   4.456   7.038   3.756  2.9272  0.8488  0.1121
 3358SOL     OW10916   0.667   5.713   7.268  0.0943 -0.5078 -0.7570
 3358SOL    HW110917   0.620   5.755   7.196  0.0682 -0.2697 -0.6006
 3358SOL    HW210918   0.672   5.779   7.336 -0.8606 -1.0841 -0.1068
 3359SOL     OW10919   5.677   5.942   5.668  0.1200  1.0159 -0.5906
 3359SOL    HW110920   5.671   6.020   5.613  0.5681  1.4919  0.0140
 3359SOL    HW210921   5.604   5.951   5.729  1.9374  2.6514  1.5447
 3360SOL     OW10922   4.899   7.378   3.633 -0.1270  0.7620 -0.5008
 3360SOL    HW110923   4.825   7.341   3.585  0.8110  1.5206 -2.6808
 3360SOL    HW210924   4.973   7.372   3.572  0.9579  2.5150  0.5404
 3361SOL     OW10925   3.364   5.077   4.434 -0.1913 -0.2814  0.4136
 3361SOL    HW110926   3.355   5.169   4.411  0.3343 -0.0806  0.9728
 3361SOL    HW210927   3.275   5.049   4.455 -0.1957  0.4586  1.5133
 3362SOL     OW10928   7.399   7.315   0.953  0.6180  0.5674  0.1046
 3362SOL    HW110929   7.465   7.258   0.992  0.6902  0.5643 -0.0204
 3362SOL    HW210930   7.321   7.302   1.008  0.4629 -0.0728 -0.2485
 3363SOL     OW10931   0.228   2.627   7.583  0.3461 -0.0261 -0.0693
 3363SOL    HW110932   0.320   2.624   7.606  0.6570  2.3549 -0.7188
 3363SOL    HW210933   0.188   2.684   7.649 -0.6553 -0.9918  0.1851
 3364SOL     OW10934   4.883   6.994   6.435  0.2880  0.2329  0.7142
 3364SOL    HW110935   4.959   7.026   6.483 -0.0970  1.9465  0.2724
 3364SOL    HW210936   4.848   6.924   6.489  1.8449 -0.2161  1.1970
 3365SOL     OW10937   2.122   7.938   0.103  0.9868 -0.3508  0.4322
 3365SOL    HW110938   2.142   7.880   0.029  0.2271  0.2586 -0.2682
 3365SOL    HW210939   2.175   8.016   0.087 -2.4543  1.7488 -2.0288
 3366SOL     OW10940   4.528   4.641   4.412  0.0806 -0.0271  0.3597
 3366SOL    HW110941   4.503   4.558   4.371  0.7656 -0.9531  1.7444
 3366SOL    HW210942   4.616   4.659   4.379 -1.4562  2.3329 -3.1302
 3367SOL     OW10943   2.643   3.523   4.885  0.0330 -0.0841 -0.4407
 3367SOL    HW110944   2.648   3.528   4.790  2.7349  1.6676 -0.2997
 3367SOL    HW210945   2.655   3.430   4.905 -2.6876 -0.8259 -1.7901
 3368SOL     OW10946   0.255   7.652   0.099  0.0715  0.0590  0.7273
 3368SOL    HW110947   0.284   7.561   0.106  0.0173  0.0518  0.8664
 3368SOL    HW210948   0.320   7.701   0.149 -1.2102 -0.1742  2.7204
 3369SOL     OW10949   3.373   3.725   2.610  0.0634 -0.2299 -0.4026
 3369SOL    HW110950   3.435   3.679   2.553 -0.8140 -0.0636 -1.5372
 3369SOL    HW210951   3.360   3.809   2.567 -1.6564 -0.6308 -0.7345
 3370SOL     OW10952   2.687   6.355   2.383 -0.3881  0.3000 -0.1511
 3370SOL    HW110953   2.736   6.403   2.316 -1.4440  1.6674  0.0252
 3370SOL    HW210954   2.726   6.267   2.382  0.4468  0.6477 -1.6853
 3371SOL     OW10955   7.175   0.198   4.795 -0.2323 -0.3156 -0.1640
 3371SOL    HW110956   7.188   0.288   4.767 -0.0290  0.7570  2.9779
 3371SOL    HW210957   7.263   0.168   4.820 -0.4131 -1.1468 -0.4873
 3372SOL     OW10958   6.960   7.906   3.596 -0.5649 -0.1996  0.2710
 3372SOL    HW110959   7.023   7.978   3.589 -1.7572  0.7632 -1.3375
 3372SOL    HW210960   7.011   7.833   3.632  1.7135  0.2543 -1.7375
 3373SOL     OW10961   2.381   8.174   7.716  0.0195  0.3498 -0.6680
 3373SOL    HW110962   2.459   8.123   7.738 -0.5742 -0.3556 -0.1335
 3373SOL    HW210963   2.416   8.257   7.682  1.0133 -0.7296 -2.4382
 3374SOL     OW10964   7.127   3.059   4.779  0.4383 -0.3470 -0.0329
 3374SOL    HW110965   7.198   3.112   4.818 -0.1953  0.2277  0.3625
 3374SOL    HW210966   7.061   3.053   4.848  0.3007 -1.2780 -0.2410
 3375SOL     OW10967   3.251   3.983   1.288  0.1270  0.1403  0.0495
 3375SOL    HW110968   3.337   3.981   1.247  1.2361 -1.3458  2.2121
 3375SOL    HW210969   3.265   4.030   1.370 -0.8639 -0.8795  0.8495
 3376SOL     OW10970   2.323   2.227   6.908 -0.1542  0.5011 -0.0604
 3376SOL    HW110971   2.415   2.204   6.923 -0.4400 -0.6076  0.0204
 3376SOL    HW210972   2.298   2.276   6.986  0.1604  0.1672  0.2538
 3377SOL     OW10973   4.413   8.005   6.363  0.1421 -0.4732 -0.1540
 3377SOL    HW110974   4.475   8.004   6.435 -0.2065 -1.6608  0.1605
 3377SOL    HW210975   4.430   7.922   6.316 -1.6964 -1.2103  0.3936
 3378SOL     OW10976   1.919   4.793   2.977  0.6110  0.4538 -0.1797
 3378SOL    HW110977   1.901   4.850   3.052  0.3915 -1.6035  1.4238
 3378SOL    HW210978   1.833   4.756   2.955  0.9804 -0.4450 -0.1522
 3379SOL     OW10979   0.884   7.383   3.335 -0.2300  0.0023 -0.0640
 3379SOL    HW110980   0.978   7.387   3.315 -0.4713 -0.0555 -1.2837
 3379SOL    HW210981   0.871   7.297   3.373 -0.1913 -1.0531 -2.2732
 3380SOL     OW10982   3.532   3.035   6.600 -0.7570  0.1561  0.3448
 3380SOL    HW110983   3.589   2.959   6.583  0.6499  1.1845  0.2370
 3380SOL    HW210984   3.574   3.106   6.552 -0.6116  1.5695  2.4581
 3381SOL     OW10985   5.133   6.321   1.528  0.0380 -0.0399  0.4944
 3381SOL    HW110986   5.045   6.291   1.554 -1.1855  1.0323 -2.0313
 3381SOL    HW210987   5.193   6.262   1.574 -2.0430 -1.9005  1.0246
 3382SOL     OW10988   8.008   1.974   7.474 -0.7528  0.0722  0.4520
 3382SOL    HW110989   7.995   1.985   7.568  1.2251  0.8376  0.6687
 3382SOL    HW210990   8.094   1.932   7.466 -0.0751  1.6268 -1.0478
 3383SOL     OW10991   6.745   6.177   2.269  0.2387 -0.3154 -0.7843
 3383SOL    HW110992   6.668   6.228   2.291  0.1584 -0.0976 -1.5428
 3383SOL    HW210993   6.790   6.164   2.353 -0.9888 -1.0862 -0.2156
 3384SOL     OW10994   7.320   2.200   2.450  0.3826 -0.2616  0.5203
 3384SOL    HW110995   7.357   2.112   2.442  2.9554  0.8565 -0.9827
 3384SOL    HW210996   7.291   2.222   2.361 -3.4009 -0.7351  1.4498
 3385SOL     OW10997   1.138   4.627   7.379 -0.1080  0.1054 -0.0030
 3385SOL    HW110998   1.172   4.582   7.456  1.3136 -0.4616 -0.9093
 3385SOL    HW210999   1.133   4.719   7.404  1.0520  0.0344  0.5414
 3386SOL     OW11000   8.147   4.222   6.914 -0.3060  0.0293  0.3430
 3386SOL    HW111001   8.075   4.279   6.943  0.2470  1.0403 -0.2030
 3386SOL    HW211002   8.104   4.142   6.884 -1.3512  1.1948 -1.4097
 3387SOL     OW11003   2.605   4.309   3.797 -0.0337  0.1888  0.1629
 3387SOL    HW111004   2.653   4.375   3.747  1.5142 -0.6241  0.5006
 3387SOL    HW211005   2.627   4.328   3.888 -2.1597  1.1412  0.5379
 3388SOL     OW11006   5.810   2.836   7.276  0.1919  0.2073  0.3900
 3388SOL    HW111007   5.802   2.916   7.328 -1.2413  0.6876 -0.4998
 3388SOL    HW211008   5.900   2.808   7.289  0.5224  1.5676  1.2898
 3389SOL     OW11009   0.779   6.376   2.935 -0.4308 -1.0366  0.4167
 3389SOL    HW111010   0.819   6.422   3.009 -1.4570  0.0215  0.3555
 3389SOL    HW211011   0.815   6.420   2.858 -0.0146 -1.5689  0.3053
 3390SOL     OW11012   2.418   0.064   3.112 -0.4065  0.0872 -0.5710
 3390SOL    HW111013   2.343   0.087   3.166  0.9290  0.9316  1.0011
 3390SOL    HW211014   2.402   0.110   3.029 -1.2046  0.9712  0.0485
 3391SOL     OW11015   6.977   7.172   4.902 -0.1949 -0.8125 -0.0310
 3391SOL    HW111016   7.007   7.263   4.892 -0.9204 -0.4640  0.8613
 3391SOL    HW211017   7.047   7.120   4.863  0.5420  0.0925  0.0351
 3392SOL     OW11018   4.813   0.114   7.736  0.6093 -0.3762  0.1372
 3392SOL    HW111019   4.878   0.116   7.806  1.8751 -0.8697 -0.9735
 3392SOL    HW211020   4.744   0.174   7.765  1.8340  0.6191  1.0979
 3393SOL     OW11021   1.631   4.148   2.014 -0.2954  0.2464  0.0839
 3393SOL    HW111022   1.553   4.123   2.064 -1.1834  0.3475 -1.2093
 3393SOL    HW211023   1.643   4.241   2.034  1.4571 -0.4397  2.8162
 3394SOL     OW11024   7.047   1.139   5.027  0.9028 -0.0300  0.1735
 3394SOL    HW111025   6.958   1.148   5.060  0.7400 -0.7223 -0.0726
 3394SOL    HW211026   7.044   1.177   4.939  1.3747  1.9698  0.9494
 3395SOL     OW11027   6.095   7.575   3.792 -0.2577 -0.3742  0.4367
 3395SOL    HW111028   6.028   7.510   3.768 -1.0103  0.0055  1.4734
 3395SOL    HW211029   6.163   7.563   3.726 -1.1227 -1.1025 -0.3599
 3396SOL     OW11030   3.013   4.265   0.560 -0.7475  0.2542 -0.0792
 3396SOL    HW111031   2.995   4.173   0.579  0.0863  0.0168 -0.3743
 3396SOL    HW211032   3.108   4.274   0.572 -1.0312  1.4981  1.6841
 3397SOL     OW11033   7.398   6.752   5.856  0.2196 -0.5179 -0.7279
 3397SOL    HW111034   7.328   6.694   5.825 -0.5655 -0.8582  1.4625
 3397SOL    HW211035   7.373   6.774   5.946  2.7985 -0.4519  0.0795
 3398SOL     OW11036   3.637   4.861   6.873 -0.1170  0.3358 -0.8357
 3398SOL    HW111037   3.646   4.950   6.905 -1.0193  0.5600 -1.1908
 3398SOL    HW211038   3.665   4.806   6.947 -1.1922  0.8727 -0.0115
 3399SOL     OW11039   8.208   7.296   3.165 -0.0689  0.0231  0.0501
 3399SOL    HW111040   8.187   7.212   3.123  1.1403  0.0395 -0.6617
 3399SOL    HW211041   8.182   7.362   3.101 -1.4524  0.2309  0.8033
 3400SOL     OW11042   1.061   4.234   1.699 -0.3851 -0.1227 -0.6339
 3400SOL    HW111043   1.108   4.194   1.627 -0.3448 -0.0210 -0.6641
 3400SOL    HW211044   1.112   4.313   1.720 -0.2351 -0.3029 -0.3083
 3401SOL     OW11045   7.262   4.170   4.242 -0.0049  0.1714  0.3840
 3401SOL    HW111046   7.285   4.209   4.327  0.1768  0.2646  0.2929
 3401SOL    HW211047   7.277   4.076   4.253 -2.0280 -0.1128  1.1364
 3402SOL     OW11048   5.761   6.470   5.829  0.0886 -0.0193 -0.3497
 3402SOL    HW111049   5.720   6.556   5.840 -0.4390 -0.5165  2.0688
 3402SOL    HW211050   5.853   6.490   5.811 -0.3288  1.0364 -1.5221
 3403SOL     OW11051   5.089   0.209   1.110  0.1385 -0.0259 -0.2966
 3403SOL    HW111052   5.148   0.209   1.035  1.2666  2.2190  0.5029
 3403SOL    HW211053   5.008   0.248   1.077  0.7698  1.3393 -0.2887
 3404SOL     OW11054   3.123   3.833   5.515 -0.0252  0.6654  0.5500
 3404SOL    HW111055   3.101   3.749   5.474 -0.3850  1.4882 -0.9974
 3404SOL    HW211056   3.040   3.880   5.519  0.3639  1.3607  0.4524
 3405SOL     OW11057   8.034   1.881   1.931 -0.5915 -0.5127  0.0408
 3405SOL    HW111058   8.101   1.905   1.866 -0.5405 -0.0692  0.2550
 3405SOL    HW211059   7.992   1.803   1.894 -0.7044 -0.1441 -0.6319
 3406SOL     OW11060   6.441   0.132   6.164 -0.5393  0.3722 -0.5420
 3406SOL    HW111061   6.374   0.080   6.207  1.6267 -0.6764  1.8762
 3406SOL    HW211062   6.433   0.219   6.203 -0.6556  0.3137 -0.4357
 3407SOL     OW11063   3.622   3.196   4.792  0.2593  0.3380 -0.3508
 3407SOL    HW111064   3.653   3.124   4.846  0.2339 -1.6084 -2.7557
 3407SOL    HW211065   3.675   3.191   4.712 -0.5696  2.2439 -1.0762
 3408SOL     OW11066   5.090   2.719   1.266  0.2967  0.3701  0.6140
 3408SOL    HW111067   5.169   2.748   1.221  0.4211  0.1379  0.6792
 3408SOL    HW211068   5.107   2.627   1.286 -1.0390 -0.4580 -1.7205
 3409SOL     OW11069   3.696   0.048   5.755 -0.0417 -0.1782 -0.1598
 3409SOL    HW111070   3.788   0.023   5.764  0.6411  1.5766 -1.7006
 3409SOL    HW211071   3.668   0.065   5.845  1.0235 -1.0765  0.3766
 3410SOL     OW11072   0.270   6.630   0.738  0.0596  0.1562 -0.4578
 3410SOL    HW111073   0.225   6.552   0.706 -0.4804  0.4419 -0.4004
 3410SOL    HW211074   0.315   6.600   0.817 -0.9656  0.1318  0.1285
 3411SOL     OW11075   1.143   3.937   2.083 -0.0645 -0.0202  0.2045
 3411SOL    HW111076   1.060   3.984   2.077  0.2210  0.8767  2.5232
 3411SOL    HW211077   1.167   3.921   1.991 -2.3618  0.4098 -0.5431
 3412SOL     OW11078   3.781   7.686   7.899  0.2704 -0.0600  0.0884
 3412SOL    HW111079   3.804   7.630   7.825 -1.1382  0.3106 -0.6611
 3412SOL    HW211080   3.765   7.624   7.971  0.7241 -0.4830 -0.1686
 3413SOL     OW11081   4.646   2.902   7.826  0.3601 -0.2527 -0.0689
 3413SOL    HW111082   4.613   2.887   7.914  0.8736  0.7919  0.3142
 3413SOL    HW211083   4.716   2.967   7.836 -0.1817  0.5759 -1.3470
 3414SOL     OW11084   5.955   3.987   5.992  0.4523 -0.2864 -0.5959
 3414SOL    HW111085   5.908   3.982   6.076 -2.2855 -1.2163 -2.0696
 3414SOL    HW211086   6.002   3.904   5.987 -0.0481 -0.5923 -0.3409
 3415SOL     OW11087   2.072   1.998   0.399 -0.2979 -0.4867 -0.0256
 3415SOL    HW111088   2.152   2.046   0.423 -1.1639  0.1749  1.6926
 3415SOL    HW211089   2.011   2.066   0.372 -0.6719 -0.8678 -0.1410
 3416SOL     OW11090   1.521   6.402   1.397 -0.2137  0.1790  0.5355
 3416SOL    HW111091   1.546   6.404   1.489 -2.3672  1.4921  1.1721
 3416SOL    HW211092   1.548   6.488   1.363  0.9581 -0.4582 -0.2065
 3417SOL     OW11093   1.099   5.330   2.587 -0.4548  0.0280 -0.5815
 3417SOL    HW111094   1.056   5.414   2.605 -0.7212  0.2676 -2.1609
 3417SOL    HW211095   1.191   5.352   2.574 -0.4651  0.0342 -0.6474
 3418SOL     OW11096   7.901   6.827   6.541 -0.7291 -0.0038 -0.0804
 3418SOL    HW111097   7.889   6.876   6.460 -1.2195  0.6007  0.3472
 3418SOL    HW211098   7.890   6.892   6.610  0.8372 -0.2682  0.4640
 3419SOL     OW11099   2.300   2.832   6.025 -0.3805 -0.7438 -0.0486
 3419SOL    HW111100   2.241   2.790   6.087 -0.1789 -2.0063 -0.6845
 3419SOL    HW211101   2.329   2.912   6.069 -0.3590 -1.5312  1.4159
 3420SOL     OW11102   5.861   2.582   4.722 -0.0187  0.4709  0.7963
 3420SOL    HW111103   5.917   2.612   4.793 -1.0939  2.8027  0.7599
 3420SOL    HW211104   5.772   2.589   4.757 -0.6580  2.7587 -1.0403
 3421SOL     OW11105   2.123   0.197   5.524 -0.0223  0.3940  0.2303
 3421SOL    HW111106   2.120   0.265   5.457  0.5243 -0.7043 -0.9716
 3421SOL    HW211107   2.050   0.139   5.501 -0.5209  0.5913  1.2738
 3422SOL     OW11108   2.248   3.499   4.599 -0.7368 -0.6318  0.7069
 3422SOL    HW111109   2.253   3.490   4.694 -0.6616 -2.3604  0.5675
 3422SOL    HW211110   2.156   3.522   4.583 -0.4141  1.1762  1.2675
 3423SOL     OW11111   8.073   5.545   5.753 -0.2531  0.2495 -0.3905
 3423SOL    HW111112   7.979   5.526   5.761 -0.6766  2.7577  1.7678
 3423SOL    HW211113   8.112   5.505   5.830  0.3860 -0.1944 -0.9329
 3424SOL     OW11114   2.179   0.844   6.148 -0.1231 -0.0816  0.2846
 3424SOL    HW111115   2.139   0.850   6.235 -1.3658 -1.2187 -0.1618
 3424SOL    HW211116   2.134   0.770   6.107 -0.9628  1.6255 -2.0524
 3425SOL     OW11117   6.703   0.064   0.667 -0.5871 -0.1688  0.8185
 3425SOL    HW111118   6.617   0.100   0.646  0.0900  0.6566 -0.6776
 3425SOL    HW211119   6.714  -0.009   0.606  0.0296  0.1518  0.5316
 3426SOL     OW11120   5.544   4.110   4.519 -0.8128 -0.5073  0.1452
 3426SOL    HW111121   5.594   4.031   4.499 -0.7200 -0.4247  0.0552
 3426SOL    HW211122   5.502   4.090   4.603 -1.1034 -0.8035 -0.0632
 3427SOL     OW11123   4.748   0.252   0.069  0.8476  0.6736 -0.3990
 3427SOL    HW111124   4.703   0.286   0.146  2.2890  0.7596  0.4412
 3427SOL    HW211125   4.679   0.243   0.003 -0.5497 -0.0627  1.0957
 3428SOL     OW11126   6.053   7.323   0.898  0.2674  0.1721  0.2014
 3428SOL    HW111127   5.962   7.328   0.928  0.7719  0.2063  1.8558
 3428SOL    HW211128   6.051   7.351   0.807 -1.8406 -2.8087 -0.7917
 3429SOL     OW11129   0.297   0.041   0.857  0.6641  0.2859 -0.0746
 3429SOL    HW111130   0.265   0.043   0.948  1.6750 -0.8295  0.3431
 3429SOL    HW211131   0.220   0.059   0.804 -0.6173 -1.8924  0.9027
 3430SOL     OW11132   1.304   1.050   6.155  0.4802 -0.0165 -0.0618
 3430SOL    HW111133   1.309   1.113   6.227  0.5632  0.9184 -0.8560
 3430SOL    HW211134   1.345   0.970   6.189  0.7243  0.4868  0.8456
 3431SOL     OW11135   4.175   2.329   4.491 -0.5006 -0.2323 -0.2354
 3431SOL    HW111136   4.133   2.405   4.529 -0.0115 -0.1770  0.2168
 3431SOL    HW211137   4.139   2.255   4.540 -0.2054 -0.1990  0.0373
 3432SOL     OW11138   1.358   0.867   2.629 -0.1614 -0.4373  0.6157
 3432SOL    HW111139   1.430   0.824   2.583 -1.1606 -1.6522  0.1489
 3432SOL    HW211140   1.372   0.844   2.721  0.6192  0.2080  0.6719
 3433SOL     OW11141   6.139   7.222   0.381 -0.4813 -0.5117 -0.1310
 3433SOL    HW111142   6.227   7.259   0.386 -1.4400  1.9552 -0.1270
 3433SOL    HW211143   6.153   7.129   0.368  2.1246 -0.2450  0.1994
 3434SOL     OW11144   6.811   1.102   2.167  0.0601 -0.6104 -0.0614
 3434SOL    HW111145   6.865   1.129   2.241 -1.9093  1.2795  0.7835
 3434SOL    HW211146   6.748   1.041   2.204  0.4870 -1.4750 -0.7060
 3435SOL     OW11147   3.582   2.713   1.268  0.0255 -0.2696 -1.0546
 3435SOL    HW111148   3.583   2.738   1.361 -0.3171  0.8548 -1.3303
 3435SOL    HW211149   3.503   2.753   1.234  0.7332  0.3017 -2.0831
 3436SOL     OW11150   0.057   7.768   6.729 -0.3154 -0.6493  0.3568
 3436SOL    HW111151   0.053   7.740   6.637  1.9366 -0.5230  0.1784
 3436SOL    HW211152   0.112   7.846   6.728  1.3876 -1.7512  2.0185
 3437SOL     OW11153   3.901   3.895   3.408  0.4373  0.0616  0.3369
 3437SOL    HW111154   3.994   3.883   3.389  0.4237 -0.0002  0.3096
 3437SOL    HW211155   3.863   3.919   3.323  0.2058 -1.1770  0.0721
 3438SOL     OW11156   1.050   2.544   8.119  0.0491 -0.0374  0.4516
 3438SOL    HW111157   0.983   2.568   8.183 -0.4061  1.3034 -0.4903
 3438SOL    HW211158   1.129   2.531   8.171 -0.6105 -0.2735  1.4278
 3439SOL     OW11159   6.581   7.417   4.771  0.1194  0.5976 -0.5335
 3439SOL    HW111160   6.641   7.488   4.747  0.4514  0.3980 -0.3007
 3439SOL    HW211161   6.580   7.417   4.866  0.7675 -0.2430 -0.5187
 3440SOL     OW11162   2.550   8.184   4.733 -0.3169  0.0117  0.1338
 3440SOL    HW111163   2.558   8.228   4.817 -0.7727 -1.6627  1.0860
 3440SOL    HW211164   2.641   8.174   4.702 -0.2346  2.2975 -0.5181
 3441SOL     OW11165   4.046   0.315   4.054  0.2444  0.0985  0.3182
 3441SOL    HW111166   3.998   0.233   4.058 -0.6773  0.5580 -0.8121
 3441SOL    HW211167   4.012   0.367   4.127  1.4565 -0.7998  1.5939
 3442SOL     OW11168   6.950   7.402   5.172  0.1555  0.2124  0.0976
 3442SOL    HW111169   6.978   7.366   5.088 -0.0241 -2.6031  1.1550
 3442SOL    HW211170   6.863   7.366   5.187  0.0911  0.8383  1.3828
 3443SOL     OW11171   4.383   7.942   2.875 -0.2061 -0.1109  0.1072
 3443SOL    HW111172   4.365   7.933   2.782 -0.9791 -1.8798  0.3820
 3443SOL    HW211173   4.367   8.034   2.894  0.6832  0.4493 -1.6246
 3444SOL     OW11174   1.272   2.207   4.739  0.6887 -0.1524 -0.1853
 3444SOL    HW111175   1.327   2.241   4.668  1.3356 -1.4952 -0.3586
 3444SOL    HW211176   1.183   2.230   4.714  1.1134  1.7400 -0.0808
 3445SOL     OW11177   5.036   1.344   1.149  0.3086 -0.0541 -0.3722
 3445SOL    HW111178   5.112   1.394   1.119 -1.3438  2.6947 -0.2549
 3445SOL    HW211179   4.982   1.332   1.071 -0.1120 -0.1737 -0.0681
 3446SOL     OW11180   5.789   1.308   7.302  0.3723 -0.3683 -0.1621
 3446SOL    HW111181   5.791   1.385   7.245  3.2647 -1.2406 -1.4344
 3446SOL    HW211182   5.881   1.289   7.320 -0.3082 -2.6206  1.4140
 3447SOL     OW11183   3.158   6.710   8.215  0.9847 -0.0046 -0.3285
 3447SOL    HW111184   3.179   6.641   8.277  2.5361  0.4212 -0.3377
 3447SOL    HW211185   3.063   6.708   8.207  0.9682 -1.8089  0.0283
 3448SOL     OW11186   3.730   4.147   1.300 -0.1698  0.7932 -0.3726
 3448SOL    HW111187   3.724   4.186   1.387 -0.8964  1.7345 -0.8315
 3448SOL    HW211188   3.692   4.212   1.241 -0.3052 -0.1068 -1.3179
 3449SOL     OW11189   4.830   2.662   4.453  0.0717  0.5552 -0.3913
 3449SOL    HW111190   4.766   2.592   4.439 -1.8176  1.8295  1.3545
 3449SOL    HW211191   4.913   2.616   4.465 -1.0480 -1.3714  0.4713
 3450SOL     OW11192   1.631   2.028   0.886 -0.3578  0.4788  0.1729
 3450SOL    HW111193   1.588   2.021   0.972  1.0255 -0.4033  0.8384
 3450SOL    HW211194   1.596   1.953   0.837  1.8327 -1.5152  1.4305
 3451SOL     OW11195   3.268   6.602   0.675  0.0830 -0.0894  0.2097
 3451SOL    HW111196   3.325   6.643   0.739 -0.0999 -1.7087  1.4731
 3451SOL    HW211197   3.180   6.629   0.699  0.0584 -0.2260  0.2725
 3452SOL     OW11198   3.226   3.520   7.383  0.2730 -0.2034  0.5676
 3452SOL    HW111199   3.295   3.508   7.318 -0.5143  0.5623 -0.4486
 3452SOL    HW211200   3.148   3.541   7.332 -1.0265 -2.1489  1.5951
 3453SOL     OW11201   3.478   4.838   1.409 -0.0904 -0.1281 -0.6219
 3453SOL    HW111202   3.518   4.797   1.333 -0.0754 -0.3148 -0.5129
 3453SOL    HW211203   3.393   4.870   1.377  0.3973  0.8049 -1.0066
 3454SOL     OW11204   1.579   2.868   6.656  0.7490 -0.5200  0.1763
 3454SOL    HW111205   1.593   2.821   6.738 -0.7582 -0.6945  0.3533
 3454SOL    HW211206   1.633   2.946   6.664 -0.7325  0.3887  2.1333
 3455SOL     OW11207   5.301   3.508   1.701  0.3802  0.2597  0.1251
 3455SOL    HW111208   5.234   3.461   1.651  0.7949 -0.6729  0.4333
 3455SOL    HW211209   5.285   3.600   1.681 -0.9928  0.0493  0.1881
 3456SOL     OW11210   7.038   6.921   5.593 -0.2130  0.4687 -0.3591
 3456SOL    HW111211   6.994   6.843   5.625  1.5090 -0.2733  0.3435
 3456SOL    HW211212   7.062   6.969   5.673  2.5545 -0.5051 -0.4866
 3457SOL     OW11213   6.819   0.358   7.146  0.1134  0.1182  0.4942
 3457SOL    HW111214   6.771   0.421   7.201 -0.0533 -0.0523  0.5451
 3457SOL    HW211215   6.862   0.300   7.208  0.4393  0.3076  0.4482
 3458SOL     OW11216   6.470   0.012   5.589 -0.1681 -0.9443  0.1438
 3458SOL    HW111217   6.409   0.037   5.519  1.8316  0.8116 -1.1118
 3458SOL    HW211218   6.451   0.074   5.660 -0.6513 -1.2230  0.2657
 3459SOL     OW11219   7.063   5.357   4.770 -0.8426  0.2356  0.7737
 3459SOL    HW111220   7.125   5.392   4.706 -2.8191  1.4884 -0.5353
 3459SOL    HW211221   7.063   5.263   4.754 -0.7014  0.4436 -0.5301
 3460SOL     OW11222   2.269   0.270   6.494 -0.2100 -0.1885 -0.2893
 3460SOL    HW111223   2.314   0.351   6.473  2.4137 -0.9420  1.9515
 3460SOL    HW211224   2.331   0.220   6.547 -2.3714 -2.9223 -0.0831
 3461SOL     OW11225   7.910   6.539   7.489 -0.7075 -0.0380 -0.1750
 3461SOL    HW111226   7.857   6.559   7.412  0.2291  1.1671 -0.5346
 3461SOL    HW211227   7.946   6.623   7.516 -0.3627 -0.5666  1.1077
 3462SOL     OW11228   3.910   7.787   5.670  0.3658 -0.0925  0.0078
 3462SOL    HW111229   3.832   7.837   5.693  0.5368 -0.4089  1.4159
 3462SOL    HW211230   3.905   7.777   5.575 -0.9075  0.5372 -0.0216
 3463SOL     OW11231   0.544   3.681   2.442  0.0242 -0.2425 -0.3477
 3463SOL    HW111232   0.449   3.673   2.433  0.1776 -1.5575 -0.9463
 3463SOL    HW211233   0.580   3.625   2.374  1.2441  0.5675 -0.4034
 3464SOL     OW11234   3.182   1.662   6.310  0.0759  0.0865 -0.7204
 3464SOL    HW111235   3.173   1.682   6.403 -0.3356  0.3643 -0.8206
 3464SOL    HW211236   3.247   1.591   6.308 -0.2492 -0.2396 -0.1861
 3465SOL     OW11237   7.783   5.518   5.665 -0.2033 -0.0882 -0.4165
 3465SOL    HW111238   7.788   5.435   5.713  0.3655  0.1349 -0.0894
 3465SOL    HW211239   7.753   5.493   5.578 -0.9130 -0.5356 -0.0538
 3466SOL     OW11240   3.522   7.237   6.025 -0.2186  0.2088 -0.5633
 3466SOL    HW111241   3.598   7.193   5.987  0.6743  1.1521  0.0885
 3466SOL    HW211242   3.495   7.181   6.098 -0.5383 -0.4413 -1.1718
 3467SOL     OW11243   2.758   4.756   2.100 -0.3553 -0.1305  0.1716
 3467SOL    HW111244   2.805   4.716   2.027 -0.4034  1.7059 -0.9255
 3467SOL    HW211245   2.827   4.793   2.156 -0.3982  0.9327 -0.4570
 3468SOL     OW11246   0.810   0.813   4.611  0.4240 -0.0413  0.0404
 3468SOL    HW111247   0.750   0.856   4.550 -2.6675  0.9554  3.4257
 3468SOL    HW211248   0.866   0.884   4.642 -0.0918  0.1284  0.6001
 3469SOL     OW11249   3.579   0.076   2.590  0.2521  0.1010 -0.2056
 3469SOL    HW111250   3.571  -0.019   2.582 -0.0979  0.2813 -2.5761
 3469SOL    HW211251   3.549   0.110   2.506  2.3212  2.2116 -0.1903
 3470SOL     OW11252   6.809   5.670   5.649 -0.0122 -0.7452  0.3408
 3470SOL    HW111253   6.749   5.707   5.713  2.2970  0.6742  1.8398
 3470SOL    HW211254   6.782   5.708   5.565 -1.2523 -0.2417  0.9543
 3471SOL     OW11255   6.282   3.198   2.737  0.1763 -0.2620  0.7907
 3471SOL    HW111256   6.213   3.133   2.748  1.2091 -1.9082 -1.6651
 3471SOL    HW211257   6.352   3.152   2.691  1.5633  2.2104  0.2369
 3472SOL     OW11258   3.533   4.353   4.826  0.4407  0.0461 -0.3061
 3472SOL    HW111259   3.528   4.269   4.780 -1.2458  0.3125 -0.6896
 3472SOL    HW211260   3.493   4.415   4.766 -1.5735  0.4525  1.3524
 3473SOL     OW11261   0.706   6.608   2.472  0.0079  0.1609 -0.0362
 3473SOL    HW111262   0.652   6.645   2.542  0.3879  1.0393 -0.1873
 3473SOL    HW211263   0.705   6.514   2.488 -2.2734  0.0264 -0.5289
 3474SOL     OW11264   3.392   5.663   7.207 -0.1834 -0.2437  0.3316
 3474SOL    HW111265   3.397   5.625   7.119 -1.8200 -0.0991  0.1369
 3474SOL    HW211266   3.383   5.757   7.192  0.6237 -0.0984  0.7039
 3475SOL     OW11267   6.124   2.951   2.694  0.2864  0.2237 -1.2812
 3475SOL    HW111268   6.065   2.942   2.619 -1.6481  0.0135  0.2018
 3475SOL    HW211269   6.155   2.862   2.710 -3.1978 -0.7660  1.0994
 3476SOL     OW11270   4.265   5.379   1.069  0.4957 -0.2033 -0.4139
 3476SOL    HW111271   4.219   5.367   0.986 -0.4084 -2.0817  0.2966
 3476SOL    HW211272   4.195   5.380   1.134  1.2286  0.8168  0.3734
 3477SOL     OW11273   1.176   0.145   1.983  0.7086 -0.0311  0.3407
 3477SOL    HW111274   1.123   0.071   1.954  1.2964  0.4300 -2.1532
 3477SOL    HW211275   1.263   0.127   1.949  0.6300  2.2633 -1.2953
 3478SOL     OW11276   7.718   0.680   5.318 -0.5675  0.6852  0.1568
 3478SOL    HW111277   7.674   0.601   5.347 -0.0999  1.0599  1.9906
 3478SOL    HW211278   7.649   0.747   5.317 -0.9223  0.3270 -1.2138
 3479SOL     OW11279   4.235   4.226   4.497  0.1592  0.4245 -0.4033
 3479SOL    HW111280   4.201   4.279   4.425  0.0950  1.4933  0.3803
 3479SOL    HW211281   4.178   4.246   4.571  0.4633 -0.3405  0.0601
 3480SOL     OW11282   7.546   5.832   3.626  1.2643 -0.8838 -0.0274
 3480SOL    HW111283   7.464   5.784   3.637  1.0110 -0.3105  0.6666
 3480SOL    HW211284   7.549   5.852   3.532  0.7456 -1.1436 -0.1045
 3481SOL     OW11285   6.568   6.745   2.231 -0.0478 -0.8581 -0.1655
 3481SOL    HW111286   6.541   6.766   2.142  0.8563 -0.4307 -0.3535
 3481SOL    HW211287   6.491   6.704   2.271 -1.3763  1.3749 -0.2713
 3482SOL     OW11288   4.371   5.431   4.573 -0.0801 -0.9371 -0.1979
 3482SOL    HW111289   4.365   5.450   4.667  0.2279 -0.7324 -0.2156
 3482SOL    HW211290   4.317   5.353   4.561 -0.5148 -0.6814  0.0632
 3483SOL     OW11291   0.594   3.907   3.562  0.0233 -0.3009 -0.1745
 3483SOL    HW111292   0.531   3.947   3.502  0.2037 -0.5865 -0.5637
 3483SOL    HW211293   0.608   3.972   3.630  2.1386  1.3111 -2.0467
 3484SOL     OW11294   3.104   3.269   7.656  0.0371  0.1114  0.6371
 3484SOL    HW111295   3.016   3.296   7.629  0.1107  1.7878  1.8861
 3484SOL    HW211296   3.122   3.321   7.734  1.9785 -0.5150  0.6617
 3485SOL     OW11297   1.607   5.885   0.971 -0.1135  0.3884 -0.4665
 3485SOL    HW111298   1.550   5.814   0.943  0.6519 -0.0745 -0.8831
 3485SOL    HW211299   1.595   5.890   1.066  1.2857 -1.6329 -0.1206
 3486SOL     OW11300   7.809   4.520   4.371  0.1740  0.0779  0.0388
 3486SOL    HW111301   7.860   4.444   4.396  0.0067 -0.0256  0.0683
 3486SOL    HW211302   7.719   4.487   4.361  0.4197 -0.1283 -1.8816
 3487SOL     OW11303   0.436   1.330   3.564  0.1387  0.2002  0.3466
 3487SOL    HW111304   0.485   1.328   3.646  0.2522 -0.2878  0.2719
 3487SOL    HW211305   0.382   1.408   3.570  1.4630  1.1539  0.1188
 3488SOL     OW11306   3.452   0.215   2.378  0.1062 -0.1686  0.2971
 3488SOL    HW111307   3.450   0.271   2.300  0.8094 -0.8794 -0.2391
 3488SOL    HW211308   3.363   0.221   2.413 -0.8473 -1.4147 -1.6890
 3489SOL     OW11309   2.028   7.528   0.182  0.3445 -0.1204  0.3848
 3489SOL    HW111310   2.040   7.534   0.277 -1.1100  2.4595  0.4840
 3489SOL    HW211311   1.972   7.602   0.160  1.1231 -0.2937 -2.5950
 3490SOL     OW11312   7.188   5.522   1.050 -0.0315 -0.7273 -0.0519
 3490SOL    HW111313   7.113   5.475   1.014  0.6328  0.1645 -2.8222
 3490SOL    HW211314   7.260   5.459   1.046  0.0874 -0.5656 -0.4886
 3491SOL     OW11315   0.199   0.988   2.366  0.6265 -0.0749 -0.2327
 3491SOL    HW111316   0.113   1.018   2.337  0.0606 -2.1937 -0.8907
 3491SOL    HW211317   0.193   0.987   2.461 -1.0680 -2.6701 -0.2657
 3492SOL     OW11318   1.400   4.557   3.792 -0.6126  0.0997 -0.2236
 3492SOL    HW111319   1.363   4.484   3.743  0.8184 -0.8678  0.0878
 3492SOL    HW211320   1.446   4.609   3.727 -1.0916  0.3845 -0.3410
 3493SOL     OW11321   7.768   2.369   4.739 -0.5908 -0.5949 -0.4907
 3493SOL    HW111322   7.797   2.409   4.657 -2.2891  0.9878 -0.3818
 3493SOL    HW211323   7.829   2.402   4.805  0.0553 -0.9172 -0.9172
 3494SOL     OW11324   1.639   3.974   5.702 -0.1136  0.0825  0.6174
 3494SOL    HW111325   1.654   3.958   5.608 -0.2429  0.0142  0.6078
 3494SOL    HW211326   1.654   3.889   5.743  2.3888  0.6144  0.9808
 3495SOL     OW11327   7.700   8.148   4.024 -0.9821 -0.2228 -0.2120
 3495SOL    HW111328   7.732   8.116   3.940  1.5483 -4.1941  1.9595
 3495SOL    HW211329   7.778   8.174   4.072 -2.3300  1.7497  1.0873
 3496SOL     OW11330   7.289   0.009   3.644 -0.2342 -0.2771  0.0982
 3496SOL    HW111331   7.383  -0.004   3.636  0.0523  1.4526  0.4010
 3496SOL    HW211332   7.274   0.099   3.617 -1.8363 -0.5715 -0.0992
 3497SOL     OW11333   4.203   5.016   0.042  0.1955 -0.4479  0.8197
 3497SOL    HW111334   4.192   4.921   0.049 -1.2632 -0.3574 -0.0087
 3497SOL    HW211335   4.180   5.048   0.129  1.0330 -0.8542  1.2116
 3498SOL     OW11336   2.610   0.644   4.376  0.0151 -0.5342 -0.3625
 3498SOL    HW111337   2.623   0.639   4.471 -1.6753  0.4759 -0.0411
 3498SOL    HW211338   2.689   0.688   4.343  0.6890 -1.0404  0.5408
 3499SOL     OW11339   7.935   1.669   1.795  0.2197 -0.4151 -0.1537
 3499SOL    HW111340   7.984   1.595   1.759  0.6934  0.1186 -0.6161
 3499SOL    HW211341   7.844   1.640   1.795  0.2271 -0.4778 -1.6480
 3500SOL     OW11342   1.536   4.876   1.041 -0.1698  0.4624 -0.1939
 3500SOL    HW111343   1.469   4.823   1.084  1.0432 -0.1318  1.0334
 3500SOL    HW211344   1.581   4.816   0.982 -1.5803  1.1886 -2.1035
 3501SOL     OW11345   6.013   7.835   5.411 -0.0056 -0.6110 -0.6904
 3501SOL    HW111346   6.014   7.929   5.428  0.5007 -0.7577  0.1204
 3501SOL    HW211347   5.920   7.814   5.397 -0.1166  0.0091 -0.9367
 3502SOL     OW11348   0.399   7.017   3.719 -0.4348  0.4282 -0.3893
 3502SOL    HW111349   0.466   7.060   3.665  0.2460  2.8389  2.1460
 3502SOL    HW211350   0.326   7.079   3.720 -1.0512 -0.2930  0.1978
 3503SOL     OW11351   7.927   1.552   4.268  0.3734  0.0183 -0.1528
 3503SOL    HW111352   7.881   1.631   4.238  1.0298  1.4822  2.3588
 3503SOL    HW211353   8.011   1.554   4.222 -0.6285 -0.7871 -2.1513
 3504SOL     OW11354   4.450   4.193   8.016  0.7041 -0.2752  0.0336
 3504SOL    HW111355   4.478   4.265   7.960 -1.6794 -0.4841 -1.5622
 3504SOL    HW211356   4.527   4.136   8.023  1.4563  0.4176 -1.9984
 3505SOL     OW11357   4.144   4.332   4.030 -0.5189  0.5413 -0.1994
 3505SOL    HW111358   4.185   4.283   3.959  1.7447  2.8403 -0.6358
 3505SOL    HW211359   4.082   4.390   3.987  1.3572  2.4382 -0.5099
 3506SOL     OW11360   6.757   5.936   1.851 -0.1022  0.3521 -0.3465
 3506SOL    HW111361   6.773   5.890   1.933 -0.7898 -1.5312 -1.1969
 3506SOL    HW211362   6.710   6.015   1.876  0.4729  0.2581  1.1345
 3507SOL     OW11363   4.707   8.079   0.634  0.4187  0.4848  0.0009
 3507SOL    HW111364   4.673   8.167   0.621  0.1377  0.4683  0.6314
 3507SOL    HW211365   4.685   8.033   0.552  0.0048  0.8142 -0.0762
 3508SOL     OW11366   1.813   4.187   7.039 -0.1682  0.6285 -0.0373
 3508SOL    HW111367   1.873   4.118   7.009 -1.6576 -0.5954 -0.3048
 3508SOL    HW211368   1.764   4.147   7.111 -1.6288  1.1137 -0.7275
 3509SOL     OW11369   8.042   3.002   1.129 -0.6368  0.3739  0.4328
 3509SOL    HW111370   8.078   3.053   1.057 -1.4946 -0.2147 -0.4346
 3509SOL    HW211371   8.112   3.000   1.195 -0.4975  2.5062  0.4367
 3510SOL     OW11372   3.702   2.721   6.826  0.3076  0.1323  0.1367
 3510SOL    HW111373   3.761   2.764   6.889 -0.2939  1.2529 -0.0310
 3510SOL    HW211374   3.679   2.790   6.764 -0.5847 -0.4762 -0.2347
 3511SOL     OW11375   5.311   5.568   0.574 -0.0576 -0.1387  0.3830
 3511SOL    HW111376   5.219   5.549   0.557 -0.2441  0.2271  0.9740
 3511SOL    HW211377   5.318   5.663   0.569  0.2060 -0.1372  0.7240
 3512SOL     OW11378   2.096   0.589   0.821  0.0588 -0.4741 -0.3261
 3512SOL    HW111379   2.131   0.668   0.779 -2.0119 -0.0017 -1.2659
 3512SOL    HW211380   2.078   0.529   0.749 -3.9649  0.5194 -0.3423
 3513SOL     OW11381   1.800   3.732   2.536  0.1435  0.0382  0.2308
 3513SOL    HW111382   1.828   3.714   2.626 -1.3813 -0.2680  0.6820
 3513SOL    HW211383   1.721   3.785   2.546 -0.5359 -0.7119 -0.8912
 3514SOL     OW11384   1.700   0.351   4.598 -0.1311  0.1448 -0.0264
 3514SOL    HW111385   1.633   0.392   4.653 -0.3376 -1.0149  0.6135
 3514SOL    HW211386   1.656   0.336   4.514 -0.2171  0.7250 -0.0882
 3515SOL     OW11387   0.947   3.808   8.205  0.6745 -0.3846 -0.7093
 3515SOL    HW111388   0.896   3.799   8.286 -1.8522 -1.1069 -2.2501
 3515SOL    HW211389   0.972   3.718   8.182 -0.7159 -0.5022 -1.9111
 3516SOL     OW11390   4.403   0.374   4.246 -0.1435  0.7106 -0.2296
 3516SOL    HW111391   4.477   0.337   4.295 -0.2255  3.2238  2.0156
 3516SOL    HW211392   4.326   0.343   4.294 -0.2887  2.0941  0.4624
 3517SOL     OW11393   2.095   1.990   3.577  0.2831 -0.3684  0.3372
 3517SOL    HW111394   2.089   1.962   3.668 -1.0575  0.0151  0.3984
 3517SOL    HW211395   2.015   2.041   3.563 -0.3301 -1.7521 -1.5118
 3518SOL     OW11396   2.762   7.097   3.214  0.2753  0.4095  0.5220
 3518SOL    HW111397   2.721   7.060   3.292 -0.5833 -1.2414 -0.6315
 3518SOL    HW211398   2.690   7.110   3.152  0.8761  2.0707  0.1110
 3519SOL     OW11399   0.810   7.911   4.745 -0.4408 -0.4863 -0.3386
 3519SOL    HW111400   0.777   7.885   4.831 -0.3787 -0.7666 -0.3965
 3519SOL    HW211401   0.805   8.006   4.744  0.6182 -0.3992  0.4194
 3520SOL     OW11402   4.042   1.427   4.090  0.2635  0.5031 -0.4411
 3520SOL    HW111403   4.078   1.344   4.123  4.0808  1.5373 -1.4968
 3520SOL    HW211404   4.070   1.493   4.153 -1.9970  1.1771 -0.0677
 3521SOL     OW11405   4.937   2.572   1.928 -0.1634 -0.0997  0.4205
 3521SOL    HW111406   4.909   2.541   1.842 -0.1639  1.0051  0.0028
 3521SOL    HW211407   4.976   2.658   1.910  0.1746 -0.0247  1.4776
 3522SOL     OW11408   0.836   1.876   4.965 -0.0839  1.0588  0.1105
 3522SOL    HW111409   0.906   1.897   5.026 -1.2314  1.6484  1.2584
 3522SOL    HW211410   0.799   1.961   4.941 -0.3418  0.7574 -0.5972
 3523SOL     OW11411   2.097   1.528   3.219  0.2392  0.1575 -0.5750
 3523SOL    HW111412   2.072   1.605   3.271 -1.3145  0.1553 -1.2648
 3523SOL    HW211413   2.128   1.465   3.284  1.0259  1.1523  0.0532
 3524SOL     OW11414   0.136   6.255   2.502  0.3056  0.0423  0.1093
 3524SOL    HW111415   0.138   6.244   2.407 -0.7732  0.9070 -0.0333
 3524SOL    HW211416   0.172   6.173   2.537  1.3031 -0.0367 -1.0441
 3525SOL     OW11417   4.197   1.942   3.300 -0.1875  0.5299 -0.1874
 3525SOL    HW111418   4.273   1.885   3.313 -1.2821 -0.6677  1.3575
 3525SOL    HW211419   4.224   2.004   3.232  1.7023 -0.6634 -0.5813
 3526SOL     OW11420   5.661   0.585   0.036  0.7534  0.0922 -0.3052
 3526SOL    HW111421   5.749   0.565   0.004 -0.0712 -3.0428 -1.0090
 3526SOL    HW211422   5.638   0.510   0.091 -1.7311  0.4695 -0.7155
 3527SOL     OW11423   6.295   8.146   0.691 -0.2083  0.4969 -0.0876
 3527SOL    HW111424   6.227   8.083   0.716  0.8507  0.0572  1.8838
 3527SOL    HW211425   6.290   8.214   0.758  1.0260  0.6270 -0.1017
 3528SOL     OW11426   1.054   4.903   5.833 -0.5358 -0.3110 -0.0331
 3528SOL    HW111427   1.006   4.982   5.810  0.7643  0.5385  0.1012
 3528SOL    HW211428   0.987   4.834   5.835 -1.3328  0.2782 -2.5836
 3529SOL     OW11429   7.004   1.199   0.652 -0.2115 -0.0541  0.0641
 3529SOL    HW111430   7.006   1.190   0.748  3.3912 -0.5531  0.0795
 3529SOL    HW211431   6.997   1.293   0.637  0.1650  0.1044  0.8463
 3530SOL     OW11432   0.737   7.517   1.096 -0.2869 -0.0675  0.3023
 3530SOL    HW111433   0.674   7.530   1.025  0.0659 -1.4894 -0.3081
 3530SOL    HW211434   0.751   7.423   1.099  2.0617  0.2019  0.1954
 3531SOL     OW11435   7.310   1.134   7.872  0.6492 -0.5002 -0.6724
 3531SOL    HW111436   7.261   1.060   7.838 -1.8801  0.3894  0.7712
 3531SOL    HW211437   7.264   1.211   7.839  1.0659  0.3910  0.7330
 3532SOL     OW11438   0.207   5.489   2.104 -0.0598 -0.6248  0.0310
 3532SOL    HW111439   0.162   5.419   2.151 -1.2234 -0.8093 -1.2723
 3532SOL    HW211440   0.269   5.443   2.047  1.7469 -0.3779  1.6921
 3533SOL     OW11441   1.423   3.189   1.865 -0.4246 -0.5054 -0.1492
 3533SOL    HW111442   1.502   3.135   1.867  1.1900  1.7795  0.9030
 3533SOL    HW211443   1.412   3.220   1.955 -1.3605  0.8298 -0.6926
 3534SOL     OW11444   2.328   1.747   6.605  0.8345 -0.1385 -0.8938
 3534SOL    HW111445   2.296   1.831   6.572 -1.2494 -0.7939 -0.6744
 3534SOL    HW211446   2.302   1.746   6.697  2.0610 -0.4800 -0.5281
 3535SOL     OW11447   1.527   3.123   4.157 -0.3777 -0.2762  0.1092
 3535SOL    HW111448   1.590   3.083   4.097  1.9530  1.6574  1.0992
 3535SOL    HW211449   1.494   3.200   4.110 -0.0157  0.1480  0.5282
 3536SOL     OW11450   5.434   0.818   4.651  0.1518  0.2613 -0.3282
 3536SOL    HW111451   5.519   0.792   4.615 -0.6885 -1.5647 -1.1023
 3536SOL    HW211452   5.432   0.913   4.639  3.1782  0.8123  2.1954
 3537SOL     OW11453   0.191   1.574   5.424  0.5080  0.2976 -0.0407
 3537SOL    HW111454   0.257   1.514   5.391  3.1599  2.3868  1.0714
 3537SOL    HW211455   0.125   1.577   5.355  1.0363 -2.5827 -0.7999
 3538SOL     OW11456   4.702   7.727   8.131  0.1550  0.1872  0.2332
 3538SOL    HW111457   4.636   7.724   8.200  0.1389 -0.4277  0.1903
 3538SOL    HW211458   4.687   7.649   8.079  0.3851  0.4745 -0.2724
 3539SOL     OW11459   4.407   6.983   8.000  0.3575 -0.0951  0.0706
 3539SOL    HW111460   4.461   7.060   8.018  1.4966 -1.1662  1.6283
 3539SOL    HW211461   4.317   7.012   8.016  0.7383  1.0005  0.3087
 3540SOL     OW11462   7.135   1.513   6.878  0.1424  0.7476 -0.1625
 3540SOL    HW111463   7.185   1.470   6.946 -0.8511 -0.1121  0.0409
 3540SOL    HW211464   7.045   1.514   6.910 -0.3121  0.5090 -1.3680
 3541SOL     OW11465   5.885   4.589   3.687 -0.0351  0.5133  0.2588
 3541SOL    HW111466   5.940   4.535   3.630 -0.9186  0.3356 -0.4393
 3541SOL    HW211467   5.948   4.641   3.738  0.7775  1.0891 -1.2802
 3542SOL     OW11468   5.418   2.928   4.901 -0.1521 -0.6109 -0.3577
 3542SOL    HW111469   5.433   2.878   4.821 -0.2828 -0.8153 -0.2548
 3542SOL    HW211470   5.361   3.000   4.875  0.3007 -0.3208 -0.5758
 3543SOL     OW11471   7.169   7.452   1.418  0.6682  0.6063 -0.0190
 3543SOL    HW111472   7.143   7.371   1.462 -0.8568  0.9454 -0.2326
 3543SOL    HW211473   7.244   7.484   1.468  1.4803 -1.0758 -0.1130
 3544SOL     OW11474   6.381   5.280   1.174  0.6562 -0.0028 -0.4701
 3544SOL    HW111475   6.465   5.295   1.218  1.1871 -1.8231 -0.7608
 3544SOL    HW211476   6.317   5.325   1.228  1.3760 -1.4585  1.7621
 3545SOL     OW11477   1.322   5.815   1.537 -0.0198 -0.0065 -0.1783
 3545SOL    HW111478   1.243   5.769   1.508  0.3039 -1.5618  1.2229
 3545SOL    HW211479   1.378   5.746   1.573  2.9430  0.7055 -2.9913
 3546SOL     OW11480   3.099   1.240   2.193  0.5360  0.1322  0.0062
 3546SOL    HW111481   3.126   1.313   2.249 -2.3268  1.8747 -0.6883
 3546SOL    HW211482   3.068   1.282   2.112 -1.9216 -1.7132 -0.1240
 3547SOL     OW11483   0.761   7.114   1.384  0.3875 -0.2633  0.0228
 3547SOL    HW111484   0.687   7.054   1.372  0.0325  0.2527 -0.4286
 3547SOL    HW211485   0.807   7.081   1.461  1.1821 -2.1397 -1.1715
 3548SOL     OW11486   6.384   1.050   5.507  0.4118 -0.0590 -0.0544
 3548SOL    HW111487   6.296   1.022   5.533  0.6810 -1.8178 -0.9293
 3548SOL    HW211488   6.396   1.133   5.553 -1.2171 -0.3847  1.0802
 3549SOL     OW11489   1.735   5.228   1.959 -0.0121  0.1281  0.1129
 3549SOL    HW111490   1.758   5.307   2.008  0.1770  1.2714 -1.7192
 3549SOL    HW211491   1.642   5.239   1.938  0.1305  0.1021 -0.5524
 3550SOL     OW11492   5.979   7.691   5.995  0.5003 -0.2838 -0.3390
 3550SOL    HW111493   6.034   7.763   6.026 -1.1872  1.0581 -0.3191
 3550SOL    HW211494   6.039   7.616   5.988  2.4032  1.2107 -0.7969
 3551SOL     OW11495   4.998   0.742   6.666  0.6576 -0.0629 -0.0689
 3551SOL    HW111496   5.032   0.683   6.733 -0.1398  0.6659  1.0129
 3551SOL    HW211497   5.044   0.825   6.681  0.3223  0.1645 -0.2771
 3552SOL     OW11498   4.003   2.630   1.977 -0.0933 -0.1016  0.1134
 3552SOL    HW111499   4.061   2.600   1.907 -0.1231 -0.9265  0.4339
 3552SOL    HW211500   4.061   2.666   2.044  0.0570 -0.8677  0.4065
 3553SOL     OW11501   5.975   7.349   4.259 -0.3614  0.3191  0.4340
 3553SOL    HW111502   5.885   7.358   4.293 -1.2359 -1.0952 -1.3587
 3553SOL    HW211503   6.030   7.380   4.331 -2.2002 -0.2705  2.2086
 3554SOL     OW11504   2.799   4.491   2.554 -0.0676  0.2840 -0.5028
 3554SOL    HW111505   2.794   4.561   2.618 -3.3295 -1.0647  0.9388
 3554SOL    HW211506   2.770   4.531   2.472 -0.3017  0.9966 -0.0769
 3555SOL     OW11507   7.809   7.930   5.558  0.4217  0.0355  0.7959
 3555SOL    HW111508   7.825   8.010   5.608  1.2415  0.2449  0.2065
 3555SOL    HW211509   7.780   7.960   5.472  0.9490 -0.2903  0.4981
 3556SOL     OW11510   3.062   6.303   5.015  0.1910 -0.4122 -0.2280
 3556SOL    HW111511   3.068   6.207   5.010 -0.0182 -0.4669  0.4338
 3556SOL    HW211512   3.027   6.320   5.103  4.3390  0.4349  1.4927
 3557SOL     OW11513   7.971   7.830   2.812 -0.3231  0.2073 -0.1882
 3557SOL    HW111514   7.957   7.736   2.807  0.2341  0.1809 -2.2764
 3557SOL    HW211515   8.063   7.840   2.835 -0.5756  0.2653  0.8285
 3558SOL     OW11516   2.800   4.359   0.321  0.2212  0.2963 -0.6758
 3558SOL    HW111517   2.707   4.338   0.322  0.4411 -0.8273  1.1194
 3558SOL    HW211518   2.821   4.381   0.412  1.6407  0.8253 -1.1005
 3559SOL     OW11519   5.725   7.343   3.216 -0.3954  0.4249  0.2922
 3559SOL    HW111520   5.699   7.273   3.156  1.8980 -0.8015  0.6217
 3559SOL    HW211521   5.675   7.420   3.187 -1.0234 -0.6861 -1.7530
 3560SOL     OW11522   0.442   2.562   0.124  0.0109  0.0447  0.0835
 3560SOL    HW111523   0.407   2.564   0.213 -0.5075 -1.4639 -0.0581
 3560SOL    HW211524   0.522   2.511   0.130  0.2632  0.3951 -0.2335
 3561SOL     OW11525   2.278   7.895   1.012  0.3641 -0.2365 -0.3574
 3561SOL    HW111526   2.208   7.931   0.957 -1.0858 -2.3415 -0.0353
 3561SOL    HW211527   2.232   7.852   1.084  2.1844  2.1533  2.4311
 3562SOL     OW11528   5.985   7.181   4.483 -0.2577  0.3480  0.3129
 3562SOL    HW111529   6.074   7.193   4.515 -0.0917 -0.0196  0.0080
 3562SOL    HW211530   5.982   7.088   4.457 -0.2475  0.7238 -1.1289
 3563SOL     OW11531   5.959   0.847   2.580  0.0290 -0.6499  0.5150
 3563SOL    HW111532   5.976   0.942   2.581 -2.2650 -0.1460 -1.0103
 3563SOL    HW211533   6.037   0.809   2.539  0.1275  0.8171 -0.7380
 3564SOL     OW11534   3.153   0.145   4.224 -0.1432  0.0095  0.2638
 3564SOL    HW111535   3.091   0.100   4.167  0.0751  0.4092 -0.2974
 3564SOL    HW211536   3.150   0.237   4.196  0.0773  0.1824  0.7925
 3565SOL     OW11537   6.217   2.745   0.994  0.2550 -0.4257 -0.7009
 3565SOL    HW111538   6.310   2.740   0.970  0.5588  0.8470  0.1330
 3565SOL    HW211539   6.211   2.694   1.076  0.4783  0.5269 -0.0797
 3566SOL     OW11540   5.025   4.831   7.950 -0.1789  1.0388 -0.3426
 3566SOL    HW111541   5.070   4.883   7.883 -1.4550  1.6726 -0.7260
 3566SOL    HW211542   4.933   4.855   7.942 -0.5660 -0.0373  0.6134
 3567SOL     OW11543   7.429   3.184   6.513 -0.6115 -0.5069  0.4758
 3567SOL    HW111544   7.411   3.252   6.448 -1.0144 -1.3370 -0.3062
 3567SOL    HW211545   7.346   3.175   6.561 -0.3595 -0.0002  1.0263
 3568SOL     OW11546   5.544   5.216   3.425  0.2163 -0.5139 -0.3576
 3568SOL    HW111547   5.479   5.256   3.368  0.3778  0.5169  0.1634
 3568SOL    HW211548   5.562   5.131   3.384 -1.2311 -0.6971 -0.6619
 3569SOL     OW11549   5.509   7.340   2.832  0.2709 -0.3792  0.0732
 3569SOL    HW111550   5.560   7.341   2.751  1.1572  0.2156  0.6201
 3569SOL    HW211551   5.432   7.393   2.812 -0.6965 -2.1365 -1.0821
 3570SOL     OW11552   6.664   7.252   4.578  0.4779 -0.5104 -0.8257
 3570SOL    HW111553   6.615   7.296   4.648  1.6958 -0.0294 -0.2589
 3570SOL    HW211554   6.601   7.247   4.506 -0.3524  0.2715 -0.1909
 3571SOL     OW11555   3.416   0.045   0.429  0.3647 -0.1675 -0.4710
 3571SOL    HW111556   3.417   0.088   0.343 -0.4568 -0.0761 -0.4382
 3571SOL    HW211557   3.350   0.092   0.479 -0.5570 -1.4497 -0.4260
 3572SOL     OW11558   4.277   2.827   2.674 -0.3750 -0.1373  0.3802
 3572SOL    HW111559   4.259   2.778   2.754 -3.6065 -1.0735 -0.7672
 3572SOL    HW211560   4.294   2.916   2.704  2.7547 -1.1792  2.2905
 3573SOL     OW11561   3.322   5.940   3.673 -0.0593  0.2512 -0.0849
 3573SOL    HW111562   3.304   6.002   3.602  0.4817  0.5478  0.0305
 3573SOL    HW211563   3.236   5.909   3.700 -0.3958  1.5210  0.3529
 3574SOL     OW11564   2.739   7.760   6.447  0.2769 -0.2372 -0.4279
 3574SOL    HW111565   2.795   7.683   6.446 -0.2346 -0.7186  1.6411
 3574SOL    HW211566   2.650   7.725   6.458 -0.3834  0.5438 -2.6752
 3575SOL     OW11567   1.008   7.788   6.012  0.3223  0.2939 -0.3536
 3575SOL    HW111568   0.967   7.847   5.949 -0.4500  1.1310  0.9007
 3575SOL    HW211569   1.092   7.830   6.032 -0.2392  1.0435  0.5626
 3576SOL     OW11570   1.719   5.872   7.015 -0.4276 -0.9620 -0.1037
 3576SOL    HW111571   1.670   5.901   6.938  1.9928 -0.9251 -1.7094
 3576SOL    HW211572   1.759   5.789   6.988  0.2785 -1.0682  1.2018
 3577SOL     OW11573   4.637   7.090   0.429 -0.2426 -0.0177  0.5042
 3577SOL    HW111574   4.690   7.013   0.450 -0.1829 -0.9046 -2.4966
 3577SOL    HW211575   4.553   7.055   0.399 -0.3715  1.0960 -0.5082
 3578SOL     OW11576   5.739   7.893   2.489  0.1217  0.2721  0.3887
 3578SOL    HW111577   5.816   7.837   2.498  0.6588  1.1823  1.9200
 3578SOL    HW211578   5.689   7.878   2.570  0.1998  1.8335  0.7627
 3579SOL     OW11579   5.331   5.237   6.171  0.2007  0.0729  0.2434
 3579SOL    HW111580   5.303   5.153   6.208 -3.5286  1.2891  0.5821
 3579SOL    HW211581   5.412   5.257   6.217  0.7587 -2.8961  0.7718
 3580SOL     OW11582   1.666   1.308   0.852  0.0831 -0.3514  0.1634
 3580SOL    HW111583   1.722   1.320   0.929  0.0195  1.5755 -0.0393
 3580SOL    HW211584   1.591   1.366   0.867  0.8653  1.3895 -2.0542
 3581SOL     OW11585   0.343   1.695   3.072 -0.1944 -0.0472  0.0761
 3581SOL    HW111586   0.379   1.648   3.147 -1.1588 -0.9001  0.0283
 3581SOL    HW211587   0.260   1.730   3.103 -0.9222 -0.9769 -0.7704
 3582SOL     OW11588   2.759   5.822   3.859  0.1663  0.4054 -0.6308
 3582SOL    HW111589   2.704   5.755   3.817  0.3755  0.3846 -0.8751
 3582SOL    HW211590   2.849   5.795   3.839  0.2733  0.3490 -0.0915
 3583SOL     OW11591   5.911   6.258   1.801  0.6954 -0.3699 -0.2198
 3583SOL    HW111592   5.905   6.206   1.721  3.9051 -1.6931  0.2535
 3583SOL    HW211593   5.846   6.220   1.859 -0.2100 -0.7623 -1.4333
 3584SOL     OW11594   4.602   4.926   1.960 -0.1999  0.3718  0.4848
 3584SOL    HW111595   4.616   4.957   1.871 -1.1254 -0.3378  0.0717
 3584SOL    HW211596   4.690   4.919   1.998  0.1247  1.8906  0.0706
 3585SOL     OW11597   6.574   2.637   7.143  0.4334 -0.3102  0.4870
 3585SOL    HW111598   6.577   2.606   7.233 -2.3048  0.2978  0.8915
 3585SOL    HW211599   6.486   2.614   7.113  0.7378  0.8903 -1.5014
 3586SOL     OW11600   3.378   6.768   5.016  0.7700 -0.1382  0.1598
 3586SOL    HW111601   3.469   6.781   4.989  1.1347 -1.0428  0.8704
 3586SOL    HW211602   3.328   6.772   4.935  1.2996  1.4493 -0.1176
 3587SOL     OW11603   2.661   6.009   4.655 -0.0999  0.1331  0.1024
 3587SOL    HW111604   2.757   6.009   4.647  0.2225  2.3271  2.4844
 3587SOL    HW211605   2.635   6.094   4.619 -0.9559  0.2342  0.9414
 3588SOL     OW11606   4.325   1.896   2.595 -0.6295  0.4262 -0.3540
 3588SOL    HW111607   4.285   1.877   2.510  0.5661 -0.0993 -0.8318
 3588SOL    HW211608   4.259   1.872   2.659 -1.8687  1.6039 -1.1407
 3589SOL     OW11609   6.068   8.018   3.139 -0.1163  0.3787  0.4955
 3589SOL    HW111610   6.146   8.033   3.086 -1.1814  1.5670 -0.8012
 3589SOL    HW211611   6.092   8.050   3.226  0.6184  1.4256 -0.0687
 3590SOL     OW11612   6.973   4.250   1.833  0.0519  0.0922  0.0404
 3590SOL    HW111613   6.953   4.211   1.918 -0.3485  0.5808  0.1739
 3590SOL    HW211614   7.027   4.326   1.853 -0.5168  0.5395 -0.0914
 3591SOL     OW11615   0.501   0.974   3.563  0.5735 -0.0506  0.5418
 3591SOL    HW111616   0.499   1.069   3.575  0.6718 -0.0115  0.2560
 3591SOL    HW211617   0.556   0.961   3.486  2.3620 -0.4497  1.7951
 3592SOL     OW11618   4.773   4.727   4.327 -0.0056 -0.1938 -0.0912
 3592SOL    HW111619   4.837   4.664   4.294  0.5026  0.5632 -0.5647
 3592SOL    HW211620   4.823   4.808   4.339 -0.5332 -0.0023  0.9966
 3593SOL     OW11621   6.824   3.686   2.147  0.5295 -0.2709 -0.0948
 3593SOL    HW111622   6.860   3.770   2.174 -0.3156  0.3492 -0.8326
 3593SOL    HW211623   6.884   3.654   2.080 -0.4932  1.0111 -1.7058
 3594SOL     OW11624   2.994   5.919   1.673 -0.0175 -0.3330  0.0978
 3594SOL    HW111625   2.920   5.913   1.613 -0.1960 -1.2745  0.3884
 3594SOL    HW211626   2.972   5.857   1.743  0.3932  0.4113  0.8998
 3595SOL     OW11627   0.835   8.012   3.740  0.0559  0.6785 -0.1287
 3595SOL    HW111628   0.816   7.919   3.755  1.6273  0.0972 -1.4466
 3595SOL    HW211629   0.755   8.057   3.768 -0.5140 -0.9955  1.1298
 3596SOL     OW11630   3.657   7.522   1.941 -0.2512 -0.4388  0.7674
 3596SOL    HW111631   3.626   7.612   1.941 -1.5062 -0.8579  1.3317
 3596SOL    HW211632   3.714   7.516   2.018  1.7725  0.4713 -0.5679
 3597SOL     OW11633   2.656   5.826   0.494  0.2633  0.5339  0.3784
 3597SOL    HW111634   2.730   5.869   0.535  0.2527  1.0368 -0.1150
 3597SOL    HW211635   2.696   5.763   0.434  0.2925  0.7338  0.1871
 3598SOL     OW11636   3.705   7.351   1.743  0.2649 -0.0106 -0.7043
 3598SOL    HW111637   3.753   7.397   1.674 -1.6732  2.0627 -0.8175
 3598SOL    HW211638   3.708   7.411   1.817 -0.9136 -0.4558 -0.2753
 3599SOL     OW11639   0.012   7.665   8.145  0.3277  0.6431 -0.3773
 3599SOL    HW111640  -0.059   7.671   8.209  1.0281  1.5903  0.3357
 3599SOL    HW211641   0.090   7.647   8.197  0.8541  1.1193 -0.9899
 3600SOL     OW11642   5.002   6.025   5.484 -0.5697 -0.2280  0.0073
 3600SOL    HW111643   5.001   6.077   5.403  0.7984 -2.0664 -1.2781
 3600SOL    HW211644   5.067   5.956   5.467  0.7060  0.0530  3.1788
 3601SOL     OW11645   2.700   5.273   0.818 -0.0670  0.3249  0.7362
 3601SOL    HW111646   2.763   5.216   0.863  1.1446  1.2187  0.2299
 3601SOL    HW211647   2.622   5.269   0.873  0.6777 -0.2169  1.8108
 3602SOL     OW11648   3.788   3.570   7.326  0.1597 -0.1611  0.6203
 3602SOL    HW111649   3.884   3.577   7.323  0.1274  0.1166  0.1503
 3602SOL    HW211650   3.771   3.478   7.345  0.5083 -0.7167 -1.4876
 3603SOL     OW11651   5.076   3.325   1.534  0.0221 -0.2077 -0.0466
 3603SOL    HW111652   5.046   3.329   1.625 -0.8910 -0.3952 -0.3255
 3603SOL    HW211653   4.995   3.318   1.483  0.5656 -1.2649 -0.7954
 3604SOL     OW11654   7.942   6.843   1.591 -1.0895 -0.2189  0.4333
 3604SOL    HW111655   7.962   6.924   1.637 -2.1981  0.9407 -1.0203
 3604SOL    HW211656   7.923   6.870   1.501  0.1844 -2.2764 -0.5566
 3605SOL     OW11657   4.843   5.679   7.510 -0.7466 -0.0624  0.1336
 3605SOL    HW111658   4.921   5.624   7.509 -1.7797 -1.6058 -0.7894
 3605SOL    HW211659   4.771   5.618   7.493 -1.9917  1.5282 -0.5909
 3606SOL     OW11660   7.009   0.369   4.306  0.4306  0.3333 -0.3508
 3606SOL    HW111661   7.077   0.413   4.255  1.0185  1.9719  1.7057
 3606SOL    HW211662   6.928   0.413   4.281  0.0898 -1.3569 -2.5117
 3607SOL     OW11663   4.258   4.598   2.818  0.4892 -0.1473 -0.0182
 3607SOL    HW111664   4.166   4.616   2.799  0.6526  1.9732  0.8981
 3607SOL    HW211665   4.301   4.683   2.808  2.2162 -0.9286  0.4031
 3608SOL     OW11666   2.268   6.658   6.139  0.1792 -0.3513 -0.3780
 3608SOL    HW111667   2.230   6.703   6.063 -0.8811 -0.1187  0.2719
 3608SOL    HW211668   2.231   6.570   6.136 -1.1168  0.1252  0.7231
 3609SOL     OW11669   3.953   1.096   5.899  0.2312 -0.2588 -0.3474
 3609SOL    HW111670   3.925   1.168   5.956  0.7216  0.7058 -1.3007
 3609SOL    HW211671   3.872   1.063   5.860  0.2206  1.5648 -1.9748
 3610SOL     OW11672   0.306   6.443   7.431 -0.1080 -0.2908 -0.0777
 3610SOL    HW111673   0.394   6.453   7.393 -0.7537  0.2427 -1.5249
 3610SOL    HW211674   0.262   6.382   7.372 -0.5143 -1.0985  1.0319
 3611SOL     OW11675   5.585   0.934   5.277 -0.0193  0.3957 -0.0842
 3611SOL    HW111676   5.552   0.872   5.342 -2.0116  1.6742  0.2313
 3611SOL    HW211677   5.643   0.991   5.326  1.4650 -0.8952 -0.2816
 3612SOL     OW11678   6.898   7.614   6.629 -0.4046 -0.3472  0.3217
 3612SOL    HW111679   6.919   7.547   6.564  0.5370  1.4192 -1.2998
 3612SOL    HW211680   6.974   7.614   6.688 -0.7256 -1.1613  0.7417
 3613SOL     OW11681   4.706   4.936   6.754  0.1688  0.1736 -0.1620
 3613SOL    HW111682   4.639   4.968   6.693  0.8065  2.7286  0.3705
 3613SOL    HW211683   4.789   4.954   6.710  0.5827 -1.3135 -0.0401
 3614SOL     OW11684   2.279   6.527   5.102 -0.1432 -0.1567 -0.2829
 3614SOL    HW111685   2.271   6.433   5.122  0.3442 -0.3327 -0.8668
 3614SOL    HW211686   2.335   6.561   5.172 -0.4491 -0.2696  0.0196
 3615SOL     OW11687   2.065   6.981   3.384 -0.4824  0.2801 -0.0006
 3615SOL    HW111688   2.127   7.035   3.336 -1.7329  2.3750  0.6073
 3615SOL    HW211689   2.118   6.941   3.454  0.9837 -1.4423 -1.9741
 3616SOL     OW11690   1.042   1.780   3.993 -0.4625  0.2406 -0.4037
 3616SOL    HW111691   1.022   1.745   3.906 -1.1852 -1.5442  0.4363
 3616SOL    HW211692   1.077   1.705   4.041 -2.3745  0.5323  1.5844
 3617SOL     OW11693   5.710   3.108   4.439  0.7489 -0.4752  0.6321
 3617SOL    HW111694   5.622   3.069   4.442  0.5871 -0.2184 -0.4240
 3617SOL    HW211695   5.767   3.040   4.474  0.3169 -1.2093 -0.0673
 3618SOL     OW11696   2.101   6.569   3.914  0.4355 -0.2624  0.3425
 3618SOL    HW111697   2.050   6.544   3.837 -0.2962  0.1741  0.6698
 3618SOL    HW211698   2.045   6.632   3.960  0.2788 -1.5127  1.9337
 3619SOL     OW11699   1.440   4.898   5.439  0.0272  0.5376 -1.0072
 3619SOL    HW111700   1.490   4.836   5.386 -1.4314 -0.9069 -0.7854
 3619SOL    HW211701   1.361   4.850   5.464 -1.4057  2.6408 -1.2018
 3620SOL     OW11702   7.601   3.692   1.970  0.1993 -0.2153  0.3260
 3620SOL    HW111703   7.673   3.654   2.019  0.1100  1.2363  1.6582
 3620SOL    HW211704   7.591   3.780   2.006 -2.4688 -0.4815  0.4602
 3621SOL     OW11705   5.229   0.349   0.043  0.1937  0.1700 -0.4337
 3621SOL    HW111706   5.139   0.335   0.014  1.1161 -0.5912 -3.2643
 3621SOL    HW211707   5.238   0.444   0.049 -0.4950  0.3000 -1.2992
 3622SOL     OW11708   4.381   1.446   2.752  0.3337  0.2464  0.0766
 3622SOL    HW111709   4.288   1.431   2.736  0.5186 -0.7261 -0.1356
 3622SOL    HW211710   4.425   1.400   2.681  1.1106 -2.1596  2.0002
 3623SOL     OW11711   0.343   5.718   0.655  0.0538 -0.9122  0.1781
 3623SOL    HW111712   0.308   5.700   0.743  1.1664 -1.2311  0.5645
 3623SOL    HW211713   0.293   5.660   0.597 -1.6103  0.2302  0.3850
 3624SOL     OW11714   7.870   7.077   2.239  0.1727 -0.4095 -0.0945
 3624SOL    HW111715   7.880   6.996   2.188  1.3917 -0.5015  0.2487
 3624SOL    HW211716   7.815   7.052   2.313  0.1971 -0.8277 -0.2120
 3625SOL     OW11717   6.555   3.418   5.599  0.6952 -0.4414  0.3684
 3625SOL    HW111718   6.479   3.373   5.563  1.1172 -1.3833  0.6192
 3625SOL    HW211719   6.530   3.510   5.600 -0.8101 -0.8283  1.3463
 3626SOL     OW11720   0.344   0.507   6.581 -0.4661 -0.2705  0.4206
 3626SOL    HW111721   0.390   0.435   6.538 -1.4108 -0.3612 -0.5007
 3626SOL    HW211722   0.413   0.568   6.607  0.4606 -1.9966  2.2371
 3627SOL     OW11723   4.720   0.645   4.681  0.0764 -0.0265  0.1436
 3627SOL    HW111724   4.798   0.697   4.698  2.4658 -2.9494 -0.8749
 3627SOL    HW211725   4.700   0.602   4.764  2.1649 -2.3298 -0.4166
 3628SOL     OW11726   8.021   4.419   8.030  0.3328 -0.6802 -0.1539
 3628SOL    HW111727   7.979   4.368   8.099 -1.5341 -0.5709 -1.1441
 3628SOL    HW211728   7.960   4.491   8.013 -1.0844 -2.5428 -4.2213
 3629SOL     OW11729   7.313   4.884   2.434 -0.0014  0.3887  0.1243
 3629SOL    HW111730   7.222   4.907   2.452 -0.3144  0.8533 -1.8667
 3629SOL    HW211731   7.343   4.841   2.514 -1.4504  1.7095  1.4461
 3630SOL     OW11732   1.033   0.570   7.948 -0.5983  0.5661 -0.2103
 3630SOL    HW111733   1.054   0.491   7.899  0.6854  0.5100  0.3865
 3630SOL    HW211734   1.084   0.639   7.905 -0.8950  0.8630 -0.0874
 3631SOL     OW11735   0.965   2.555   3.664 -0.4481  0.3226 -0.3324
 3631SOL    HW111736   1.051   2.580   3.697  0.2842 -1.2773 -0.9377
 3631SOL    HW211737   0.909   2.631   3.682  0.9754  1.2188  0.4572
 3632SOL     OW11738   4.327   2.740   7.698 -0.1126  0.2074  0.3464
 3632SOL    HW111739   4.313   2.647   7.682 -0.3421 -0.3280  3.1529
 3632SOL    HW211740   4.422   2.749   7.706 -0.1075  0.1420  0.3638
 3633SOL     OW11741   0.013   3.810   6.158  0.6956 -0.2429  0.2023
 3633SOL    HW111742   0.103   3.817   6.125  0.8584  1.1022  0.8610
 3633SOL    HW211743  -0.040   3.795   6.080  1.5618 -1.9141 -0.1098
 3634SOL     OW11744   7.612   5.009   2.186 -0.2913 -0.3436  0.0366
 3634SOL    HW111745   7.650   4.948   2.250  0.7738  0.7186  0.4642
 3634SOL    HW211746   7.687   5.039   2.135 -0.8971  0.1067 -0.6025
 3635SOL     OW11747   2.839   7.455   0.097 -0.3304  0.3199 -0.4190
 3635SOL    HW111748   2.848   7.454   0.001 -0.0358 -0.1516 -0.3938
 3635SOL    HW211749   2.746   7.472   0.112 -0.2807  0.9527 -0.7781
 3636SOL     OW11750   2.050   3.774   3.157  0.1115  0.2882  0.2287
 3636SOL    HW111751   2.085   3.856   3.193 -0.1847 -0.6675  2.9933
 3636SOL    HW211752   2.009   3.731   3.232  0.4051 -2.4897 -1.0584
 3637SOL     OW11753   0.891   5.912   6.503 -0.3815  0.3883  0.2556
 3637SOL    HW111754   0.878   5.860   6.582 -0.9291 -1.2105 -0.8422
 3637SOL    HW211755   0.811   5.898   6.452  1.1306 -1.0416 -1.9075
 3638SOL     OW11756   2.271   0.961   5.719  0.0191 -0.0619  0.4059
 3638SOL    HW111757   2.277   1.037   5.661  0.9900 -0.8599 -0.5961
 3638SOL    HW211758   2.182   0.964   5.754 -0.2523  1.0259 -0.3215
 3639SOL     OW11759   8.144   3.342   5.334 -0.3055  0.0371 -0.3528
 3639SOL    HW111760   8.100   3.351   5.419  2.6737 -1.2875  1.4558
 3639SOL    HW211761   8.180   3.429   5.317  0.3447 -0.0459  0.5266
 3640SOL     OW11762   6.823   2.113   3.760  0.5530 -0.3144  0.1225
 3640SOL    HW111763   6.813   2.200   3.721 -2.0571 -0.7984 -0.4483
 3640SOL    HW211764   6.862   2.060   3.690  2.2026  0.3530  0.4893
 3641SOL     OW11765   2.827   7.300   6.709  0.1106 -0.0159  0.2183
 3641SOL    HW111766   2.844   7.210   6.683  3.1539  0.3040  0.7102
 3641SOL    HW211767   2.815   7.296   6.804  1.2697  0.1420  0.3952
 3642SOL     OW11768   4.356   5.555   7.678 -0.1456 -0.2389  0.1830
 3642SOL    HW111769   4.384   5.623   7.617  2.6667 -1.7171 -0.3791
 3642SOL    HW211770   4.438   5.516   7.708 -1.6017 -2.4421  1.5368
 3643SOL     OW11771   6.090   3.978   6.304  0.1691  0.2057 -0.1351
 3643SOL    HW111772   5.995   3.974   6.292  0.0799 -2.5446  0.7036
 3643SOL    HW211773   6.123   3.903   6.255  1.6827  0.0096  1.1157
 3644SOL     OW11774   4.734   6.659   3.398  0.2862 -0.1720 -0.2714
 3644SOL    HW111775   4.771   6.571   3.408  0.5649 -0.1075 -0.7366
 3644SOL    HW211776   4.724   6.670   3.304  0.8946  0.5683 -0.2501
 3645SOL     OW11777   2.269   1.670   4.926  0.0983 -0.0315  0.1131
 3645SOL    HW111778   2.269   1.609   4.999 -2.1313 -0.6566 -0.3178
 3645SOL    HW211779   2.316   1.624   4.856  0.2045 -0.4130  0.4337
 3646SOL     OW11780   7.267   3.233   5.506 -0.2563  0.0154  0.1834
 3646SOL    HW111781   7.264   3.156   5.450 -0.6899  0.7525 -0.8487
 3646SOL    HW211782   7.192   3.286   5.478  1.1674  1.7469 -0.5305
 3647SOL     OW11783   7.016   2.372   8.156  0.6358  0.7601 -0.1426
 3647SOL    HW111784   7.106   2.341   8.157  0.4881  0.3068 -0.6943
 3647SOL    HW211785   6.966   2.302   8.114 -0.2068  0.3844  1.3721
 3648SOL     OW11786   8.208   1.869   1.183  0.0024 -0.3033  0.6311
 3648SOL    HW111787   8.296   1.894   1.156  0.4779 -0.5215  1.8962
 3648SOL    HW211788   8.165   1.952   1.204 -0.1892 -0.1778 -0.2203
 3649SOL     OW11789   7.347   2.253   4.337 -0.1995  0.3868  0.8380
 3649SOL    HW111790   7.404   2.268   4.412 -1.0323 -1.0452  1.8034
 3649SOL    HW211791   7.289   2.329   4.335  0.4368  0.8857  1.0522
 3650SOL     OW11792   0.966   5.778   5.019  0.6602 -0.0123 -0.2522
 3650SOL    HW111793   0.963   5.694   5.065  3.4202 -0.5308 -0.8681
 3650SOL    HW211794   0.938   5.759   4.930  1.3424 -0.3113 -0.4066
 3651SOL     OW11795   2.401   4.756   5.189  0.4790 -0.1834  0.3887
 3651SOL    HW111796   2.362   4.842   5.204  0.4819 -0.4330  2.0126
 3651SOL    HW211797   2.488   4.762   5.228  0.5443 -0.8761  0.3547
 3652SOL     OW11798   2.895   7.724   7.441 -0.2020 -0.0876 -0.3757
 3652SOL    HW111799   2.833   7.659   7.410  1.1206 -0.6963 -1.9128
 3652SOL    HW211800   2.974   7.674   7.462 -0.1742  0.6667  1.4475
 3653SOL     OW11801   3.453   3.601   3.563 -0.0343 -0.3018 -0.0816
 3653SOL    HW111802   3.373   3.556   3.535  0.0570 -0.8893  0.5514
 3653SOL    HW211803   3.511   3.530   3.592  0.7479  0.1153 -0.6158
 3654SOL     OW11804   7.835   2.522   4.140 -0.1639  0.0624  0.0071
 3654SOL    HW111805   7.931   2.522   4.132 -0.1553  0.2658  0.0994
 3654SOL    HW211806   7.804   2.525   4.050 -0.0748  1.3375  0.0073
 3655SOL     OW11807   0.485   1.433   2.619 -0.2471  0.0966 -0.2763
 3655SOL    HW111808   0.423   1.478   2.562  1.0554  0.1171 -1.7247
 3655SOL    HW211809   0.502   1.349   2.576  1.3150  0.4109 -0.3161
 3656SOL     OW11810   2.054   1.513   6.828 -0.4151  0.4285 -0.1247
 3656SOL    HW111811   2.114   1.439   6.823 -0.2307  0.6178 -0.8401
 3656SOL    HW211812   2.023   1.513   6.919  0.1904 -0.0407  0.0878
 3657SOL     OW11813   2.387   2.786   2.880 -0.1371 -0.0180  0.2701
 3657SOL    HW111814   2.359   2.844   2.950 -1.1698  0.2146 -0.3193
 3657SOL    HW211815   2.387   2.841   2.802  1.1554 -0.2321  0.0919
 3658SOL     OW11816   2.917   4.145   5.865 -0.3704 -0.0461  0.0654
 3658SOL    HW111817   2.884   4.232   5.887 -1.6682 -1.1563  2.8916
 3658SOL    HW211818   2.844   4.102   5.820 -1.3709 -1.0265  2.4630
 3659SOL     OW11819   2.987   6.539   7.202 -0.3645  0.0908 -0.3160
 3659SOL    HW111820   3.061   6.506   7.151 -0.0818 -0.1068  0.2144
 3659SOL    HW211821   2.920   6.472   7.193  0.6453 -1.3178  1.7860
 3660SOL     OW11822   4.947   7.365   5.074  0.0293  0.1244 -0.3781
 3660SOL    HW111823   4.887   7.416   5.019  0.1915  0.0964 -0.5811
 3660SOL    HW211824   5.028   7.361   5.024  0.8526  1.7926  0.7017
 3661SOL     OW11825   3.632   3.624   6.511  0.2174  0.1211  0.2502
 3661SOL    HW111826   3.592   3.656   6.430  1.3933  1.5663  0.1892
 3661SOL    HW211827   3.647   3.704   6.563 -0.2707 -0.7474  1.7976
 3662SOL     OW11828   4.770   5.359   1.005  0.1368  0.0531  0.1693
 3662SOL    HW111829   4.822   5.341   1.083  0.8525 -0.0550 -0.3227
 3662SOL    HW211830   4.761   5.454   1.003  0.8276  0.1199 -0.0585
 3663SOL     OW11831   2.928   5.609   4.403 -0.1556 -0.6253 -0.5669
 3663SOL    HW111832   2.954   5.701   4.408 -1.7880 -0.1509 -0.5280
 3663SOL    HW211833   2.985   5.565   4.466 -0.6124  0.6604  0.8007
 3664SOL     OW11834   3.048   3.582   3.344 -0.1144 -0.1209  0.2221
 3664SOL    HW111835   3.122   3.615   3.294  0.0526 -0.1972  0.4195
 3664SOL    HW211836   2.974   3.587   3.283  0.1591 -0.5466 -0.1474
 3665SOL     OW11837   0.588   6.163   3.834  0.0763 -0.0831  0.1270
 3665SOL    HW111838   0.567   6.224   3.906 -0.1937  0.1141 -0.1145
 3665SOL    HW211839   0.609   6.081   3.878 -1.0947 -0.2605  0.3987
 3666SOL     OW11840   8.076   8.072   7.244 -0.4672 -0.2403  0.3643
 3666SOL    HW111841   8.156   8.020   7.251 -0.5717 -0.3321  0.9752
 3666SOL    HW211842   8.104   8.162   7.259 -0.3128 -0.1349 -0.5157
 3667SOL     OW11843   7.654   4.086   5.140 -0.0864 -0.2609 -0.6297
 3667SOL    HW111844   7.686   4.156   5.084  0.6661  1.0118  1.3004
 3667SOL    HW211845   7.560   4.082   5.123 -0.7586  3.3475  1.3478
 3668SOL     OW11846   5.464   5.144   3.109  0.2772 -0.7019  0.4073
 3668SOL    HW111847   5.495   5.054   3.121  1.6701 -0.3525 -0.3937
 3668SOL    HW211848   5.537   5.189   3.067 -0.4970  0.7522  0.5711
 3669SOL     OW11849   3.248   4.579   7.921  0.5546 -0.4766  0.4904
 3669SOL    HW111850   3.283   4.636   7.853  1.6054 -1.0578  0.5335
 3669SOL    HW211851   3.212   4.504   7.874  3.1229 -1.8797  0.6258
 3670SOL     OW11852   1.723   5.231   3.733  0.0953 -0.6574  0.0866
 3670SOL    HW111853   1.672   5.151   3.742  0.6687 -1.1972 -1.2842
 3670SOL    HW211854   1.660   5.302   3.746 -0.7645 -1.3206 -0.4065
 3671SOL     OW11855   6.245   3.958   1.279 -0.5648 -0.3009 -0.4685
 3671SOL    HW111856   6.332   3.923   1.261 -0.6524 -0.0988 -1.3713
 3671SOL    HW211857   6.259   4.052   1.294 -0.4217 -0.5660  1.1839
 3672SOL     OW11858   5.537   1.355   3.302 -0.1562 -0.0050 -0.1413
 3672SOL    HW111859   5.541   1.364   3.397  1.5599  1.1588 -0.2824
 3672SOL    HW211860   5.508   1.441   3.271  0.7729  0.1057 -0.7321
 3673SOL     OW11861   2.913   6.604   7.543  0.4269  0.3303 -0.6574
 3673SOL    HW111862   2.941   6.610   7.634 -1.7112 -3.0357  0.3823
 3673SOL    HW211863   2.965   6.533   7.506 -2.2838 -1.9337 -0.4003
 3674SOL     OW11864   0.104   2.338   7.124  0.0823 -0.0977  0.3211
 3674SOL    HW111865   0.103   2.365   7.216  2.7422 -0.0042  0.3867
 3674SOL    HW211866   0.196   2.339   7.099 -0.4938 -0.8922 -2.1474
 3675SOL     OW11867   2.092   0.100   3.723 -0.3939 -0.2244  0.3784
 3675SOL    HW111868   2.135   0.054   3.795 -1.3773 -0.2772  0.9503
 3675SOL    HW211869   2.005   0.061   3.719 -1.4560  1.9135  1.2271
 3676SOL     OW11870   7.295   7.901   2.250  0.5919 -0.6325  0.0208
 3676SOL    HW111871   7.345   7.912   2.169 -0.2280  0.8801 -0.3162
 3676SOL    HW211872   7.294   7.988   2.289 -1.1114 -0.7885  0.3981
 3677SOL     OW11873   1.689   1.077   4.599 -0.1207  0.1857  0.8034
 3677SOL    HW111874   1.648   1.159   4.626 -0.7249  0.7608 -1.5763
 3677SOL    HW211875   1.645   1.054   4.517 -0.0112 -2.5805  1.4133
 3678SOL     OW11876   5.234   0.883   7.390  0.0117  0.0910 -0.0229
 3678SOL    HW111877   5.173   0.947   7.355 -0.2164 -0.1844 -0.1361
 3678SOL    HW211878   5.248   0.821   7.318  0.5242  0.2263 -0.0379
 3679SOL     OW11879   4.966   3.005   2.280  0.2530  0.4248 -0.6368
 3679SOL    HW111880   4.885   3.043   2.247 -0.1531  1.3879  1.3405
 3679SOL    HW211881   4.952   2.910   2.273 -0.9248  0.5787 -0.6343
 3680SOL     OW11882   3.496   6.134   2.587 -0.0119 -0.2343  0.3708
 3680SOL    HW111883   3.586   6.108   2.602  0.1650  0.4661  0.5827
 3680SOL    HW211884   3.467   6.170   2.671 -0.0429  0.8017 -0.0671
 3681SOL     OW11885   5.284   7.988   3.360  0.0400 -0.0552 -0.6055
 3681SOL    HW111886   5.261   7.896   3.344 -0.0477  0.1613 -1.8332
 3681SOL    HW211887   5.206   8.037   3.332 -0.2975  0.3515  0.9785
 3682SOL     OW11888   3.893   6.887   1.765  0.1193  0.1836  0.0171
 3682SOL    HW111889   3.975   6.925   1.732 -0.2701  0.2682 -0.8735
 3682SOL    HW211890   3.874   6.815   1.706 -1.7422  1.6956 -1.3441
 3683SOL     OW11891   7.284   0.181   7.629  0.2779  0.2859 -0.4496
 3683SOL    HW111892   7.346   0.247   7.598 -1.5388  1.8585 -0.8672
 3683SOL    HW211893   7.295   0.181   7.724  0.0997  1.4424 -0.4096
 3684SOL     OW11894   5.034   7.397   0.212  0.0729 -0.0708 -0.6794
 3684SOL    HW111895   5.050   7.373   0.303 -0.9380  0.1975 -0.4067
 3684SOL    HW211896   5.077   7.330   0.160  1.6123  0.3752 -0.0313
 3685SOL     OW11897   7.599   7.519   3.214 -0.1290  0.2413 -0.4454
 3685SOL    HW111898   7.647   7.551   3.291 -1.2182  0.5072  0.1408
 3685SOL    HW211899   7.632   7.572   3.142  0.2382  0.6276 -0.0069
 3686SOL     OW11900   0.746   7.384   4.280  0.3259 -0.1919 -0.5711
 3686SOL    HW111901   0.821   7.324   4.277  1.8368  1.4713  1.2557
 3686SOL    HW211902   0.683   7.340   4.337  1.7479  0.1945  1.4130
 3687SOL     OW11903   3.807   2.405   6.881  0.2686  0.3057 -0.5603
 3687SOL    HW111904   3.787   2.400   6.974  0.3427  0.5546 -0.5302
 3687SOL    HW211905   3.722   2.402   6.837  0.3072 -1.8838 -0.5874
 3688SOL     OW11906   5.004   6.906   1.777 -0.5910  0.3264 -0.0138
 3688SOL    HW111907   5.001   6.871   1.688  0.6337 -1.3624  0.5523
 3688SOL    HW211908   4.937   6.856   1.825 -0.2563  0.2104  0.3383
 3689SOL     OW11909   4.287   2.738   2.093  0.1961 -0.1432 -0.4216
 3689SOL    HW111910   4.378   2.742   2.063 -0.1935 -0.0597 -1.6252
 3689SOL    HW211911   4.281   2.655   2.141  1.0925  0.2151  0.3427
 3690SOL     OW11912   7.690   0.090   5.773 -0.0922 -0.4287 -0.1963
 3690SOL    HW111913   7.608   0.072   5.819 -0.5679 -0.3090 -0.9739
 3690SOL    HW211914   7.691   0.185   5.764  1.3675 -0.1600  2.0020
 3691SOL     OW11915   5.163   6.249   4.885  0.1583  0.2958  0.1123
 3691SOL    HW111916   5.183   6.331   4.840  0.5893  1.1807  1.8421
 3691SOL    HW211917   5.243   6.197   4.875  2.0294  2.1934  3.4191
 3692SOL     OW11918   3.509   5.523   7.410  0.0886 -0.2922  0.3446
 3692SOL    HW111919   3.594   5.480   7.405  0.2448 -0.0582  0.9315
 3692SOL    HW211920   3.504   5.577   7.331  0.9851  0.5994  0.8742
 3693SOL     OW11921   7.065   6.106   1.077  0.5213 -0.1105 -0.0191
 3693SOL    HW111922   6.971   6.089   1.075  0.6590 -1.0388  0.6169
 3693SOL    HW211923   7.072   6.201   1.076 -0.3373  0.0034 -2.4028
 3694SOL     OW11924   0.857   4.657   2.697 -0.6861 -0.3723 -0.5238
 3694SOL    HW111925   0.908   4.606   2.761 -1.7237  0.9291  1.4388
 3694SOL    HW211926   0.768   4.624   2.705 -1.0680  0.6544 -0.3677
 3695SOL     OW11927   4.951   6.737   4.897  0.0638  0.1473  0.0169
 3695SOL    HW111928   4.868   6.711   4.939 -0.2226  0.3065 -0.4418
 3695SOL    HW211929   4.925   6.767   4.810  0.7087 -0.6461 -0.4646
 3696SOL     OW11930   6.637   2.036   4.939  0.0711 -0.4528  0.3778
 3696SOL    HW111931   6.625   2.042   4.845  3.5457  0.0749 -0.1758
 3696SOL    HW211932   6.606   1.949   4.963  0.0448 -0.9688 -1.4273
 3697SOL     OW11933   8.184   6.938   1.923  0.5295  0.1816  0.6720
 3697SOL    HW111934   8.278   6.932   1.904  0.1233 -0.0777 -1.5486
 3697SOL    HW211935   8.165   6.861   1.975  0.9861 -1.7512 -1.8032
 3698SOL     OW11936   2.510   1.839   5.510 -0.3350 -0.4508 -0.7965
 3698SOL    HW111937   2.474   1.811   5.425  0.2332  0.2095 -1.2627
 3698SOL    HW211938   2.448   1.905   5.541 -0.1674 -0.1814 -1.0320
 3699SOL     OW11939   0.408   6.491   5.521  0.1994 -0.4666 -0.5414
 3699SOL    HW111940   0.494   6.525   5.495 -0.2811  0.5200 -0.9059
 3699SOL    HW211941   0.407   6.497   5.616  0.1215  0.6082 -0.5950
 3700SOL     OW11942   1.950   7.410   1.798  0.2564 -0.0168  0.0888
 3700SOL    HW111943   1.982   7.469   1.730  0.0133  2.0123  1.6643
 3700SOL    HW211944   2.023   7.349   1.812  1.2852  1.0863 -0.2619
 3701SOL     OW11945   4.257   3.444   1.644  0.4018 -0.6694 -0.0638
 3701SOL    HW111946   4.327   3.510   1.638 -0.5483  0.4927  1.1176
 3701SOL    HW211947   4.177   3.495   1.650 -0.3744 -1.9442  0.7962
 3702SOL     OW11948   0.462   5.076   4.219 -0.2853 -0.2702  0.2677
 3702SOL    HW111949   0.444   4.983   4.235  2.5024 -1.0300 -0.4134
 3702SOL    HW211950   0.463   5.084   4.124  0.1088  0.2912  0.3138
 3703SOL     OW11951   0.342   1.166   3.914  0.2367 -0.1738 -0.0062
 3703SOL    HW111952   0.296   1.249   3.925  0.9202  0.1405  0.5792
 3703SOL    HW211953   0.406   1.183   3.844  0.3240 -0.2286  0.0604
 3704SOL     OW11954   2.758   7.708   3.424  0.3747  0.0931  0.2786
 3704SOL    HW111955   2.768   7.633   3.482  1.5507 -1.1435 -1.4035
 3704SOL    HW211956   2.689   7.681   3.362 -0.5301  1.1905  0.7820
 3705SOL     OW11957   6.739   4.531   3.038 -0.3954 -0.1237  0.3124
 3705SOL    HW111958   6.731   4.593   2.965 -0.7026 -0.3532  0.1471
 3705SOL    HW211959   6.697   4.576   3.112  1.0322  0.6358  0.6968
 3706SOL     OW11960   7.674   3.257   3.128 -0.0151  0.1137  0.2200
 3706SOL    HW111961   7.670   3.246   3.033 -1.0205  0.1449  0.2447
 3706SOL    HW211962   7.718   3.178   3.160 -0.9374 -0.5712 -0.1641
 3707SOL     OW11963   2.220   4.277   7.471 -0.3971  0.5315 -0.2622
 3707SOL    HW111964   2.193   4.254   7.560 -1.3708  0.3075 -0.6048
 3707SOL    HW211965   2.249   4.368   7.477 -2.5186  1.2433 -0.1148
 3708SOL     OW11966   6.111   0.265   1.431 -0.0171  0.2017 -0.1761
 3708SOL    HW111967   6.079   0.175   1.433  2.5382 -0.7966  2.7073
 3708SOL    HW211968   6.192   0.260   1.380  1.2719  0.3270  1.7558
 3709SOL     OW11969   1.448   3.651   0.052 -0.8007 -0.4745 -0.6103
 3709SOL    HW111970   1.499   3.580   0.091  0.7382  1.0793  0.3168
 3709SOL    HW211971   1.510   3.723   0.043 -2.1193  0.5126 -2.3034
 3710SOL     OW11972   0.415   5.400   6.703  0.4330  0.2037  0.4259
 3710SOL    HW111973   0.361   5.323   6.721  1.0573 -0.4114 -0.2524
 3710SOL    HW211974   0.505   5.368   6.706  0.6548  0.5330 -1.4067
 3711SOL     OW11975   6.948   2.951   6.879  1.0231 -0.4092 -0.0021
 3711SOL    HW111976   6.884   2.955   6.809  2.2451 -1.7434 -1.2556
 3711SOL    HW211977   6.984   3.040   6.884 -1.2090  0.5099  1.0897
 3712SOL     OW11978   4.226   6.178   5.206  0.1714  0.8207  0.1248
 3712SOL    HW111979   4.172   6.250   5.172 -0.8568 -0.2884 -0.7031
 3712SOL    HW211980   4.282   6.154   5.132  1.0714  1.2768  0.6522
 3713SOL     OW11981   3.315   3.936   0.797 -0.7647 -0.0967  0.0949
 3713SOL    HW111982   3.264   3.948   0.717 -0.5669 -0.4843 -0.0918
 3713SOL    HW211983   3.260   3.879   0.851 -0.9701  0.2945  0.3065
 3714SOL     OW11984   2.444   3.769   2.529  0.0036  0.0817 -0.8408
 3714SOL    HW111985   2.527   3.751   2.572  0.4025  0.7941 -1.2797
 3714SOL    HW211986   2.404   3.838   2.582  0.8232  1.4763 -1.9480
 3715SOL     OW11987   4.684   0.358   3.927  0.3051  0.2151 -0.1861
 3715SOL    HW111988   4.658   0.431   3.871  0.7745  0.0878 -0.5763
 3715SOL    HW211989   4.778   0.349   3.912  0.9004  1.5307  2.1673
 3716SOL     OW11990   3.762   7.475   4.724 -0.4932  0.0559  0.7936
 3716SOL    HW111991   3.728   7.436   4.644  0.0768  0.7843  0.1801
 3716SOL    HW211992   3.848   7.434   4.737 -1.2439 -1.2411  1.9359
 3717SOL     OW11993   2.058   6.245   1.274  0.5167 -0.4414 -0.2298
 3717SOL    HW111994   1.985   6.191   1.305  0.8239 -0.1182  1.1082
 3717SOL    HW211995   2.032   6.335   1.295  2.9439 -0.4869  4.2545
 3718SOL     OW11996   1.547   6.158   5.942 -0.2483  0.4981  0.0020
 3718SOL    HW111997   1.575   6.083   5.995 -0.5991 -0.0958 -0.6485
 3718SOL    HW211998   1.466   6.188   5.983 -0.1318  0.5055  0.2334
 3719SOL     OW11999   4.093   4.721   0.306  0.3151 -0.2612 -0.0035
 3719SOL    HW112000   4.002   4.699   0.288 -0.3078 -1.0915  3.4794
 3719SOL    HW212001   4.144   4.664   0.248 -1.3815 -1.8249 -0.0324
 3720SOL     OW12002   6.322   4.728   0.266  0.6093 -0.1839  0.1331
 3720SOL    HW112003   6.375   4.741   0.345  1.8159 -1.0295 -0.4935
 3720SOL    HW212004   6.369   4.775   0.197 -0.3439  0.4120 -0.1348
 3721SOL     OW12005   2.725   0.211   0.033  0.9189 -0.3710 -0.6288
 3721SOL    HW112006   2.785   0.207   0.108  1.3722  0.6039 -0.9100
 3721SOL    HW212007   2.681   0.295   0.043  1.0271 -0.2042 -1.4794
 3722SOL     OW12008   2.490   6.055   6.672 -0.1586  0.4413 -0.4478
 3722SOL    HW112009   2.446   6.059   6.757  0.4105 -2.2644  0.0687
 3722SOL    HW212010   2.431   6.003   6.617  1.5768 -2.0181 -0.1639
 3723SOL     OW12011   4.994   7.297   1.316 -0.2773 -0.0261  0.4814
 3723SOL    HW112012   5.008   7.249   1.398  0.3819  1.1946  1.0952
 3723SOL    HW212013   5.081   7.326   1.289 -0.5811  0.2099 -0.2682
 3724SOL     OW12014   6.279   4.492   5.818  0.2634 -0.1820  0.1581
 3724SOL    HW112015   6.322   4.556   5.874 -0.1102  0.1557  0.0576
 3724SOL    HW212016   6.211   4.454   5.873  0.5943 -0.6235  0.2740
 3725SOL     OW12017   4.398   6.085   0.355 -0.4905 -0.3220  0.1071
 3725SOL    HW112018   4.390   6.152   0.287 -1.4981 -0.5727 -0.0445
 3725SOL    HW212019   4.428   6.132   0.432  1.9717 -0.2335 -0.7981
 3726SOL     OW12020   7.275   3.086   0.623 -0.7525 -0.3740 -0.2040
 3726SOL    HW112021   7.277   3.121   0.712 -0.6123  1.3174 -0.8497
 3726SOL    HW212022   7.182   3.079   0.602 -0.8040 -1.3974  0.2789
 3727SOL     OW12023   0.917   3.455   6.027 -0.5945  0.2743  0.1541
 3727SOL    HW112024   1.001   3.411   6.039 -1.3231 -1.1921  0.0812
 3727SOL    HW212025   0.931   3.543   6.062  0.7461 -0.1754  0.8228
 3728SOL     OW12026   1.430   0.018   7.307 -0.7173  0.4655  0.2448
 3728SOL    HW112027   1.391   0.102   7.283  1.1901  2.1192  2.3947
 3728SOL    HW212028   1.396   0.000   7.395  1.4860  0.8401  1.2431
 3729SOL     OW12029   0.010   2.062   0.327 -0.2161 -0.0540 -0.1038
 3729SOL    HW112030   0.095   2.051   0.283  0.0979  0.6854  0.3111
 3729SOL    HW212031   0.021   2.139   0.382 -1.3813  0.4647 -0.5718
 3730SOL     OW12032   2.029   4.315   4.411  0.7610  0.0848 -0.4835
 3730SOL    HW112033   1.959   4.291   4.351  0.6404 -0.4394 -0.1303
 3730SOL    HW212034   2.100   4.345   4.353  0.2918  0.5254 -0.8430
 3731SOL     OW12035   0.214   3.935   4.721 -0.2004 -0.3490  0.4090
 3731SOL    HW112036   0.291   3.877   4.719  0.9734  1.1520  0.0625
 3731SOL    HW212037   0.158   3.902   4.651  0.8497 -0.5492 -0.3684
 3732SOL     OW12038   0.096   3.521   2.403  0.0959  0.5200  0.1040
 3732SOL    HW112039   0.016   3.472   2.419 -0.0508  0.8760  0.4734
 3732SOL    HW212040   0.074   3.612   2.423  1.3502  0.2774  3.0724
 3733SOL     OW12041   1.096   6.849   1.705  0.5363 -0.4244  0.0583
 3733SOL    HW112042   1.140   6.913   1.648  0.3764 -0.5832 -0.2480
 3733SOL    HW212043   1.065   6.900   1.779  2.9521 -0.6047  1.2931
 3734SOL     OW12044   5.590   7.520   7.169  0.4333 -0.1403 -0.0558
 3734SOL    HW112045   5.672   7.474   7.148  0.7114 -0.8329  2.2815
 3734SOL    HW212046   5.531   7.497   7.098  2.2111  0.3478 -1.8024
 3735SOL     OW12047   7.929   2.575   0.776  0.0123  0.0668  0.0088
 3735SOL    HW112048   7.913   2.623   0.695  0.3769  0.3501  0.1036
 3735SOL    HW212049   8.011   2.610   0.810 -1.2361  1.5630  1.6735
 3736SOL     OW12050   2.432   4.660   1.482  0.7100  0.4660  0.5398
 3736SOL    HW112051   2.373   4.669   1.407  0.9317 -0.1522  0.2880
 3736SOL    HW212052   2.408   4.577   1.522  0.5214  0.8435  1.2279
 3737SOL     OW12053   5.611   7.155   4.367 -0.4342  0.3102  0.1734
 3737SOL    HW112054   5.584   7.213   4.295  0.7524  0.0700 -0.4770
 3737SOL    HW212055   5.662   7.211   4.425  1.0721 -0.1383 -0.6679
 3738SOL     OW12056   0.113   5.344   3.101  0.1037  0.2441  0.0970
 3738SOL    HW112057   0.185   5.282   3.110  0.0974  0.0957 -0.8345
 3738SOL    HW212058   0.116   5.396   3.181  0.6166 -0.4206  0.5143
 3739SOL     OW12059   7.372   2.976   3.784 -0.4425  0.1259 -0.4369
 3739SOL    HW112060   7.414   3.007   3.864  2.6542 -2.7451 -0.7416
 3739SOL    HW212061   7.280   2.998   3.795  0.1590  1.4665  3.0586
 3740SOL     OW12062   3.817   0.476   7.026  0.6090  0.0331  0.6923
 3740SOL    HW112063   3.910   0.479   7.000  0.4247 -0.8408 -0.1332
 3740SOL    HW212064   3.809   0.395   7.076  0.0503 -0.5264 -0.2738
 3741SOL     OW12065   7.124   4.582   7.429 -0.1421  0.3650  0.0296
 3741SOL    HW112066   7.210   4.584   7.386 -0.0718  0.2434  0.1609
 3741SOL    HW212067   7.063   4.613   7.363 -0.2980 -1.4621 -0.7347
 3742SOL     OW12068   2.763   3.268   4.929  0.1929 -0.6035  0.3872
 3742SOL    HW112069   2.853   3.264   4.960  0.2524 -0.0845  0.2958
 3742SOL    HW212070   2.765   3.224   4.843  0.1868 -1.3317  0.7547
 3743SOL     OW12071   4.807   2.353   2.674 -0.1614  0.0283  0.1755
 3743SOL    HW112072   4.782   2.261   2.663  0.9531 -0.1218 -1.4384
 3743SOL    HW212073   4.747   2.401   2.617  0.4409  0.1015 -0.4048
 3744SOL     OW12074   5.583   2.788   4.413  0.2995 -0.1880 -0.5564
 3744SOL    HW112075   5.641   2.818   4.483  1.4682  0.5779 -1.8046
 3744SOL    HW212076   5.506   2.844   4.420  1.2836  1.2817 -1.1412
 3745SOL     OW12077   1.203   5.144   7.589 -0.2748 -0.7003  0.4304
 3745SOL    HW112078   1.183   5.063   7.636  1.3677 -1.1044  0.5173
 3745SOL    HW212079   1.255   5.196   7.650 -0.5799  0.0463  0.0680
 3746SOL     OW12080   5.410   1.855   0.619 -0.3868  0.0554 -0.3216
 3746SOL    HW112081   5.354   1.862   0.541 -0.2532 -2.6925 -0.7782
 3746SOL    HW212082   5.472   1.785   0.598  0.4197  0.0536  1.8062
 3747SOL     OW12083   1.774   5.405   2.430 -0.6221 -0.1279 -0.1635
 3747SOL    HW112084   1.837   5.342   2.395 -0.6992 -0.8780  0.9886
 3747SOL    HW212085   1.809   5.491   2.406  2.2700 -0.3531  2.6670
 3748SOL     OW12086   1.125   4.626   1.969 -0.2627  0.3625 -0.2554
 3748SOL    HW112087   1.154   4.717   1.971  2.0524 -0.3144  0.2500
 3748SOL    HW212088   1.178   4.582   2.036 -1.4776 -1.3299 -0.3285
 3749SOL     OW12089   3.071   7.968   7.815  0.0011 -0.6145 -0.0715
 3749SOL    HW112090   3.135   7.914   7.768  0.6321  0.1483 -0.1197
 3749SOL    HW212091   3.099   7.963   7.907 -1.2741 -2.1653  0.2831
 3750SOL     OW12092   6.679   5.971   3.760  0.0626 -0.3857  0.2081
 3750SOL    HW112093   6.728   6.052   3.748 -1.7045  0.3806 -2.6998
 3750SOL    HW212094   6.591   6.000   3.785  0.1561 -1.6051  2.1708
 3751SOL     OW12095   4.452   7.403   7.741  0.1992  0.1289 -0.0251
 3751SOL    HW112096   4.362   7.370   7.739  0.4031 -0.4139 -1.2390
 3751SOL    HW212097   4.506   7.324   7.733  0.7724  0.5116  0.0103
 3752SOL     OW12098   8.119   2.734   2.610 -0.1719 -0.0532  0.4917
 3752SOL    HW112099   8.187   2.725   2.543 -0.7373 -1.4515  0.0678
 3752SOL    HW212100   8.138   2.664   2.672 -0.1766  0.6783  1.3309
 3753SOL     OW12101   0.765   0.886   7.010  0.0042  0.0362 -0.2633
 3753SOL    HW112102   0.675   0.908   6.985 -1.1092 -0.6681  2.6753
 3753SOL    HW212103   0.808   0.970   7.021 -1.0677  0.5007  0.6480
 3754SOL     OW12104   4.628   5.853   1.747  0.6931 -0.0681  0.2273
 3754SOL    HW112105   4.537   5.879   1.763 -0.0902 -0.6567 -2.6999
 3754SOL    HW212106   4.675   5.881   1.826 -1.6731  1.8940  1.0647
 3755SOL     OW12107   7.140   1.073   7.431 -0.4523  0.5540  0.4662
 3755SOL    HW112108   7.079   1.095   7.360  0.1947 -0.3154 -0.3630
 3755SOL    HW212109   7.149   0.978   7.427 -0.7673  0.4282  2.0271
 3756SOL     OW12110   0.592   0.091   7.992 -0.1220 -0.5009 -0.3321
 3756SOL    HW112111   0.618   0.174   7.952 -0.2056  0.9553  2.4167
 3756SOL    HW212112   0.623   0.096   8.082  0.3990 -3.7643 -0.1980
 3757SOL     OW12113   4.840   7.272   5.494 -0.0696  0.1114  0.4313
 3757SOL    HW112114   4.925   7.315   5.502  0.9639 -1.9306  1.3125
 3757SOL    HW212115   4.840   7.234   5.406  0.6082 -1.1231  0.9350
 3758SOL     OW12116   2.402   4.088   1.144  0.2268 -0.2121 -0.4043
 3758SOL    HW112117   2.490   4.089   1.181  0.1919  1.3625 -0.3105
 3758SOL    HW212118   2.346   4.054   1.214  0.5468  0.2091  0.0588
 3759SOL     OW12119   1.375   2.674   4.289 -0.6088 -0.1848  0.5820
 3759SOL    HW112120   1.332   2.759   4.283  1.4112  0.8242 -0.8502
 3759SOL    HW212121   1.343   2.636   4.371 -4.9059 -0.0443 -0.7837
 3760SOL     OW12122   2.430   4.843   4.001 -0.2332 -0.2983  0.5137
 3760SOL    HW112123   2.387   4.908   3.944  0.4625  0.2596  0.6134
 3760SOL    HW212124   2.522   4.847   3.977 -0.3341 -2.0585 -0.2440
 3761SOL     OW12125   4.059   1.110   6.878  0.0975 -0.3946 -0.0015
 3761SOL    HW112126   3.972   1.074   6.895 -0.8935  1.3884 -0.9047
 3761SOL    HW212127   4.086   1.148   6.962 -0.3053 -0.3690  0.1203
 3762SOL     OW12128   4.620   2.688   5.560  0.1993 -0.3201  0.1184
 3762SOL    HW112129   4.631   2.601   5.523  0.7356 -0.8292  1.4118
 3762SOL    HW212130   4.709   2.716   5.581 -0.0875 -0.0927  1.0833
 3763SOL     OW12131   3.357   5.576   6.931  0.5010 -0.2277 -0.1459
 3763SOL    HW112132   3.368   5.487   6.897  0.4450 -0.0791 -0.5669
 3763SOL    HW212133   3.263   5.593   6.924  0.3581 -0.5375  0.9750
 3764SOL     OW12134   0.601   6.786   4.724  0.3553  0.0485 -0.2405
 3764SOL    HW112135   0.599   6.753   4.635  0.3776 -0.1456 -0.1685
 3764SOL    HW212136   0.512   6.772   4.757 -0.1929  1.7679 -0.8288
 3765SOL     OW12137   1.294   3.757   3.360  0.0581  0.6406 -0.4676
 3765SOL    HW112138   1.200   3.743   3.370 -0.2769 -0.2982 -3.7459
 3765SOL    HW212139   1.330   3.669   3.351  0.8380  1.0645 -1.7568
 3766SOL     OW12140   3.394   0.033   4.298 -0.4259  0.2094  0.0738
 3766SOL    HW112141   3.460   0.082   4.249  1.1198 -0.2678  1.5951
 3766SOL    HW212142   3.310   0.063   4.261  0.5932  0.9909 -1.7618
 3767SOL     OW12143   1.165   3.165   3.918 -0.1323  0.1130 -0.3202
 3767SOL    HW112144   1.109   3.237   3.890  1.8885  1.4696 -1.1605
 3767SOL    HW212145   1.178   3.178   4.012  0.2359  0.8903 -0.4725
 3768SOL     OW12146   1.212   2.273   7.674 -0.3950 -0.2894  0.3467
 3768SOL    HW112147   1.134   2.319   7.643  0.3522  1.2463  0.6811
 3768SOL    HW212148   1.285   2.323   7.639  0.4663  0.3371  2.8340
 3769SOL     OW12149   5.989   3.527   0.807 -0.3287  0.0182 -0.0899
 3769SOL    HW112150   5.908   3.552   0.852 -0.4317 -1.2848  0.4935
 3769SOL    HW212151   6.052   3.511   0.877  0.5583  1.3405 -0.5491
 3770SOL     OW12152   2.725   7.791   2.210 -0.3629  0.4217  0.1115
 3770SOL    HW112153   2.677   7.726   2.262 -0.4889  0.7622  0.4288
 3770SOL    HW212154   2.739   7.749   2.126 -0.6649  0.0746  0.2317
 3771SOL     OW12155   3.619   7.394   0.203  0.0191 -0.0364  0.2409
 3771SOL    HW112156   3.567   7.314   0.198  1.0383 -0.7201  0.3058
 3771SOL    HW212157   3.564   7.461   0.161 -0.6257 -0.8808 -0.3018
 3772SOL     OW12158   5.962   0.555   2.179  0.7270  0.3918 -0.4368
 3772SOL    HW112159   5.952   0.482   2.240 -2.5242  0.1517 -1.1016
 3772SOL    HW212160   5.999   0.515   2.100  0.0894 -0.3222 -0.3848
 3773SOL     OW12161   5.041   7.037   7.205  0.4562  0.4796  0.2805
 3773SOL    HW112162   4.952   7.002   7.203  0.1889  1.0814  1.2012
 3773SOL    HW212163   5.091   6.978   7.149  0.0267 -1.3854  1.7458
 3774SOL     OW12164   1.324   2.057   6.430  0.3120 -0.3004  0.4281
 3774SOL    HW112165   1.338   1.999   6.505  0.7525  0.5376  1.0168
 3774SOL    HW212166   1.232   2.045   6.406  0.3473 -1.0808  0.6701
 3775SOL     OW12167   4.034   1.710   0.313  0.2645  0.5104  0.2204
 3775SOL    HW112168   4.008   1.634   0.261  0.5118  1.1063 -0.8219
 3775SOL    HW212169   3.952   1.754   0.335  0.1831  0.5337 -0.1221
 3776SOL     OW12170   2.395   1.377   2.897 -0.2585 -0.5038 -0.3160
 3776SOL    HW112171   2.316   1.391   2.948 -0.3073 -1.2202 -0.1838
 3776SOL    HW212172   2.395   1.448   2.833 -0.5416  0.0119  0.2516
 3777SOL     OW12173   6.065   3.527   5.679  0.1469  0.0854  0.0025
 3777SOL    HW112174   5.992   3.583   5.705 -0.0094 -0.2644  0.3440
 3777SOL    HW212175   6.026   3.463   5.619  0.6437  1.3097 -1.6955
 3778SOL     OW12176   1.628   3.486   8.027  0.2733  0.3845 -0.0337
 3778SOL    HW112177   1.713   3.503   8.067  0.7009  0.4079 -0.9307
 3778SOL    HW212178   1.643   3.410   7.969 -0.7369 -0.7526  1.1331
 3779SOL     OW12179   1.795   4.791   5.606  0.0779 -0.4005 -0.0647
 3779SOL    HW112180   1.773   4.884   5.614  0.0308 -0.3677 -0.5648
 3779SOL    HW212181   1.784   4.772   5.513  2.3927 -0.3115 -0.4075
 3780SOL     OW12182   8.216   2.540   0.920 -0.4261  0.4312  0.0944
 3780SOL    HW112183   8.252   2.512   1.004 -4.3189 -1.3416  1.3680
 3780SOL    HW212184   8.190   2.631   0.935  0.8644  0.8260  0.0460
 3781SOL     OW12185   0.381   7.412   0.102 -0.1859  0.6994 -0.2326
 3781SOL    HW112186   0.463   7.399   0.054 -1.1087  1.2019 -2.0133
 3781SOL    HW212187   0.409   7.429   0.192  1.5914 -0.7002 -0.4508
 3782SOL     OW12188   1.288   4.645   5.077 -0.2408  0.0341  0.0579
 3782SOL    HW112189   1.265   4.667   5.167 -0.6385  0.5479 -0.1634
 3782SOL    HW212190   1.369   4.692   5.060  0.4005 -0.8951  0.4801
 3783SOL     OW12191   7.366   2.828   2.911 -0.4716  0.2194  0.0963
 3783SOL    HW112192   7.417   2.906   2.932 -1.1940  0.9725 -0.8458
 3783SOL    HW212193   7.276   2.861   2.903 -1.3692 -1.2458  2.8743
 3784SOL     OW12194   6.939   0.730   5.685  0.0928 -0.1143 -0.3599
 3784SOL    HW112195   6.949   0.656   5.746  1.5338  0.2724 -0.0821
 3784SOL    HW212196   7.008   0.791   5.711 -0.5812  0.9858 -1.0916
 3785SOL     OW12197   5.880   4.106   4.460 -1.1277  0.2426  0.3152
 3785SOL    HW112198   5.844   4.021   4.484 -0.7504 -0.9024 -2.6901
 3785SOL    HW212199   5.851   4.120   4.370  1.5866  1.6837 -0.4637
 3786SOL     OW12200   7.310   4.858   5.370  0.1408  0.2629 -0.0713
 3786SOL    HW112201   7.401   4.884   5.383  0.1334 -0.4891  1.7592
 3786SOL    HW212202   7.314   4.789   5.303  0.7890  0.8682 -0.6690
 3787SOL     OW12203   5.577   2.265   1.853 -0.2304  0.3758  0.0392
 3787SOL    HW112204   5.528   2.261   1.771 -0.4074 -1.9806  0.1765
 3787SOL    HW212205   5.527   2.323   1.909 -1.3328  0.2488 -0.7859
 3788SOL     OW12206   5.485   7.082   1.901 -0.0001  0.2786 -0.2257
 3788SOL    HW112207   5.544   7.035   1.842  0.6918  0.5765  0.2127
 3788SOL    HW212208   5.489   7.173   1.872  1.7791  0.7832  1.3559
 3789SOL     OW12209   1.032   4.209   3.561  0.1353  0.4354 -0.0074
 3789SOL    HW112210   1.120   4.170   3.562 -0.4865 -1.1310 -1.6251
 3789SOL    HW212211   1.047   4.303   3.568  1.7874  0.0933  2.5155
 3790SOL     OW12212   6.921   4.247   5.174  0.6457 -0.1532 -0.0720
 3790SOL    HW112213   6.934   4.225   5.082  0.8903  1.7604 -0.5276
 3790SOL    HW212214   6.886   4.336   5.173  2.5347  0.6785  1.7619
 3791SOL     OW12215   3.929   0.526   3.849  0.2583 -0.0439 -0.9814
 3791SOL    HW112216   3.911   0.579   3.772 -1.4585 -0.1664 -0.7092
 3791SOL    HW212217   3.855   0.465   3.854 -0.0832  0.4718  1.1862
 3792SOL     OW12218   6.387   5.630   3.262  0.5334 -0.1012  0.0398
 3792SOL    HW112219   6.380   5.645   3.356  0.2132  0.0302 -0.0036
 3792SOL    HW212220   6.333   5.554   3.245 -0.4390  0.6307 -0.2234
 3793SOL     OW12221   8.140   0.284   4.935  0.2718 -0.1116  0.4461
 3793SOL    HW112222   8.124   0.372   4.968 -0.0599  0.3478 -0.8729
 3793SOL    HW212223   8.223   0.291   4.887 -0.4677 -0.1282 -0.9002
 3794SOL     OW12224   1.558   0.825   2.223  0.3548  0.3565 -0.2352
 3794SOL    HW112225   1.475   0.784   2.249  0.0090  0.5891 -0.9767
 3794SOL    HW212226   1.561   0.907   2.272  0.0405  0.4528 -0.3761
 3795SOL     OW12227   4.038   2.118   3.731 -0.3505  0.2575 -0.3135
 3795SOL    HW112228   4.059   2.046   3.672 -0.7640  1.7861 -2.4136
 3795SOL    HW212229   3.972   2.083   3.790 -0.2501 -1.1934 -1.0352
 3796SOL     OW12230   5.778   7.237   0.962  0.2804 -0.4726  0.2869
 3796SOL    HW112231   5.785   7.209   1.053 -0.6133  0.8687  0.8100
 3796SOL    HW212232   5.769   7.156   0.912 -0.0009 -1.1978  1.4714
 3797SOL     OW12233   0.340   1.904   1.711 -0.4491 -0.1322  0.1773
 3797SOL    HW112234   0.302   1.874   1.794  0.1203 -0.8418  0.1850
 3797SOL    HW212235   0.273   1.960   1.673 -1.7968 -1.8794 -0.1269
 3798SOL     OW12236   1.917   6.132   1.507 -0.0054 -0.0879  0.6795
 3798SOL    HW112237   1.948   6.095   1.589  0.1718  0.8991  1.0741
 3798SOL    HW212238   1.914   6.226   1.523 -1.2619  0.0166 -0.0076
 3799SOL     OW12239   5.905   7.415   5.169 -0.2149 -0.4938 -0.3830
 3799SOL    HW112240   5.861   7.463   5.239 -2.3299 -0.7009 -1.5038
 3799SOL    HW212241   5.997   7.409   5.198 -0.3229  2.2558  0.7930
 3800SOL     OW12242   6.948   0.504   5.877  0.3643 -0.0303  0.1367
 3800SOL    HW112243   6.948   0.518   5.971  0.2150 -0.8885  0.2714
 3800SOL    HW212244   6.995   0.421   5.865 -1.2351 -0.8890 -0.3833
 3801SOL     OW12245   2.644   6.307   5.315 -0.4111  1.1672 -0.2003
 3801SOL    HW112246   2.592   6.270   5.386 -0.4990  0.7231 -0.4925
 3801SOL    HW212247   2.618   6.256   5.238  1.3306  0.1346 -0.1408
 3802SOL     OW12248   5.450   3.860   6.768  0.1980 -0.0531 -0.0706
 3802SOL    HW112249   5.359   3.888   6.770 -0.3096 -1.3741 -1.8096
 3802SOL    HW212250   5.500   3.942   6.762 -0.9058  0.6685  0.2766
 3803SOL     OW12251   4.298   5.139   3.122 -0.1936  0.1297  0.1087
 3803SOL    HW112252   4.210   5.171   3.140 -1.4304 -2.4181 -0.8714
 3803SOL    HW212253   4.302   5.054   3.165  1.2594 -0.4482 -1.0782
 3804SOL     OW12254   0.558   7.254   5.741  0.1526 -0.0618 -0.4382
 3804SOL    HW112255   0.579   7.285   5.829  1.1316 -2.1368  0.1286
 3804SOL    HW212256   0.641   7.222   5.706 -0.5305 -0.7842 -1.4541
 3805SOL     OW12257   4.604   0.339   2.738  0.0933 -0.0435 -0.0427
 3805SOL    HW112258   4.650   0.255   2.731 -0.4563 -0.4969  1.3380
 3805SOL    HW212259   4.539   0.325   2.807 -0.5564  1.2846 -0.3415
 3806SOL     OW12260   3.719   2.001   6.991 -0.0756 -0.4750 -0.9265
 3806SOL    HW112261   3.628   1.997   7.020 -0.5062  0.5647 -2.0388
 3806SOL    HW212262   3.760   1.923   7.028 -0.7572  0.3383  1.7514
 3807SOL     OW12263   0.859   5.396   6.177 -0.2646 -0.1274  0.6639
 3807SOL    HW112264   0.801   5.339   6.127  1.1181  0.0767 -1.3286
 3807SOL    HW212265   0.922   5.337   6.218 -0.3873 -0.1992  0.7470
 3808SOL     OW12266   7.691   2.521   7.184  0.1715 -0.1169  0.1068
 3808SOL    HW112267   7.615   2.544   7.237 -1.1792 -2.1582 -0.7728
 3808SOL    HW212268   7.765   2.524   7.244 -1.1539 -1.4479  1.9054
 3809SOL     OW12269   5.611   2.455   0.074  0.1536  0.2452  0.3128
 3809SOL    HW112270   5.570   2.535   0.107 -2.7215 -0.6532 -0.7486
 3809SOL    HW212271   5.556   2.384   0.107  0.4717 -1.0214 -1.7095
 3810SOL     OW12272   3.047   6.996   5.046 -0.1677 -0.1015 -1.0395
 3810SOL    HW112273   2.964   6.958   5.016 -2.1853  1.5204  1.9412
 3810SOL    HW212274   3.092   6.924   5.090 -1.2245 -0.4487 -0.4897
 3811SOL     OW12275   6.610   1.221   4.971 -0.0706 -0.3181  0.6042
 3811SOL    HW112276   6.578   1.168   5.044  0.2866  1.6077  2.2620
 3811SOL    HW212277   6.583   1.311   4.993  1.0411  0.4838 -1.0708
 3812SOL     OW12278   0.772   4.553   1.470 -0.0722  0.2602 -0.2765
 3812SOL    HW112279   0.774   4.624   1.406 -0.1551 -1.3232 -2.1442
 3812SOL    HW212280   0.863   4.544   1.499 -0.0147  0.9251 -0.2237
 3813SOL     OW12281   5.487   4.991   1.692  0.0260 -0.2401  0.4996
 3813SOL    HW112282   5.392   4.990   1.682  0.1864 -2.2538 -2.7422
 3813SOL    HW212283   5.507   4.910   1.740  0.1215 -0.1348  0.6374
 3814SOL     OW12284   6.231   1.514   1.345 -0.2491  0.2622  0.5605
 3814SOL    HW112285   6.321   1.495   1.319 -0.5142  0.3279 -0.4380
 3814SOL    HW212286   6.225   1.481   1.435  0.7521  0.2166  0.6230
 3815SOL     OW12287   3.670   6.602   5.166 -0.0131  0.4236 -0.1207
 3815SOL    HW112288   3.630   6.529   5.214  0.5076  0.0144 -0.3037
 3815SOL    HW212289   3.720   6.650   5.232  0.5126 -0.0041 -0.2044
 3816SOL     OW12290   6.257   3.799   3.763 -0.2769 -0.0921  0.8133
 3816SOL    HW112291   6.207   3.879   3.750 -0.1058  0.1960  1.7877
 3816SOL    HW212292   6.192   3.729   3.767 -0.3655 -0.1513 -0.9590
 3817SOL     OW12293   6.905   2.829   4.892 -0.1220  0.5406  0.2589
 3817SOL    HW112294   6.887   2.847   4.800 -1.3776  1.0433  0.5762
 3817SOL    HW212295   6.880   2.909   4.937  0.4302  0.2804  1.0522
 3818SOL     OW12296   6.422   1.308   5.619 -0.4297 -0.0875  0.4416
 3818SOL    HW112297   6.448   1.357   5.541 -0.0823 -0.9069  0.0318
 3818SOL    HW212298   6.458   1.359   5.692  1.1903 -0.4597 -0.0479
 3819SOL     OW12299   0.390   7.515   5.051 -0.5157  0.4439  0.3662
 3819SOL    HW112300   0.332   7.460   4.998  0.5097 -0.7530  0.4449
 3819SOL    HW212301   0.372   7.604   5.021 -0.8709 -0.0882 -1.0911
 3820SOL     OW12302   2.039   4.271   2.821  0.1999  0.2318  0.4342
 3820SOL    HW112303   2.011   4.353   2.861 -0.7974 -0.3856  1.0617
 3820SOL    HW212304   1.992   4.266   2.738  0.6018  0.4942  0.1872
 3821SOL     OW12305   7.314   2.809   0.531 -0.1420 -0.2452  0.1801
 3821SOL    HW112306   7.312   2.883   0.593 -3.6256 -0.2293  0.2063
 3821SOL    HW212307   7.305   2.732   0.586 -1.2220 -0.3558 -0.1302
 3822SOL     OW12308   4.298   6.026   4.543 -0.4007 -0.5727  0.7440
 3822SOL    HW112309   4.295   6.118   4.517 -1.6292 -0.7930  0.0431
 3822SOL    HW212310   4.307   6.028   4.639 -0.0042  0.2663  0.6947
 3823SOL     OW12311   6.600   2.148   1.722  0.0418  0.0517  0.5745
 3823SOL    HW112312   6.514   2.188   1.709 -0.0781 -0.5189 -0.4966
 3823SOL    HW212313   6.658   2.222   1.738  0.0124  0.8506 -2.3494
 3824SOL     OW12314   1.824   3.132   2.677  0.4531  0.1907  0.1155
 3824SOL    HW112315   1.756   3.097   2.619 -0.3526  0.6956  0.7358
 3824SOL    HW212316   1.804   3.225   2.684 -0.7222 -0.1705  2.7860
 3825SOL     OW12317   3.313   2.664   1.584 -0.0240  0.1136 -0.4208
 3825SOL    HW112318   3.287   2.633   1.498  0.6072 -0.4929 -0.3964
 3825SOL    HW212319   3.236   2.713   1.616 -1.0014 -1.3277 -0.4909
 3826SOL     OW12320   3.823   4.634   0.186  0.0454  0.3450  0.0695
 3826SOL    HW112321   3.804   4.551   0.229 -0.1251 -0.3966 -1.3905
 3826SOL    HW212322   3.752   4.644   0.122  0.2695  1.4408 -0.0262
 3827SOL     OW12323   0.027   5.906   6.063  0.7730  0.2940 -0.4270
 3827SOL    HW112324   0.050   5.935   6.151  0.5789  1.2881 -0.6910
 3827SOL    HW212325  -0.068   5.899   6.063  0.8600 -1.7656  0.0354
 3828SOL     OW12326   1.857   3.336   0.025  0.4433  0.0061 -0.1762
 3828SOL    HW112327   1.866   3.304  -0.065  2.1830  0.0520 -0.0494
 3828SOL    HW212328   1.912   3.414   0.029 -1.4121  1.3606  0.3372
 3829SOL     OW12329   5.805   2.389   7.637 -0.3154  0.1301  0.1752
 3829SOL    HW112330   5.824   2.416   7.727  0.9325 -0.9849  0.2734
 3829SOL    HW212331   5.888   2.355   7.604 -1.1603 -1.0289 -0.8436
 3830SOL     OW12332   5.201   0.357   4.673 -0.0191  0.2114  0.0724
 3830SOL    HW112333   5.208   0.448   4.703 -0.0555 -1.1202  5.0085
 3830SOL    HW212334   5.107   0.341   4.668 -0.0203  0.6067 -1.6879
 3831SOL     OW12335   4.662   6.234   5.921  0.3111  0.2020  0.2070
 3831SOL    HW112336   4.665   6.305   5.857  1.6021  2.4957  2.6682
 3831SOL    HW212337   4.606   6.267   5.991  0.2012 -1.6310  1.0331
 3832SOL     OW12338   2.743   2.515   3.550  0.0266 -0.3501 -0.2951
 3832SOL    HW112339   2.727   2.579   3.619 -1.0531  2.0111 -2.5406
 3832SOL    HW212340   2.832   2.484   3.566  0.0792  0.6468  1.6933
 3833SOL     OW12341   2.577   6.685   5.060  0.4076 -0.6153  0.3305
 3833SOL    HW112342   2.534   6.726   5.136 -0.0304 -0.3920 -0.0357
 3833SOL    HW212343   2.660   6.652   5.095  0.3030 -0.3299  0.8642
 3834SOL     OW12344   3.479   4.804   3.084 -0.4184 -0.4586 -0.2621
 3834SOL    HW112345   3.401   4.858   3.069 -0.3912 -0.4823 -0.5062
 3834SOL    HW212346   3.489   4.755   3.002 -0.5653 -0.9901  0.0402
 3835SOL     OW12347   5.323   3.708   6.488  0.0970 -0.5040  0.4115
 3835SOL    HW112348   5.260   3.675   6.551  1.5599 -1.2722  1.4999
 3835SOL    HW212349   5.336   3.800   6.512 -1.0034 -0.1708 -0.1844
 3836SOL     OW12350   7.334   3.943   4.365  0.2657  0.4091  0.4496
 3836SOL    HW112351   7.400   3.928   4.433  0.0817  0.2586  0.5956
 3836SOL    HW212352   7.260   3.889   4.392 -0.5870  1.8811  1.2242
 3837SOL     OW12353   2.976   0.122   2.468  0.7939 -0.3739  0.7893
 3837SOL    HW112354   2.988   0.041   2.518  0.0754 -0.6879  0.4779
 3837SOL    HW212355   3.057   0.171   2.481  1.1323 -1.0259  1.1994
 3838SOL     OW12356   7.703   0.141   6.562 -0.3074 -0.1040 -0.3556
 3838SOL    HW112357   7.760   0.187   6.624 -1.1965 -2.2631  2.2816
 3838SOL    HW212358   7.625   0.196   6.555 -0.1089  0.2668  0.3010
 3839SOL     OW12359   2.887   6.616   6.347  0.0145  0.0730 -0.1532
 3839SOL    HW112360   2.953   6.663   6.297 -0.8323  0.7901 -0.6342
 3839SOL    HW212361   2.875   6.533   6.300  0.5224 -0.0387 -0.0915
 3840SOL     OW12362   3.924   5.513   7.454 -0.2078 -0.0584 -0.6586
 3840SOL    HW112363   3.848   5.457   7.440  0.8126 -1.0970 -2.3689
 3840SOL    HW212364   3.974   5.468   7.522 -0.3850 -0.1753 -0.6034
 3841SOL     OW12365   8.181   8.178   7.991 -0.3951  0.3919  0.2332
 3841SOL    HW112366   8.220   8.213   7.912  0.4420  0.3707  0.6280
 3841SOL    HW212367   8.182   8.083   7.979 -0.4378  0.3968  0.1894
 3842SOL     OW12368   5.800   4.605   8.191 -0.1289  0.2139  0.2761
 3842SOL    HW112369   5.787   4.690   8.149  0.0741  0.2927  0.3711
 3842SOL    HW212370   5.732   4.600   8.257  1.2929  1.3412  1.9009
 3843SOL     OW12371   4.491   6.233   6.400 -0.5287 -0.2988 -0.0796
 3843SOL    HW112372   4.509   6.269   6.313 -0.6323  1.9770  0.7724
 3843SOL    HW212373   4.408   6.272   6.426 -1.5402 -2.5228  0.2752
 3844SOL     OW12374   3.727   5.274   3.404  0.3895 -0.2372  0.0204
 3844SOL    HW112375   3.685   5.255   3.487 -1.3998 -2.7584 -1.3437
 3844SOL    HW212376   3.741   5.369   3.406 -1.5966  0.1002  2.2728
 3845SOL     OW12377   3.186   6.628   1.183  0.4514  0.9709  0.6162
 3845SOL    HW112378   3.179   6.601   1.275 -0.6730  2.6430  1.0556
 3845SOL    HW212379   3.165   6.548   1.134 -2.7047  0.9124  1.8545
 3846SOL     OW12380   8.169   7.492   5.793 -0.2649  0.5480  0.1194
 3846SOL    HW112381   8.122   7.449   5.864 -2.7901  0.0321 -1.7470
 3846SOL    HW212382   8.103   7.544   5.748  1.1115  0.5041 -2.1102
 3847SOL     OW12383   5.021   5.091   5.460  0.0286  0.1776 -0.0986
 3847SOL    HW112384   5.005   5.130   5.546  0.4061 -2.4712  1.2775
 3847SOL    HW212385   5.117   5.093   5.450 -0.0922  1.8826 -1.2119
 3848SOL     OW12386   0.479   1.433   4.470  0.1644  0.8418  0.8677
 3848SOL    HW112387   0.521   1.493   4.409 -0.3020  0.8076  0.5115
 3848SOL    HW212388   0.512   1.460   4.556  0.8674  0.8496  0.6003
 3849SOL     OW12389   5.231   5.968   1.545  0.2420 -0.6902  0.2156
 3849SOL    HW112390   5.305   5.946   1.490  0.6605  2.1631 -0.5101
 3849SOL    HW212391   5.260   6.043   1.596 -0.8590 -1.9313  2.8715
 3850SOL     OW12392   2.652   7.532   6.723  0.4404 -0.2997 -0.0558
 3850SOL    HW112393   2.727   7.527   6.664 -0.8783  0.4771 -1.8802
 3850SOL    HW212394   2.604   7.451   6.707 -2.1535  1.6345 -3.3586
 3851SOL     OW12395   4.993   1.903   5.329  1.0913  0.2210 -0.0776
 3851SOL    HW112396   5.031   1.816   5.317  0.5506 -0.2026  1.1261
 3851SOL    HW212397   4.899   1.889   5.327  0.9961  0.7275  0.3982
 3852SOL     OW12398   2.666   7.442   1.198 -0.6220 -0.2055 -0.2481
 3852SOL    HW112399   2.639   7.474   1.284  0.5528 -1.6057  0.6995
 3852SOL    HW212400   2.759   7.466   1.192 -0.7938  0.2305 -1.3152
 3853SOL     OW12401   6.952   5.715   1.165 -0.0290 -0.5111  0.1051
 3853SOL    HW112402   6.980   5.724   1.074  0.6017  0.8340  0.3993
 3853SOL    HW212403   7.021   5.758   1.215 -2.4150  2.9066  0.8854
 3854SOL     OW12404   4.998   0.429   7.221 -0.0399 -0.1747  0.4388
 3854SOL    HW112405   4.948   0.463   7.146  0.2865 -0.5339  0.0479
 3854SOL    HW212406   4.941   0.361   7.257  0.7611 -1.6731 -0.9500
 3855SOL     OW12407   0.610   3.959   2.332  0.0549 -0.1442  0.0661
 3855SOL    HW112408   0.597   4.024   2.401  0.8602  0.8597 -0.7084
 3855SOL    HW212409   0.557   3.884   2.360  0.0650  0.3780  1.5833
 3856SOL     OW12410   6.387   5.738   5.578 -0.1612 -0.4302 -0.1510
 3856SOL    HW112411   6.352   5.814   5.625 -0.5355 -0.8605  0.2816
 3856SOL    HW212412   6.324   5.721   5.508  0.6948  0.5676 -1.2011
 3857SOL     OW12413   8.011   1.928   6.053 -0.3445 -0.2408  0.0979
 3857SOL    HW112414   8.051   1.920   5.966 -1.2330  0.0081 -0.3434
 3857SOL    HW212415   7.999   2.022   6.065  0.9669 -0.1649  1.0606
 3858SOL     OW12416   4.637   1.135   8.153 -0.2658  0.7700  0.5384
 3858SOL    HW112417   4.706   1.116   8.217  1.2054 -0.3385 -1.2719
 3858SOL    HW212418   4.563   1.081   8.180  0.4698  0.0142  1.0921
 3859SOL     OW12419   8.219   3.017   1.340 -0.1975  0.1201  0.0734
 3859SOL    HW112420   8.301   3.008   1.389  0.6524  0.5409 -1.2259
 3859SOL    HW212421   8.159   3.059   1.402  0.3042 -0.8967  1.3092
 3860SOL     OW12422   2.803   0.551   4.832 -0.3000 -0.2980 -0.1447
 3860SOL    HW112423   2.739   0.503   4.779 -2.7132 -1.5261  3.5018
 3860SOL    HW212424   2.856   0.482   4.873  0.9904  0.5583 -0.3364
 3861SOL     OW12425   5.663   3.284   2.524  0.1724 -0.6050 -0.4756
 3861SOL    HW112426   5.674   3.214   2.460 -2.0332 -1.3541 -0.1188
 3861SOL    HW212427   5.735   3.273   2.585  1.3314 -0.9449 -1.8534
 3862SOL     OW12428   7.493   4.954   3.653  0.3574  0.0568  0.3659
 3862SOL    HW112429   7.506   4.873   3.702  0.4400 -0.0301  0.2009
 3862SOL    HW212430   7.471   5.019   3.720 -0.3883 -0.2519  0.4254
 3863SOL     OW12431   4.521   0.952   6.465 -0.5244 -0.0355  0.1220
 3863SOL    HW112432   4.511   0.914   6.378 -0.3278 -0.1980  0.1705
 3863SOL    HW212433   4.611   0.931   6.491 -0.4525  0.3586  0.1972
 3864SOL     OW12434   5.688   5.570   4.565  0.7049  0.0984 -0.3100
 3864SOL    HW112435   5.750   5.640   4.581 -1.0568  1.3425  1.6218
 3864SOL    HW212436   5.646   5.555   4.650 -0.6889 -1.6006 -1.2184
 3865SOL     OW12437   5.558   3.494   1.113  0.0409  0.0842  0.1106
 3865SOL    HW112438   5.575   3.451   1.029  0.8690 -1.9908  1.2423
 3865SOL    HW212439   5.470   3.467   1.137  0.7656 -1.6112  1.0883
 3866SOL     OW12440   6.359   3.898   6.605 -0.5455 -0.5011 -0.2528
 3866SOL    HW112441   6.335   3.891   6.513 -0.5792 -1.6444 -0.1692
 3866SOL    HW212442   6.277   3.920   6.650 -0.2052  1.8203 -0.6713
 3867SOL     OW12443   0.971   4.439   5.762 -0.1169 -0.6351 -0.0152
 3867SOL    HW112444   1.063   4.452   5.787 -0.2940 -0.6062  0.6505
 3867SOL    HW212445   0.953   4.509   5.699  0.7321 -1.5382 -1.2933
 3868SOL     OW12446   2.292   3.970   3.695  0.6581 -0.3878 -0.0132
 3868SOL    HW112447   2.297   3.956   3.600  0.7424 -0.6592  0.0280
 3868SOL    HW212448   2.255   4.058   3.705  1.5313  0.0215 -0.3060
 3869SOL     OW12449   2.370   7.101   1.669  0.0679 -0.0820 -0.0724
 3869SOL    HW112450   2.427   7.025   1.658  0.4863  0.1979  0.1652
 3869SOL    HW212451   2.347   7.127   1.580  1.9897  1.0757 -0.2749
 3870SOL     OW12452   6.324   0.354   4.235 -0.5641 -0.2269 -1.0881
 3870SOL    HW112453   6.414   0.327   4.219 -0.4500 -0.1178 -0.6407
 3870SOL    HW212454   6.274   0.314   4.164 -0.4699 -1.9373 -0.2337
 3871SOL     OW12455   8.013   5.647   7.055 -0.1398 -0.0664 -0.3873
 3871SOL    HW112456   7.919   5.638   7.039 -0.0562  0.2474 -1.0916
 3871SOL    HW212457   8.053   5.619   6.972  0.3087  1.9425 -0.8944
 3872SOL     OW12458   3.592   2.669   7.859 -0.0499  0.3565  0.2247
 3872SOL    HW112459   3.521   2.620   7.899 -0.4539  0.7122 -0.0353
 3872SOL    HW212460   3.549   2.720   7.789  1.0155 -2.5785 -2.8406
 3873SOL     OW12461   8.141   2.286   4.268  0.5603 -0.1635  0.2262
 3873SOL    HW112462   8.142   2.345   4.342  0.5387 -1.6545  1.4663
 3873SOL    HW212463   8.220   2.233   4.279  0.0749 -1.0187 -0.2911
 3874SOL     OW12464   1.506   1.989   3.987 -0.1269 -0.2787  0.0263
 3874SOL    HW112465   1.515   2.025   3.898 -1.7641  0.4802  0.1201
 3874SOL    HW212466   1.415   2.008   4.011  0.4929  0.2472  2.1749
 3875SOL     OW12467   3.958   2.489   2.228 -0.2498 -0.0015  0.5653
 3875SOL    HW112468   3.901   2.430   2.278  0.7624 -1.0443  0.5174
 3875SOL    HW212469   3.914   2.498   2.144  0.1983 -1.7382  0.1031
 3876SOL     OW12470   1.888   0.397   7.676 -0.3266 -0.4310 -0.3344
 3876SOL    HW112471   1.867   0.424   7.587  0.8100  0.0132 -0.4817
 3876SOL    HW212472   1.833   0.320   7.692 -3.0067  1.3678 -0.2230
 3877SOL     OW12473   1.670   8.000   4.542  0.4045 -0.3276  0.2850
 3877SOL    HW112474   1.640   7.996   4.633 -0.6454 -0.7268 -0.0571
 3877SOL    HW212475   1.725   8.078   4.538 -0.6238  0.4647  0.9549
 3878SOL     OW12476   4.073   2.180   1.851 -0.2912 -0.3904  0.0543
 3878SOL    HW112477   3.986   2.194   1.888 -0.7737 -0.4188 -1.0401
 3878SOL    HW212478   4.131   2.180   1.927 -1.2283 -0.2856  0.7939
 3879SOL     OW12479   8.075   3.229   5.934  0.1109 -0.4425  0.0288
 3879SOL    HW112480   8.120   3.302   5.977 -1.8155  0.2624  0.9734
 3879SOL    HW212481   8.124   3.152   5.961  0.7254  0.2815  1.0867
 3880SOL     OW12482   4.568   1.705   6.254 -0.0405 -0.7215 -0.2202
 3880SOL    HW112483   4.486   1.720   6.207  0.2802  0.6166 -0.3829
 3880SOL    HW212484   4.598   1.792   6.279  0.5524 -1.2976  1.1970
 3881SOL     OW12485   3.034   4.899   1.662 -0.7584 -0.5712  0.0845
 3881SOL    HW112486   3.000   4.940   1.741  0.1110 -0.1747  0.2653
 3881SOL    HW212487   3.065   4.813   1.691  1.3869  0.3197  0.6295
 3882SOL     OW12488   3.305   0.083   2.106 -0.2422  0.2104  0.6805
 3882SOL    HW112489   3.336   0.171   2.082  1.3013 -0.3516  0.4717
 3882SOL    HW212490   3.275   0.045   2.024  0.9517 -0.1391  0.3768
 3883SOL     OW12491   0.399   8.098   3.707 -0.3872 -0.1050  0.1747
 3883SOL    HW112492   0.457   8.082   3.632 -3.0822  0.5165 -2.2121
 3883SOL    HW212493   0.380   8.010   3.741  0.4802 -0.4349 -0.1645
 3884SOL     OW12494   5.044   1.046   0.195  0.2288 -0.2914 -0.1146
 3884SOL    HW112495   5.126   1.043   0.146  0.3678  1.8389 -0.1277
 3884SOL    HW212496   5.031   1.139   0.213 -1.2775 -0.7515  1.4376
 3885SOL     OW12497   4.527   7.051   4.932 -0.2768 -0.1219 -0.2212
 3885SOL    HW112498   4.448   7.052   4.877  0.6141 -0.8218 -1.5660
 3885SOL    HW212499   4.598   7.030   4.872  0.8313 -0.3655  1.1184
 3886SOL     OW12500   4.265   3.210   1.798  0.0565  0.1878  0.0371
 3886SOL    HW112501   4.357   3.200   1.821 -0.0614  0.7591  0.7898
 3886SOL    HW212502   4.263   3.280   1.733  0.1786  0.0062 -0.1620
 3887SOL     OW12503   2.862   0.985   3.457  0.4712  0.1959 -0.2139
 3887SOL    HW112504   2.826   0.896   3.455 -0.3809  0.5229 -0.0161
 3887SOL    HW212505   2.812   1.029   3.526  0.7495  0.8794 -0.4428
 3888SOL     OW12506   8.025   6.616   5.112 -0.1662 -0.7932  0.1304
 3888SOL    HW112507   7.930   6.622   5.111 -0.1614 -0.7633 -0.3706
 3888SOL    HW212508   8.047   6.592   5.203 -0.5943  0.0089  0.4533
 3889SOL     OW12509   0.679   8.217   2.242  0.0397  0.2346  0.4775
 3889SOL    HW112510   0.663   8.162   2.166 -1.0986  1.0584  0.0929
 3889SOL    HW212511   0.643   8.303   2.218 -0.5398  0.4596  2.0119
 3890SOL     OW12512   7.450   5.840   1.540 -0.1552  0.0554 -0.2334
 3890SOL    HW112513   7.477   5.759   1.496  1.1756 -0.8795  2.1443
 3890SOL    HW212514   7.383   5.813   1.603 -0.9108  1.1044 -0.5507
 3891SOL     OW12515   6.676   5.668   7.129 -0.7010 -0.2218  0.2878
 3891SOL    HW112516   6.637   5.608   7.192  0.8726 -1.1077  0.4842
 3891SOL    HW212517   6.752   5.704   7.175 -0.0886 -0.1524 -0.7540
 3892SOL     OW12518   4.924   4.992   0.169 -0.2719 -0.4565  0.4081
 3892SOL    HW112519   4.916   5.026   0.081  3.2712 -1.7708 -0.5838
 3892SOL    HW212520   4.840   4.948   0.186 -0.9314 -0.4188 -2.3969
 3893SOL     OW12521   8.056   7.940   1.703 -0.3204  0.4960  0.6808
 3893SOL    HW112522   8.026   8.030   1.713 -2.4907  0.0104 -0.7462
 3893SOL    HW212523   8.072   7.910   1.793 -0.8725  1.8737  1.2645
 3894SOL     OW12524   2.923   5.092   8.183  0.1027  0.1710 -0.4390
 3894SOL    HW112525   2.919   5.066   8.275 -1.6440 -0.6100 -0.7072
 3894SOL    HW212526   2.996   5.154   8.179  0.7322 -0.4091  1.3040
 3895SOL     OW12527   2.733   0.856   0.940 -0.0152  0.0385  0.0706
 3895SOL    HW112528   2.737   0.765   0.910 -0.1684 -0.4776  1.5583
 3895SOL    HW212529   2.671   0.898   0.880 -2.6828 -1.6917  1.4367
 3896SOL     OW12530   7.143   7.249   8.170 -0.0743 -0.0450  0.1319
 3896SOL    HW112531   7.220   7.228   8.117  0.1467  1.4075 -0.1596
 3896SOL    HW212532   7.176   7.308   8.237 -0.8554  0.2217  0.2823
 3897SOL     OW12533   4.073   6.747   6.173 -0.7757 -0.0668  0.3649
 3897SOL    HW112534   4.157   6.779   6.140  0.9245 -3.2983  1.1572
 3897SOL    HW212535   4.066   6.658   6.139 -0.6065 -2.3876  5.4824
 3898SOL     OW12536   5.655   4.085   0.695  0.2751 -0.0046  0.1935
 3898SOL    HW112537   5.615   4.134   0.624  1.3058 -0.5345 -0.8009
 3898SOL    HW212538   5.691   4.152   0.754  0.5271  0.4502 -0.4655
 3899SOL     OW12539   0.778   5.926   5.970 -0.0902 -0.4811 -0.1649
 3899SOL    HW112540   0.817   5.839   5.975  1.2057  0.0928  0.4207
 3899SOL    HW212541   0.695   5.914   5.924  0.1748 -1.9778 -0.2809
 3900SOL     OW12542   4.017   5.198   2.857 -0.0085 -0.4810 -0.0505
 3900SOL    HW112543   4.048   5.108   2.870 -1.3569 -1.3328 -2.1714
 3900SOL    HW212544   4.063   5.228   2.779 -2.3328 -0.7940 -1.6430
 3901SOL     OW12545   2.048   4.471   4.643 -0.4224 -0.6387 -0.5457
 3901SOL    HW112546   2.057   4.564   4.623  4.0233 -0.9683 -1.1676
 3901SOL    HW212547   2.034   4.430   4.558 -1.8323 -0.6280 -0.3367
 3902SOL     OW12548   3.278   8.213   3.774  0.4000  0.0455 -0.2150
 3902SOL    HW112549   3.209   8.213   3.708  0.4424 -1.2684 -0.2843
 3902SOL    HW212550   3.282   8.303   3.805 -1.7714  0.0429  0.2306
 3903SOL     OW12551   5.228   6.054   7.338  0.4400  0.0102 -0.1723
 3903SOL    HW112552   5.304   6.112   7.342 -0.6296  1.4599  0.1300
 3903SOL    HW212553   5.154   6.111   7.361 -0.6292 -1.5603  0.4109
 3904SOL     OW12554   1.493   0.116   3.746  0.4093  0.0144 -0.2989
 3904SOL    HW112555   1.414   0.072   3.779 -1.1181  1.1753 -2.1925
 3904SOL    HW212556   1.553   0.115   3.821 -1.1113 -1.5158  1.0189
 3905SOL     OW12557   3.821   5.844   1.403  0.2560 -0.0635 -0.5905
 3905SOL    HW112558   3.837   5.771   1.342 -2.1057 -0.6465 -0.6194
 3905SOL    HW212559   3.815   5.802   1.489 -1.2119  0.0243 -0.6178
 3906SOL     OW12560   1.101   6.487   1.126  0.2575 -0.2741 -0.1445
 3906SOL    HW112561   1.060   6.554   1.072 -0.3162 -0.6251 -0.1608
 3906SOL    HW212562   1.193   6.487   1.100  0.5114  1.2656  0.6345
 3907SOL     OW12563   6.530   2.072   2.130  0.4638  0.4655 -0.1670
 3907SOL    HW112564   6.492   2.025   2.056 -0.5576  2.3416 -0.8930
 3907SOL    HW212565   6.494   2.029   2.207 -1.5303  0.8751 -0.8310
 3908SOL     OW12566   4.445   1.021   2.639  0.1336 -0.0783 -0.6875
 3908SOL    HW112567   4.382   0.960   2.600 -0.6794 -0.1995  0.7121
 3908SOL    HW212568   4.531   0.984   2.620 -0.3000 -0.8738 -1.1121
 3909SOL     OW12569   3.195   4.499   1.897  0.7006 -0.0757 -0.5501
 3909SOL    HW112570   3.279   4.476   1.857  0.4642  1.2231 -1.8946
 3909SOL    HW212571   3.135   4.431   1.868  1.2479 -0.9624  0.3409
 3910SOL     OW12572   4.932   3.851   1.687 -0.5620 -0.3721 -0.2360
 3910SOL    HW112573   4.934   3.862   1.592 -0.0856 -0.8708 -0.2915
 3910SOL    HW212574   4.845   3.815   1.705 -1.0904  0.8049 -0.3458
 3911SOL     OW12575   0.239   6.155   0.888  0.1810  0.0980  0.3554
 3911SOL    HW112576   0.290   6.227   0.850 -1.5230  0.5603 -1.2055
 3911SOL    HW212577   0.270   6.077   0.841 -0.0753  0.2707 -0.1010
 3912SOL     OW12578   0.219   8.169   3.903 -0.6080 -0.6726 -0.3243
 3912SOL    HW112579   0.173   8.097   3.861  1.4374 -2.6561  0.6347
 3912SOL    HW212580   0.294   8.186   3.845  0.6920 -1.5553  1.0197
 3913SOL     OW12581   7.238   0.307   0.550  0.4973 -0.2724  0.0011
 3913SOL    HW112582   7.195   0.225   0.573 -0.6419  0.2784 -0.0809
 3913SOL    HW212583   7.212   0.368   0.620 -0.5358  0.6066 -1.1064
 3914SOL     OW12584   2.387   7.772   5.761  0.3674 -0.0384 -0.6039
 3914SOL    HW112585   2.428   7.781   5.847 -0.9146  0.3866 -0.0092
 3914SOL    HW212586   2.403   7.856   5.719 -2.1113  1.1670  0.6694
 3915SOL     OW12587   4.320   4.945   6.303 -0.0150  0.0943  0.0628
 3915SOL    HW112588   4.267   5.008   6.253 -1.2157 -0.9390 -0.0239
 3915SOL    HW212589   4.274   4.935   6.386  1.5859  1.2551  1.1410
 3916SOL     OW12590   0.123   0.338   4.776 -0.1815 -0.4110  0.3666
 3916SOL    HW112591   0.113   0.394   4.699 -1.7692  0.8487  1.4272
 3916SOL    HW212592   0.217   0.321   4.780  0.2157  1.2409 -0.6503
 3917SOL     OW12593   4.714   7.864   5.104 -0.3897 -0.2405  0.1621
 3917SOL    HW112594   4.795   7.907   5.129 -1.1618 -0.3128  3.2080
 3917SOL    HW212595   4.705   7.791   5.166 -2.9484  0.0176  0.2231
 3918SOL     OW12596   7.457   7.078   1.122 -0.1584 -0.2567  0.4681
 3918SOL    HW112597   7.433   7.126   1.201 -0.1057 -1.1959  1.0666
 3918SOL    HW212598   7.380   7.024   1.102 -0.6242  0.8312 -0.8071
 3919SOL     OW12599   2.537   0.666   1.951 -0.2440  0.0633 -0.0131
 3919SOL    HW112600   2.562   0.755   1.927  0.0163  0.2512  0.9231
 3919SOL    HW212601   2.613   0.631   1.999 -1.4838  0.4486  2.3799
 3920SOL     OW12602   0.164   1.592   2.146  0.2304 -0.1710  0.2199
 3920SOL    HW112603   0.100   1.616   2.079 -1.3731  0.6721  1.9650
 3920SOL    HW212604   0.159   1.496   2.150 -0.8570 -0.1270  0.2388
 3921SOL     OW12605   0.638   0.942   0.670 -0.1442  0.2946  0.0752
 3921SOL    HW112606   0.588   0.964   0.591 -0.6852  1.1858  0.6355
 3921SOL    HW212607   0.619   1.014   0.731  1.2393  0.2669  0.5798
 3922SOL     OW12608   5.263   7.796   3.662  0.3680  0.4636  0.3781
 3922SOL    HW112609   5.256   7.748   3.580  0.2831  1.2010 -0.0588
 3922SOL    HW212610   5.174   7.825   3.681 -0.0957 -1.8235  2.0783
 3923SOL     OW12611   6.893   7.883   3.306  0.0249  0.2981 -0.0400
 3923SOL    HW112612   6.940   7.860   3.386 -1.0049  0.2778  0.5764
 3923SOL    HW212613   6.805   7.904   3.335 -0.0128  1.6273 -1.0066
 3924SOL     OW12614   2.221   4.596   6.814  0.5440  0.8282  0.4559
 3924SOL    HW112615   2.311   4.610   6.843  0.1305 -0.5437  2.6725
 3924SOL    HW212616   2.168   4.635   6.884 -0.6189  1.6725 -0.8515
 3925SOL     OW12617   0.075   7.839   4.792 -0.1827  0.1515  0.6359
 3925SOL    HW112618  -0.004   7.856   4.740  1.1900 -1.0140 -1.9530
 3925SOL    HW212619   0.106   7.754   4.763  1.9283  0.4675  1.7834
 3926SOL     OW12620   1.451   1.989   6.187 -0.0839 -0.0103  0.3814
 3926SOL    HW112621   1.410   2.055   6.130  0.7295  0.0953 -0.1014
 3926SOL    HW212622   1.413   2.004   6.273  0.1045  1.1036  0.2782
 3927SOL     OW12623   4.426   0.759   5.869 -0.4506  0.1127  0.4978
 3927SOL    HW112624   4.501   0.802   5.910 -0.1206  0.4268 -0.4115
 3927SOL    HW212625   4.465   0.695   5.809 -0.9303 -0.8348  1.1839
 3928SOL     OW12626   2.763   5.378   7.285  0.3477  0.2770  0.1297
 3928SOL    HW112627   2.730   5.448   7.342  1.0900 -0.3103  1.3361
 3928SOL    HW212628   2.685   5.345   7.240  0.0636  2.2405 -0.9167
 3929SOL     OW12629   3.130   2.117   4.517  0.1874  0.4910 -0.2950
 3929SOL    HW112630   3.081   2.120   4.599 -1.2223 -1.7227 -0.9883
 3929SOL    HW212631   3.212   2.162   4.538 -0.4619  0.7386  2.0793
 3930SOL     OW12632   2.115   0.844   2.043 -0.5468 -0.2122  0.5196
 3930SOL    HW112633   2.187   0.820   1.985  0.3381  0.1601  1.4221
 3930SOL    HW212634   2.039   0.798   2.008  0.6682 -2.8203  1.0605
 3931SOL     OW12635   3.579   6.253   3.657 -0.5339 -0.5375 -0.0815
 3931SOL    HW112636   3.512   6.199   3.698 -0.7121  0.7941  1.4813
 3931SOL    HW212637   3.583   6.222   3.567 -1.7350 -2.0588  0.3442
 3932SOL     OW12638   6.154   2.020   7.315  0.5498  0.1005 -0.0501
 3932SOL    HW112639   6.226   2.013   7.252  0.8776 -2.7057  0.4941
 3932SOL    HW212640   6.189   1.981   7.395 -1.4166 -0.8761  0.3836
 3933SOL     OW12641   4.779   2.242   1.565  0.4070 -0.2824 -0.0011
 3933SOL    HW112642   4.822   2.251   1.481 -0.6087  1.2389 -0.3986
 3933SOL    HW212643   4.698   2.194   1.546  0.4546 -0.4518  0.2123
 3934SOL     OW12644   2.104   5.099   6.162  0.2830  0.3962  0.2554
 3934SOL    HW112645   2.163   5.030   6.130 -0.1953 -0.1946  0.6216
 3934SOL    HW212646   2.162   5.168   6.192  0.7744  0.1635 -0.1465
 3935SOL     OW12647   1.241   1.015   3.433  0.0685 -0.1204 -0.5734
 3935SOL    HW112648   1.301   1.045   3.365 -0.0299  0.8367 -0.2452
 3935SOL    HW212649   1.209   1.095   3.474  0.2834 -0.6924  0.7371
 3936SOL     OW12650   4.384   6.398   3.677  0.0658  0.2660  0.1432
 3936SOL    HW112651   4.352   6.310   3.657 -0.7335  0.3290  1.0954
 3936SOL    HW212652   4.325   6.457   3.629  1.6521  0.2779 -1.9286
 3937SOL     OW12653   1.097   2.890   7.683  0.2072 -0.3631  0.0927
 3937SOL    HW112654   1.118   2.801   7.653 -0.7887 -0.1497 -1.3751
 3937SOL    HW212655   1.086   2.940   7.602 -0.1418  0.8889  0.8872
 3938SOL     OW12656   1.802   7.845   2.957  0.2929 -0.3199  0.1452
 3938SOL    HW112657   1.855   7.766   2.966  0.8421  0.2640  2.8652
 3938SOL    HW212658   1.866   7.916   2.954 -0.2618  0.1786 -0.1842
 3939SOL     OW12659   6.951   4.831   5.330 -0.5316 -0.3978 -0.0860
 3939SOL    HW112660   6.876   4.869   5.284 -0.9561 -0.8711  0.2122
 3939SOL    HW212661   6.974   4.754   5.278 -0.6642 -0.6210  0.1880
 3940SOL     OW12662   6.935   3.322   2.866 -0.0775  0.4234 -0.5770
 3940SOL    HW112663   6.878   3.267   2.812 -0.4129 -1.2944  1.4063
 3940SOL    HW212664   7.012   3.337   2.812 -1.9740  2.1597 -3.0422
 3941SOL     OW12665   4.990   2.327   2.450  0.0381  0.4442  0.0687
 3941SOL    HW112666   4.965   2.358   2.538  3.2401  2.1917  0.5236
 3941SOL    HW212667   4.968   2.400   2.392 -1.2563 -0.3621 -0.4968
 3942SOL     OW12668   0.427   0.136   5.376 -0.1912 -0.1341 -0.6258
 3942SOL    HW112669   0.402   0.048   5.404 -0.1341  0.3432  0.9993
 3942SOL    HW212670   0.523   0.135   5.376 -0.1891 -0.0022 -0.3619
 3943SOL     OW12671   1.029   0.983   4.741  0.0032 -0.2204  0.2790
 3943SOL    HW112672   0.998   1.066   4.778 -0.3687  0.4192 -1.3374
 3943SOL    HW212673   1.125   0.989   4.745 -0.0234  0.2453  0.2811
 3944SOL     OW12674   2.956   5.693   1.856 -0.0628  0.0595  0.0390
 3944SOL    HW112675   3.045   5.666   1.879  0.2054  0.5836 -0.3717
 3944SOL    HW212676   2.904   5.612   1.860  0.2934 -0.1398  0.9074
 3945SOL     OW12677   4.018   6.020   3.609 -0.4746  0.3767  0.7373
 3945SOL    HW112678   3.935   5.988   3.575  0.0878  0.3092 -0.6404
 3945SOL    HW212679   3.998   6.049   3.698 -1.7502 -0.5287  0.7722
 3946SOL     OW12680   6.846   2.618   5.187 -0.0550 -0.2054 -0.0632
 3946SOL    HW112681   6.867   2.524   5.193 -0.3611 -0.4556 -2.2076
 3946SOL    HW212682   6.929   2.660   5.165 -0.3132 -0.2673 -1.2165
 3947SOL     OW12683   1.615   8.169   3.582 -0.3498 -0.0099 -0.3231
 3947SOL    HW112684   1.546   8.210   3.636 -0.3557 -0.7525  0.2527
 3947SOL    HW212685   1.595   8.197   3.493 -1.3446 -0.1296 -0.1542
 3948SOL     OW12686   6.790   3.509   4.375  0.1688 -0.4896  0.6662
 3948SOL    HW112687   6.727   3.560   4.426 -1.0797  0.1183 -1.4069
 3948SOL    HW212688   6.737   3.448   4.325  1.1198  0.5044 -1.6748
 3949SOL     OW12689   2.542   6.767   0.587 -0.5260 -0.5529  0.1636
 3949SOL    HW112690   2.612   6.702   0.575  0.7407  0.6080  0.9688
 3949SOL    HW212691   2.530   6.806   0.500  1.5214  0.8457  0.4307
 3950SOL     OW12692   6.939   2.943   7.176 -0.5535  0.0634  0.0414
 3950SOL    HW112693   6.903   2.931   7.088 -0.7113  0.3979  0.0609
 3950SOL    HW212694   6.874   2.902   7.233  0.7123 -2.4270 -0.1547
 3951SOL     OW12695   2.415   1.830   4.644 -0.5009  0.1579  0.6038
 3951SOL    HW112696   2.370   1.914   4.633 -2.2839 -0.6478  1.3219
 3951SOL    HW212697   2.494   1.851   4.694  0.4160  1.7293 -1.3167
 3952SOL     OW12698   4.077   7.576   2.017  0.1792  0.1690 -0.6167
 3952SOL    HW112699   4.136   7.617   2.081 -1.0101 -1.3252  1.5765
 3952SOL    HW212700   4.008   7.537   2.070 -0.5143 -1.8040 -2.8017
 3953SOL     OW12701   1.068   7.646   4.983  0.8383  0.3980  0.2015
 3953SOL    HW112702   1.099   7.560   5.012 -2.2329 -1.1518 -0.7452
 3953SOL    HW212703   1.024   7.683   5.059 -0.3825 -0.2136 -0.1796
 3954SOL     OW12704   0.089   3.138   7.449  0.4584  0.3500 -0.5827
 3954SOL    HW112705   0.116   3.054   7.411 -1.7338 -0.1798 -1.1156
 3954SOL    HW212706   0.137   3.143   7.531  0.5550 -1.5002 -0.4743
 3955SOL     OW12707   1.819   1.732   6.386 -0.2877 -0.1282 -0.7815
 3955SOL    HW112708   1.782   1.737   6.298  0.4934 -0.6033 -1.1423
 3955SOL    HW212709   1.806   1.641   6.413  0.3586 -0.2383 -0.8121
 3956SOL     OW12710   5.158   5.761   6.403 -0.2839  0.2816 -0.3471
 3956SOL    HW112711   5.130   5.754   6.312  0.9490 -0.7691 -0.6853
 3956SOL    HW212712   5.096   5.822   6.443 -2.7341 -1.5591 -1.1139
 3957SOL     OW12713   7.337   4.633   8.039 -0.2863 -0.2657 -0.0322
 3957SOL    HW112714   7.264   4.677   7.996  0.7836  1.4136 -0.2294
 3957SOL    HW212715   7.348   4.679   8.122 -0.3846 -1.4969  0.6925
 3958SOL     OW12716   7.523   0.185   2.546 -0.0687  0.2019 -0.4264
 3958SOL    HW112717   7.513   0.177   2.451 -1.3097 -0.5568 -0.2580
 3958SOL    HW212718   7.538   0.278   2.561  2.4590  0.0473 -1.5347
 3959SOL     OW12719   4.066   2.439   1.182  0.2377 -0.2837 -0.1462
 3959SOL    HW112720   4.009   2.422   1.257 -1.8323  0.6813 -1.4160
 3959SOL    HW212721   4.073   2.535   1.179 -0.0697 -0.2856 -1.4070
 3960SOL     OW12722   0.521   6.330   2.984  0.0174 -0.3426 -0.4927
 3960SOL    HW112723   0.484   6.406   2.940 -0.1344  0.2634  0.6477
 3960SOL    HW212724   0.613   6.330   2.959 -0.6345 -1.7985 -3.2670
 3961SOL     OW12725   1.683   0.154   0.041 -0.3260  0.2702 -0.1970
 3961SOL    HW112726   1.763   0.102   0.047 -0.5839 -0.2617 -1.1530
 3961SOL    HW212727   1.614   0.096   0.071 -0.3363  0.8134  0.8682
 3962SOL     OW12728   6.845   7.272   3.541 -0.0602  0.1551  0.2387
 3962SOL    HW112729   6.833   7.367   3.539 -0.6264  0.2198  2.9598
 3962SOL    HW212730   6.764   7.238   3.579  0.4962 -1.3449  0.1504
 3963SOL     OW12731   5.454   6.552   2.255 -0.3436 -0.4281  0.0120
 3963SOL    HW112732   5.413   6.557   2.168  0.0181 -1.8221 -0.2598
 3963SOL    HW212733   5.536   6.506   2.239  1.8590  3.0147  0.3785
 3964SOL     OW12734   0.383   5.191   2.862  0.9634  0.7521 -0.0934
 3964SOL    HW112735   0.465   5.241   2.855  2.1004 -0.6393  2.1148
 3964SOL    HW212736   0.403   5.106   2.824 -0.4110  1.2709 -2.1631
 3965SOL     OW12737   7.192   5.534   2.529 -0.0345 -0.6062  0.1828
 3965SOL    HW112738   7.136   5.601   2.568  2.2245  1.5357  0.0076
 3965SOL    HW212739   7.177   5.543   2.435  1.3653  0.8129  0.0484
 3966SOL     OW12740   4.468   5.416   5.186 -0.5016  0.1427 -0.0288
 3966SOL    HW112741   4.407   5.440   5.117  1.0971  1.1805 -1.1410
 3966SOL    HW212742   4.419   5.428   5.267 -1.8179  0.7551 -0.8911
 3967SOL     OW12743   2.840   6.930   4.366  0.1960  0.0085 -0.0440
 3967SOL    HW112744   2.774   6.874   4.406  1.8323 -1.3177  0.9852
 3967SOL    HW212745   2.821   7.018   4.398 -0.8089 -0.4033  0.5263
 3968SOL     OW12746   5.407   2.043   6.608  0.6316 -0.2734 -0.3931
 3968SOL    HW112747   5.390   2.128   6.650 -0.1334 -0.6775  0.1341
 3968SOL    HW212748   5.408   2.063   6.515  0.2273  0.2845 -0.2870
 3969SOL     OW12749   1.117   6.195   4.544  0.0300 -0.4377  0.2406
 3969SOL    HW112750   1.186   6.154   4.596  0.0036  0.5310  1.0753
 3969SOL    HW212751   1.115   6.145   4.463  2.4447  0.1588 -0.2653
 3970SOL     OW12752   6.765   6.876   5.148 -0.1177 -0.1230 -0.7113
 3970SOL    HW112753   6.763   6.924   5.065 -1.3924 -0.4777 -0.9132
 3970SOL    HW212754   6.804   6.937   5.210 -0.7168  0.7917 -1.2031
 3971SOL     OW12755   7.855   3.269   5.771 -0.4675 -0.6889 -0.6612
 3971SOL    HW112756   7.932   3.257   5.827  0.7256 -0.3366 -2.1686
 3971SOL    HW212757   7.830   3.180   5.747  0.0993 -0.7715 -0.9706
 3972SOL     OW12758   6.700   4.540   4.743  0.3231  0.1276  0.8778
 3972SOL    HW112759   6.765   4.607   4.765  1.4144 -1.1407  1.7336
 3972SOL    HW212760   6.745   4.484   4.679 -0.1586 -0.4096  1.0047
 3973SOL     OW12761   8.077   2.099   3.542 -0.3587 -0.3347 -0.1024
 3973SOL    HW112762   8.157   2.046   3.535 -0.2270 -0.1846  0.2815
 3973SOL    HW212763   8.103   2.186   3.512 -0.3017 -0.2104  0.3000
 3974SOL     OW12764   7.618   1.317   7.635  0.4265  0.2670 -0.6798
 3974SOL    HW112765   7.606   1.235   7.683 -3.1262  1.4934  0.9285
 3974SOL    HW212766   7.588   1.298   7.547  0.0902 -0.3070 -0.4446
 3975SOL     OW12767   4.786   6.591   6.628  0.3048 -0.1305 -0.0147
 3975SOL    HW112768   4.698   6.591   6.665  0.4000  0.2136  0.2167
 3975SOL    HW212769   4.834   6.656   6.680  0.7062 -0.3486 -0.1099
 3976SOL     OW12770   2.457   3.795   4.740  0.1439  0.1289 -0.2250
 3976SOL    HW112771   2.508   3.724   4.701  0.0403 -0.2632  0.3365
 3976SOL    HW212772   2.367   3.764   4.738 -0.0035  0.5720 -0.6744
 3977SOL     OW12773   2.365   2.066   2.508  0.4744  0.0600  0.7749
 3977SOL    HW112774   2.279   2.085   2.544 -0.6809 -2.6707 -0.2662
 3977SOL    HW212775   2.395   1.990   2.557  0.5505 -1.3578 -1.3259
 3978SOL     OW12776   7.828   6.196   6.633  0.1332 -0.4126  0.0297
 3978SOL    HW112777   7.844   6.104   6.611 -2.4954 -0.6415 -1.2808
 3978SOL    HW212778   7.792   6.234   6.553 -2.0658  0.8701  1.5239
 3979SOL     OW12779   2.162   1.862   2.068  0.0063  0.2849  0.5017
 3979SOL    HW112780   2.233   1.926   2.070 -2.1185  2.8201 -0.5743
 3979SOL    HW212781   2.200   1.787   2.021  1.7637  1.8118 -0.6731
 3980SOL     OW12782   3.178   2.533   3.201 -0.0608 -0.2965 -0.4020
 3980SOL    HW112783   3.089   2.551   3.171  0.5965  0.5714 -1.9029
 3980SOL    HW212784   3.170   2.529   3.297 -2.0385 -2.2190 -0.5894
 3981SOL     OW12785   4.375   5.890   1.833 -0.5506  0.0734  0.5837
 3981SOL    HW112786   4.287   5.858   1.813  0.0596 -1.0395 -0.4801
 3981SOL    HW212787   4.364   5.943   1.912 -2.1853  0.0618  0.4026
 3982SOL     OW12788   5.262   0.598   8.092  0.3217 -0.0361  0.1596
 3982SOL    HW112789   5.307   0.667   8.141 -1.3529  0.8527  0.5206
 3982SOL    HW212790   5.311   0.590   8.010  0.3684  1.8510 -0.0380
 3983SOL     OW12791   5.798   5.311   4.590  0.3188  0.6404  0.2093
 3983SOL    HW112792   5.838   5.294   4.505 -0.3918  1.3223 -0.2726
 3983SOL    HW212793   5.797   5.406   4.598  0.4583  0.5816  1.0210
 3984SOL     OW12794   4.867   5.569   6.092  0.4157  0.1635 -0.4531
 3984SOL    HW112795   4.868   5.620   6.173  1.1317 -0.8363  0.1958
 3984SOL    HW212796   4.794   5.605   6.042 -0.4510  0.3905  0.9139
 3985SOL     OW12797   1.259   0.727   5.973  0.1816 -0.3381 -0.2234
 3985SOL    HW112798   1.215   0.644   5.992  0.3540 -0.7408 -1.5216
 3985SOL    HW212799   1.239   0.744   5.881 -2.1566  2.4443  0.6599
 3986SOL     OW12800   1.873   3.798   6.461  0.6470 -0.1369  0.2637
 3986SOL    HW112801   1.849   3.811   6.552  1.6979  1.0214  0.3991
 3986SOL    HW212802   1.832   3.871   6.414 -0.6974 -1.2523 -0.3732
 3987SOL     OW12803   3.687   7.058   1.858  0.0781  0.1657 -0.3961
 3987SOL    HW112804   3.636   7.086   1.934 -0.4770  0.6398 -0.9321
 3987SOL    HW212805   3.690   6.962   1.866  0.1290  0.2203  0.2830
 3988SOL     OW12806   1.385   0.855   5.483  0.0505 -0.6880  0.2161
 3988SOL    HW112807   1.386   0.943   5.444  1.4615 -1.0450 -0.6473
 3988SOL    HW212808   1.409   0.797   5.410 -0.1968 -1.7103  0.9347
 3989SOL     OW12809   6.610   2.362   0.281 -0.2989  0.0702 -0.3701
 3989SOL    HW112810   6.577   2.305   0.351  1.3885  0.7800  1.0806
 3989SOL    HW212811   6.572   2.448   0.302  1.1406  0.5451  0.4128
 3990SOL     OW12812   1.750   0.754   1.102  0.0160  0.1190 -0.4107
 3990SOL    HW112813   1.684   0.708   1.050 -1.0914  1.2407 -0.0352
 3990SOL    HW212814   1.744   0.845   1.074  0.6928  0.4152  0.3739
 3991SOL     OW12815   8.125   7.738   6.972  0.2930  0.0718 -0.3363
 3991SOL    HW112816   8.148   7.749   6.880  0.6487 -1.6353 -0.4959
 3991SOL    HW212817   8.032   7.717   6.971 -0.0619  1.5190 -0.1504
 3992SOL     OW12818   4.846   4.203   7.494 -0.0319 -0.0102 -0.2395
 3992SOL    HW112819   4.908   4.135   7.520  1.0090  0.2373 -1.8949
 3992SOL    HW212820   4.824   4.182   7.403 -0.4867  1.2760 -0.4522
 3993SOL     OW12821   3.286   1.965   5.148 -0.4160 -0.4930 -0.5364
 3993SOL    HW112822   3.374   1.931   5.134 -0.4160 -1.8735  2.2800
 3993SOL    HW212823   3.233   1.888   5.168 -1.4527  0.6441  1.3854
 3994SOL     OW12824   6.524   3.981   1.443  0.1015  0.3026  0.2058
 3994SOL    HW112825   6.481   3.933   1.515 -0.5807 -0.3177 -0.5885
 3994SOL    HW212826   6.568   3.913   1.393  1.0580  0.8088  0.3530
 3995SOL     OW12827   8.147   3.452   4.121 -0.6802  0.0791  0.1192
 3995SOL    HW112828   8.232   3.452   4.165 -0.9589  2.2779  0.7559
 3995SOL    HW212829   8.168   3.445   4.028  0.1855  0.5389  0.2750
 3996SOL     OW12830   2.147   8.110   5.286  0.8056 -0.2030 -0.6019
 3996SOL    HW112831   2.127   8.068   5.370  3.4278  0.4693  0.4331
 3996SOL    HW212832   2.075   8.082   5.229 -1.2444 -0.4495  1.8818
 3997SOL     OW12833   0.737   4.792   5.383  0.2051  0.4548  0.1519
 3997SOL    HW112834   0.700   4.860   5.439 -0.2276  0.4002 -0.0695
 3997SOL    HW212835   0.662   4.748   5.345  0.4842 -0.1737  0.3186
 3998SOL     OW12836   2.313   4.951   6.085  0.0892  0.6103 -0.5821
 3998SOL    HW112837   2.356   4.966   6.001 -0.9916  3.0650 -0.7886
 3998SOL    HW212838   2.374   4.986   6.150  1.0214 -1.4815 -0.2481
 3999SOL     OW12839   0.368   2.730   4.223 -0.1866 -0.4647 -0.2667
 3999SOL    HW112840   0.282   2.756   4.190 -0.9186 -1.4455  0.7761
 3999SOL    HW212841   0.387   2.648   4.179  0.0521 -0.4253 -0.2367
 4000SOL     OW12842   0.411   7.945   4.560 -0.3367  0.0839 -0.1266
 4000SOL    HW112843   0.410   8.032   4.600 -2.0255  0.2959 -0.5364
 4000SOL    HW212844   0.430   7.886   4.633 -1.4179  0.6264  0.6272
 4001SOL     OW12845   5.413   8.035   8.128 -0.6147  0.4053 -0.3291
 4001SOL    HW112846   5.398   8.102   8.196 -0.1359  0.7681 -0.5763
 4001SOL    HW212847   5.360   7.961   8.156 -0.8422  0.7459  0.1644
 4002SOL     OW12848   6.404   1.905   3.052  0.0058  0.1034 -0.8214
 4002SOL    HW112849   6.339   1.909   3.122  1.0992  0.2966  0.2124
 4002SOL    HW212850   6.352   1.902   2.972 -1.3598 -2.2083  0.0291
 4003SOL     OW12851   7.211   2.676   3.299  0.0933 -0.2907 -0.0028
 4003SOL    HW112852   7.139   2.617   3.276  1.2395 -0.5896 -3.3723
 4003SOL    HW212853   7.265   2.679   3.220  1.6186  3.0909  1.0001
 4004SOL     OW12854   5.838   6.182   0.478  0.0016 -0.2187  0.4507
 4004SOL    HW112855   5.786   6.166   0.400 -0.5532  1.1260  0.5218
 4004SOL    HW212856   5.928   6.163   0.451 -0.2326 -0.1602 -0.3994
 4005SOL     OW12857   7.738   3.804   6.801  0.0353  0.1599 -0.2518
 4005SOL    HW112858   7.677   3.787   6.729  1.8084 -1.9760 -1.3497
 4005SOL    HW212859   7.787   3.722   6.811  1.3490  1.1341  1.9376
 4006SOL     OW12860   7.497   7.998   4.551 -0.6718  0.0971 -0.5353
 4006SOL    HW112861   7.447   8.040   4.621  0.0385  0.7359 -0.4054
 4006SOL    HW212862   7.530   8.070   4.498 -0.0085 -0.3226 -0.6978
 4007SOL     OW12863   0.251   7.169   1.274 -0.7274 -0.2621  0.1759
 4007SOL    HW112864   0.247   7.077   1.298  0.9238 -0.3504  0.2305
 4007SOL    HW212865   0.162   7.191   1.246 -0.5657 -2.5963 -2.5759
 4008SOL     OW12866   0.640   2.940   0.868 -0.6168 -0.1926  0.4868
 4008SOL    HW112867   0.679   3.024   0.845  0.2003 -0.4956  0.7357
 4008SOL    HW212868   0.646   2.936   0.963 -0.0040 -0.8288  0.4306
 4009SOL     OW12869   3.131   7.787   5.850 -0.4679  0.6752 -0.2754
 4009SOL    HW112870   3.185   7.758   5.776 -0.6612  0.8477 -0.4844
 4009SOL    HW212871   3.193   7.829   5.909  0.0750 -1.3942  0.7171
 4010SOL     OW12872   2.037   4.022   4.348  0.3036 -1.0826 -0.0034
 4010SOL    HW112873   2.004   4.005   4.436  0.0137  3.5502  0.9978
 4010SOL    HW212874   2.131   4.039   4.360  0.2617 -0.4089 -0.5717
 4011SOL     OW12875   3.786   4.181   6.332  0.3031  0.4299  0.1526
 4011SOL    HW112876   3.724   4.205   6.263  1.0263  0.7284 -0.4054
 4011SOL    HW212877   3.731   4.146   6.402 -0.3672 -0.8622 -0.9793
 4012SOL     OW12878   5.883   5.640   6.140  0.1638  0.0337  0.7359
 4012SOL    HW112879   5.804   5.627   6.191  0.3259 -0.6734  0.8199
 4012SOL    HW212880   5.877   5.730   6.108 -0.5156  0.0867  1.0021
 4013SOL     OW12881   6.671   1.492   2.241 -0.5173  0.0216  0.0631
 4013SOL    HW112882   6.670   1.572   2.294  0.0035  0.9818 -1.3063
 4013SOL    HW212883   6.693   1.523   2.153  1.5638 -1.8259 -0.1478
 4014SOL     OW12884   2.302   5.456   1.154 -0.6249 -0.0062  0.2076
 4014SOL    HW112885   2.345   5.524   1.207 -1.7553 -0.0238  1.1936
 4014SOL    HW212886   2.373   5.395   1.132  0.0122  0.3865  1.1019
 4015SOL     OW12887   2.938   0.018   7.213 -0.1808  0.2186 -0.6265
 4015SOL    HW112888   2.993  -0.046   7.259  1.2184  1.6065 -0.2738
 4015SOL    HW212889   2.897   0.068   7.283 -1.4521 -0.3929 -0.9000
 4016SOL     OW12890   7.688   6.755   4.446 -0.6277  0.4235 -0.1475
 4016SOL    HW112891   7.709   6.707   4.366  2.3096  1.1833  0.0478
 4016SOL    HW212892   7.659   6.841   4.417 -0.7656  0.2874 -0.4112
 4017SOL     OW12893   6.608   1.873   1.336  0.4380 -0.0532  0.1244
 4017SOL    HW112894   6.675   1.913   1.281 -0.6300 -0.1437 -1.3153
 4017SOL    HW212895   6.543   1.840   1.274 -0.9773  0.0983  1.4608
 4018SOL     OW12896   0.860   2.594   5.505  0.1517 -0.0455  0.3788
 4018SOL    HW112897   0.895   2.638   5.583 -2.4217  0.0723  1.5754
 4018SOL    HW212898   0.789   2.650   5.475  0.4852 -0.5770 -1.5351
 4019SOL     OW12899   7.299   3.322   1.632 -0.1483  0.1898  0.1108
 4019SOL    HW112900   7.307   3.385   1.561 -4.0523 -0.0852 -0.8313
 4019SOL    HW212901   7.326   3.239   1.594 -0.2757  0.3862 -0.4221
 4020SOL     OW12902   5.842   2.628   2.077  0.0828 -0.1860 -0.2973
 4020SOL    HW112903   5.838   2.680   2.157 -0.1625 -1.3114  0.4548
 4020SOL    HW212904   5.753   2.631   2.042 -0.0203 -0.3985 -0.0554
 4021SOL     OW12905   6.717   3.056   3.111  0.5193  0.0680  0.1104
 4021SOL    HW112906   6.724   2.962   3.127 -1.7226  0.1618  2.1814
 4021SOL    HW212907   6.797   3.093   3.148  0.4737 -0.8608  1.1793
 4022SOL     OW12908   7.299   2.656   0.013  0.5537  0.0125  0.8446
 4022SOL    HW112909   7.297   2.621   0.102  0.6633 -2.2649  0.0216
 4022SOL    HW212910   7.391   2.649  -0.013  0.5029  0.5644  0.4979
 4023SOL     OW12911   0.109   3.574   8.047  0.3396  0.2893 -0.9201
 4023SOL    HW112912   0.107   3.491   8.095 -0.3159  0.6905 -0.2259
 4023SOL    HW212913   0.202   3.593   8.036  0.4976 -0.1443 -0.3927
 4024SOL     OW12914   4.992   1.787   7.635  0.5043  0.1078  0.1205
 4024SOL    HW112915   4.970   1.731   7.561  2.8708  0.1951 -0.7090
 4024SOL    HW212916   4.952   1.744   7.710  1.4221 -2.1955 -0.6298
 4025SOL     OW12917   0.938   0.569   1.033 -0.4647 -0.1226  0.0193
 4025SOL    HW112918   0.971   0.573   1.122 -0.7487 -1.3057  0.1956
 4025SOL    HW212919   0.906   0.657   1.015 -3.0604 -0.4905  2.1512
 4026SOL     OW12920   1.737   2.855   4.637 -0.0943 -0.5112 -0.3751
 4026SOL    HW112921   1.702   2.777   4.594 -0.7053 -0.3282 -0.2126
 4026SOL    HW212922   1.798   2.892   4.574  0.4953 -1.3286 -0.3113
 4027SOL     OW12923   3.145   5.384   3.518 -0.0630 -0.0394  0.3705
 4027SOL    HW112924   3.138   5.355   3.609 -0.5658 -0.9455  0.0588
 4027SOL    HW212925   3.079   5.453   3.510 -2.3997 -2.1527 -0.0961
 4028SOL     OW12926   3.176   0.762   5.066  0.1893 -0.6290 -0.0058
 4028SOL    HW112927   3.142   0.707   4.996 -1.0082  0.4470 -0.3181
 4028SOL    HW212928   3.128   0.844   5.057  1.6171  0.3345  0.6910
 4029SOL     OW12929   6.035   2.588   5.888  0.5087 -0.2372 -0.0521
 4029SOL    HW112930   5.999   2.506   5.919 -0.4643  0.6101  1.1793
 4029SOL    HW212931   6.120   2.565   5.851 -0.0124 -1.8594 -0.3001
 4030SOL     OW12932   7.746   3.014   2.072 -0.0487 -0.1749  0.1315
 4030SOL    HW112933   7.690   2.966   2.011  1.3603 -0.5599 -0.8979
 4030SOL    HW212934   7.684   3.061   2.129 -1.4452  0.9067 -2.1268
 4031SOL     OW12935   3.062   7.428   6.836 -0.0435  0.4564 -0.0736
 4031SOL    HW112936   2.972   7.414   6.806  0.1429  0.0760 -0.4600
 4031SOL    HW212937   3.060   7.405   6.929 -0.1234 -0.5221 -0.3129
 4032SOL     OW12938   1.194   6.122   4.177  0.0236  0.3691  0.5966
 4032SOL    HW112939   1.151   6.205   4.155  0.3869  0.9383  1.8739
 4032SOL    HW212940   1.123   6.061   4.194 -0.2478  0.3898 -0.4319
 4033SOL     OW12941   1.751   1.184   4.055  0.3568  0.1938  0.6766
 4033SOL    HW112942   1.774   1.196   3.963  0.4775 -1.4992  0.4506
 4033SOL    HW212943   1.689   1.111   4.054 -1.2527  1.4785  1.7602
 4034SOL     OW12944   2.410   5.420   7.092  0.3021 -0.3319 -0.2912
 4034SOL    HW112945   2.351   5.461   7.029 -2.3534  0.6191  2.5375
 4034SOL    HW212946   2.466   5.492   7.122  0.8279 -0.5405 -0.7603
 4035SOL     OW12947   5.950   1.001   0.124 -0.2623 -0.2536  0.6674
 4035SOL    HW112948   5.985   1.076   0.170  0.2683  0.1767 -0.3983
 4035SOL    HW212949   5.857   1.020   0.113  0.0714  0.8321 -0.6152
 4036SOL     OW12950   2.159   6.165   7.612 -0.1001 -0.1011  0.2860
 4036SOL    HW112951   2.179   6.090   7.668 -2.1254 -0.2863  0.8448
 4036SOL    HW212952   2.105   6.221   7.667 -2.9189 -0.7007 -1.6889
 4037SOL     OW12953   3.882   5.165   0.809 -0.2412  0.0564 -0.4466
 4037SOL    HW112954   3.813   5.099   0.806 -0.9493  0.6837  0.8502
 4037SOL    HW212955   3.837   5.247   0.788  0.0050  0.5173  0.7270
 4038SOL     OW12956   7.265   8.168   2.294  0.2903 -0.1030 -0.0923
 4038SOL    HW112957   7.323   8.241   2.275 -0.0163  0.1273 -0.1541
 4038SOL    HW212958   7.183   8.209   2.323  0.5391 -0.4359  1.1500
 4039SOL     OW12959   5.331   6.053   3.876 -0.1048 -0.3921 -0.6306
 4039SOL    HW112960   5.390   5.994   3.923  2.2846 -0.3965 -3.3760
 4039SOL    HW212961   5.268   5.995   3.834  1.4325 -0.9855 -2.2366
 4040SOL     OW12962   6.608   7.600   0.323  0.2353  0.2291 -0.6584
 4040SOL    HW112963   6.695   7.612   0.360  0.3722  1.4373 -1.2905
 4040SOL    HW212964   6.624   7.587   0.229 -0.3117  2.4023 -1.1088
 4041SOL     OW12965   2.624   1.339   1.376 -0.1046 -0.3896  0.6544
 4041SOL    HW112966   2.555   1.273   1.382 -0.6255  0.1663  0.8902
 4041SOL    HW212967   2.622   1.383   1.460  0.7158 -0.5295  0.7564
 4042SOL     OW12968   5.943   5.935   8.194 -0.2145 -0.1548  0.3613
 4042SOL    HW112969   5.991   5.875   8.138  1.2409  0.9436  0.3487
 4042SOL    HW212970   6.011   5.973   8.251 -1.4887 -0.4901  2.1673
 4043SOL     OW12971   5.750   3.356   6.486  0.4048  0.2970 -0.1661
 4043SOL    HW112972   5.684   3.350   6.556 -0.2961  2.3084 -0.5760
 4043SOL    HW212973   5.829   3.319   6.525 -0.3741 -0.0873  1.1434
 4044SOL     OW12974   6.457   8.062   1.290  0.4834  0.1956  0.2538
 4044SOL    HW112975   6.471   8.062   1.195 -1.3641 -1.5224 -0.0853
 4044SOL    HW212976   6.447   7.970   1.313 -2.4542  0.7102  1.5139
 4045SOL     OW12977   4.849   7.814   4.874 -0.0286 -0.0634  0.3235
 4045SOL    HW112978   4.790   7.835   4.947 -1.7368 -0.7188 -0.8101
 4045SOL    HW212979   4.805   7.849   4.797  1.1558 -0.4544 -0.5553
 4046SOL     OW12980   5.758   1.316   2.662 -0.0833 -0.2094 -0.3232
 4046SOL    HW112981   5.766   1.348   2.752  0.3201 -3.1530  0.8264
 4046SOL    HW212982   5.677   1.265   2.663  0.2520 -0.7835 -1.4483
 4047SOL     OW12983   6.204   4.678   0.550 -0.2658  0.2762  0.1831
 4047SOL    HW112984   6.252   4.702   0.630 -1.4296 -1.4675  1.4732
 4047SOL    HW212985   6.112   4.683   0.575 -0.8112  2.6088 -1.9705
 4048SOL     OW12986   0.508   5.377   5.883 -0.1786  0.7770  0.1525
 4048SOL    HW112987   0.558   5.309   5.929 -1.3531  0.2327  0.6679
 4048SOL    HW212988   0.564   5.403   5.810  0.4278 -0.5146  0.1397
 4049SOL     OW12989   5.389   7.011   4.423  0.5554  0.4991  0.8738
 4049SOL    HW112990   5.460   7.072   4.399  0.9147 -0.0678  0.4791
 4049SOL    HW212991   5.334   7.007   4.346  0.2719  0.6718  1.0631
 4050SOL     OW12992   3.259   1.011   1.170  0.4793  0.0984 -0.2567
 4050SOL    HW112993   3.277   0.946   1.239 -0.6464  0.5401  0.4890
 4050SOL    HW212994   3.199   1.073   1.211 -1.1547 -0.2593 -1.9848
 4051SOL     OW12995   1.013   6.433   7.890 -0.1286  0.0540 -0.7480
 4051SOL    HW112996   0.963   6.476   7.960  2.0413  0.8361  0.4050
 4051SOL    HW212997   1.053   6.357   7.932  0.5002  0.0384 -1.3636
 4052SOL     OW12998   3.082   0.329   4.749  0.0213 -0.6400 -0.1940
 4052SOL    HW112999   3.132   0.297   4.674  0.2023  1.8165 -1.2222
 4052SOL    HW213000   2.991   0.323   4.721  0.0350 -0.6159 -0.2448
 4053SOL     OW13001   5.026   3.341   7.658  0.0753 -0.6677  0.1153
 4053SOL    HW113002   5.087   3.331   7.586 -0.9874  0.6510 -1.0248
 4053SOL    HW213003   5.082   3.366   7.733  1.1815 -2.0666 -0.2001
 4054SOL     OW13004   3.464   0.253   6.151  0.1786  0.3884 -0.1454
 4054SOL    HW113005   3.482   0.341   6.184  1.4173 -0.9970  3.3429
 4054SOL    HW213006   3.382   0.228   6.193 -2.3054  1.0255 -4.0388
 4055SOL     OW13007   5.843   5.747   1.511 -0.7273  0.0914  0.2962
 4055SOL    HW113008   5.761   5.718   1.472  0.3679 -2.6700 -0.1682
 4055SOL    HW213009   5.873   5.672   1.562  1.1426  1.3006  1.0724
 4056SOL     OW13010   4.446   3.421   0.220 -0.0414  0.3558 -0.3096
 4056SOL    HW113011   4.529   3.404   0.265 -0.2055 -1.2075 -0.5290
 4056SOL    HW213012   4.472   3.459   0.136  0.4946 -0.6975 -0.6344
 4057SOL     OW13013   1.715   3.223   3.957  0.0962  0.1099 -0.1930
 4057SOL    HW113014   1.686   3.314   3.961  1.9550  0.7333  0.0301
 4057SOL    HW213015   1.758   3.207   4.042  0.6617 -0.6492 -0.6039
 4058SOL     OW13016   0.189   3.744   3.649 -0.3204 -0.0857 -0.1755
 4058SOL    HW113017   0.215   3.826   3.607  1.2704 -0.8239 -0.7034
 4058SOL    HW213018   0.136   3.699   3.583 -2.3085  1.0042  0.5651
 4059SOL     OW13019   7.282   5.879   4.414  0.6232 -0.5423 -0.1596
 4059SOL    HW113020   7.322   5.883   4.501  0.0650 -1.2252  0.1414
 4059SOL    HW213021   7.189   5.894   4.430  0.3860 -1.5349 -0.5227
 4060SOL     OW13022   3.138   5.226   7.777 -0.0295  0.6069 -0.1186
 4060SOL    HW113023   3.198   5.300   7.767  0.2683  0.1321 -2.4836
 4060SOL    HW213024   3.063   5.250   7.722 -0.9459  0.1342  0.8998
 4061SOL     OW13025   5.340   1.562   1.262 -0.2172 -0.3293 -0.4702
 4061SOL    HW113026   5.384   1.507   1.327  4.0070  0.6221 -2.1590
 4061SOL    HW213027   5.305   1.499   1.198 -0.4789 -1.1346  0.4312
 4062SOL     OW13028   4.975   4.458   4.716 -0.0482 -0.0295  0.3126
 4062SOL    HW113029   5.008   4.486   4.802 -0.2427 -1.2207  0.7881
 4062SOL    HW213030   4.888   4.423   4.734 -0.4744  0.5674 -0.5289
 4063SOL     OW13031   1.953   6.321   2.448 -0.7354  0.1057  0.5488
 4063SOL    HW113032   1.887   6.385   2.471 -2.0863 -1.0751  0.0990
 4063SOL    HW213033   2.020   6.331   2.516 -1.5649  1.0403  1.2665
 4064SOL     OW13034   2.539   2.718   2.553  0.1034 -0.7133 -0.0728
 4064SOL    HW113035   2.492   2.782   2.499  0.2181  1.2123  1.9840
 4064SOL    HW213036   2.493   2.719   2.637  2.1218 -0.8308  1.0984
 4065SOL     OW13037   5.668   6.305   3.511 -0.1252 -0.1595  0.1696
 4065SOL    HW113038   5.657   6.239   3.442  0.5050 -0.6083  0.4898
 4065SOL    HW213039   5.649   6.258   3.592  1.8521 -0.3805  0.5442
 4066SOL     OW13040   2.169   2.905   6.776  0.4682 -0.6687 -0.0815
 4066SOL    HW113041   2.087   2.864   6.805  0.5175  0.2454  1.4921
 4066SOL    HW213042   2.169   2.990   6.820  1.7974 -0.2528 -0.8563
 4067SOL     OW13043   4.964   2.712   5.022  0.1739  0.0548  0.3554
 4067SOL    HW113044   5.027   2.659   5.071 -0.5264 -0.5926  0.5707
 4067SOL    HW213045   4.972   2.800   5.058  1.0947  0.0265  0.2413
 4068SOL     OW13046   8.124   0.310   3.112 -0.0533 -0.6588  0.1588
 4068SOL    HW113047   8.153   0.400   3.129 -1.3894 -0.1208 -0.2467
 4068SOL    HW213048   8.205   0.261   3.096  0.6300  0.9682 -1.8852
 4069SOL     OW13049   3.849   6.774   7.598  0.5515 -0.2528  0.0343
 4069SOL    HW113050   3.770   6.741   7.640  0.5171  0.6206  0.6799
 4069SOL    HW213051   3.821   6.856   7.556  1.2828  0.4954  0.9631
 4070SOL     OW13052   6.028   6.724   2.988 -0.8227 -0.3885 -0.6617
 4070SOL    HW113053   6.123   6.713   2.985 -0.4304  1.9307  0.6343
 4070SOL    HW213054   5.999   6.666   3.058  0.2845  1.8434  1.8197
 4071SOL     OW13055   1.136   0.267   5.481  0.3640  0.5232  0.1140
 4071SOL    HW113056   1.115   0.175   5.467  2.1180  0.2886 -1.2915
 4071SOL    HW213057   1.083   0.313   5.415 -0.3651  0.5332  0.6887
 4072SOL     OW13058   0.855   1.998   4.073  0.0104  0.1495  0.3518
 4072SOL    HW113059   0.928   1.964   4.021  1.2598  0.1703  2.0195
 4072SOL    HW213060   0.884   2.084   4.103  0.0786 -0.5543  2.4648
 4073SOL     OW13061   1.603   2.043   0.260 -0.6142  0.0845 -0.4396
 4073SOL    HW113062   1.542   2.027   0.188 -0.5777  0.7062 -0.6201
 4073SOL    HW213063   1.553   2.098   0.321 -0.6996 -0.5778  0.0915
 4074SOL     OW13064   7.628   6.032   5.014 -0.2135  0.3875 -0.1862
 4074SOL    HW113065   7.534   6.025   5.033  0.1236  0.6583  1.7999
 4074SOL    HW213066   7.671   6.010   5.097  1.5186 -0.5502 -1.2820
 4075SOL     OW13067   2.103   2.518   0.725  0.3625  0.0988  0.4618
 4075SOL    HW113068   2.027   2.518   0.782  0.8634 -2.1643  1.2228
 4075SOL    HW213069   2.070   2.487   0.641  0.3263 -0.2967  0.6206
 4076SOL     OW13070   1.455   7.350   4.563  0.3593 -0.3081  0.1255
 4076SOL    HW113071   1.483   7.423   4.617  0.6872 -0.8793  0.7511
 4076SOL    HW213072   1.515   7.350   4.488  1.6113 -1.0723  1.0820
 4077SOL     OW13073   3.289   3.163   6.989 -0.1499 -0.3589 -0.2095
 4077SOL    HW113074   3.241   3.246   6.992 -0.6708 -0.5703 -1.8920
 4077SOL    HW213075   3.259   3.115   7.066 -3.0852 -0.6895 -1.4459
 4078SOL     OW13076   2.440   6.501   1.226  0.6566 -0.0840  0.4852
 4078SOL    HW113077   2.388   6.420   1.229  0.6965 -0.0777  2.0817
 4078SOL    HW213078   2.458   6.514   1.133 -1.6364 -0.4481 -0.0872
 4079SOL     OW13079   6.644   4.539   5.729  0.1672  0.3214  0.3620
 4079SOL    HW113080   6.589   4.569   5.656  1.0057  1.3870  0.1488
 4079SOL    HW213081   6.732   4.533   5.692 -0.0302 -3.4880  0.0913
 4080SOL     OW13082   5.665   6.525   2.536 -0.3516 -0.6449 -0.0514
 4080SOL    HW113083   5.646   6.499   2.446 -1.8473  0.5280 -0.1278
 4080SOL    HW213084   5.648   6.447   2.588 -0.6752 -0.9944 -0.6686
 4081SOL     OW13085   7.408   6.114   3.466  0.2579  0.2852  0.2582
 4081SOL    HW113086   7.453   6.035   3.436  0.9238  1.2282 -1.4035
 4081SOL    HW213087   7.337   6.082   3.521 -0.6725 -1.6279 -1.8721
 4082SOL     OW13088   7.267   6.622   0.953 -0.4426  1.4276 -0.2926
 4082SOL    HW113089   7.272   6.700   1.008  1.9804  1.7597 -0.8707
 4082SOL    HW213090   7.347   6.624   0.901 -0.6995 -1.0292 -0.9035
 4083SOL     OW13091   2.806   7.626   3.734  0.1441  0.3797 -0.1348
 4083SOL    HW113092   2.794   7.700   3.792  0.5778  0.1873  0.2072
 4083SOL    HW213093   2.898   7.603   3.743  0.3906  0.7794 -1.4258
 4084SOL     OW13094   0.758   7.833   3.946 -0.0393  0.1288  0.5971
 4084SOL    HW113095   0.784   7.772   3.877  0.3526  0.5294  0.3781
 4084SOL    HW213096   0.821   7.818   4.016  0.2866  0.5159  0.4001
 4085SOL     OW13097   2.692   0.256   5.343 -0.2170  0.4493 -0.2447
 4085SOL    HW113098   2.703   0.162   5.359  1.3330  0.4440 -1.1767
 4085SOL    HW213099   2.672   0.293   5.429  0.5898 -0.5457  0.3845
 4086SOL     OW13100   5.960   4.360   4.248 -0.5586  0.1590  0.1334
 4086SOL    HW113101   6.049   4.341   4.277 -0.5048 -2.2891 -1.2956
 4086SOL    HW213102   5.908   4.287   4.282 -2.1793  1.7784  1.3387
 4087SOL     OW13103   1.585   5.682   4.251 -0.2281  0.1833 -0.7953
 4087SOL    HW113104   1.526   5.667   4.177  0.8271 -1.7613 -1.2861
 4087SOL    HW213105   1.532   5.732   4.314 -2.4309 -1.5152 -1.1953
 4088SOL     OW13106   7.964   0.860   2.579 -0.4676  0.4151 -0.3092
 4088SOL    HW113107   8.036   0.852   2.516  0.5216  0.1465  0.8297
 4088SOL    HW213108   7.908   0.785   2.561  1.7612 -1.8467  1.5119
 4089SOL     OW13109   6.588   5.860   4.346 -0.1114  0.4724  0.2628
 4089SOL    HW113110   6.641   5.909   4.283  0.1620  1.4146  1.1916
 4089SOL    HW213111   6.594   5.911   4.427 -0.5769 -0.6198  1.0151
 4090SOL     OW13112   8.164   1.138   2.393  0.0429  0.3992  0.5355
 4090SOL    HW113113   8.085   1.192   2.397  0.6154  1.3119 -0.0392
 4090SOL    HW213114   8.135   1.051   2.421 -1.5048  0.3256 -1.0976
 4091SOL     OW13115   1.281   3.465   5.534 -0.7514  0.0940 -0.9108
 4091SOL    HW113116   1.360   3.501   5.574  1.2336 -1.3554 -3.2120
 4091SOL    HW213117   1.223   3.445   5.607  0.7248  1.8169  0.8196
 4092SOL     OW13118   7.835   7.794   4.808  0.3822 -0.2664  0.4200
 4092SOL    HW113119   7.891   7.762   4.880 -1.0226  0.3481  1.8536
 4092SOL    HW213120   7.886   7.864   4.768  0.4223  0.7647  2.1470
 4093SOL     OW13121   7.837   5.365   1.254 -0.5353  0.0862  0.2480
 4093SOL    HW113122   7.806   5.324   1.334  2.8147 -0.0217  1.6696
 4093SOL    HW213123   7.845   5.293   1.191  1.0673 -0.7224  1.3185
 4094SOL     OW13124   3.291   3.082   2.313  0.6040  0.5403  0.0981
 4094SOL    HW113125   3.345   3.050   2.241  2.1827  1.0017  1.0280
 4094SOL    HW213126   3.239   3.007   2.340 -0.1115  0.3910 -1.5696
 4095SOL     OW13127   2.472   0.159   6.618  0.1064  0.1774  0.4835
 4095SOL    HW113128   2.498   0.236   6.669 -0.0312  0.6332 -0.1210
 4095SOL    HW213129   2.462   0.089   6.683 -1.9969  1.2139  1.3592
 4096SOL     OW13130   5.106   5.754   5.380 -0.0654 -0.0285  0.0002
 4096SOL    HW113131   5.024   5.713   5.405 -0.9000  1.6905  0.2484
 4096SOL    HW213132   5.104   5.757   5.285 -0.9050  1.0853  0.0217
 4097SOL     OW13133   3.105   5.043   4.522 -0.1885 -0.2120 -0.2194
 4097SOL    HW113134   3.095   4.984   4.597  0.4841 -0.1068 -0.0373
 4097SOL    HW213135   3.019   5.083   4.511  0.0576  0.8730  1.4343
 4098SOL     OW13136   7.302   1.741   3.903  0.1060  0.0957 -0.3451
 4098SOL    HW113137   7.386   1.695   3.897 -0.7567 -1.4460 -1.6188
 4098SOL    HW213138   7.283   1.745   3.996  1.5578  0.4325 -0.0405
 4099SOL     OW13139   6.808   7.183   2.037 -0.1768 -0.3279 -0.1103
 4099SOL    HW113140   6.893   7.151   2.068 -0.4234  0.3728  1.4016
 4099SOL    HW213141   6.785   7.124   1.965  2.3290  0.4699 -1.7061
 4100SOL     OW13142   4.001   2.911   4.342 -0.2245 -0.5715  0.0215
 4100SOL    HW113143   4.062   2.984   4.342 -2.1414  1.1452 -1.0740
 4100SOL    HW213144   4.055   2.834   4.361  2.2323  0.8206 -0.8802
 4101SOL     OW13145   1.764   0.638   0.125 -0.2593 -0.1658 -0.4613
 4101SOL    HW113146   1.859   0.642   0.134 -0.2931  0.4238 -0.3357
 4101SOL    HW213147   1.746   0.675   0.039 -0.4000  0.0469 -0.3414
 4102SOL     OW13148   2.307   4.312   7.754  0.6943  0.1697  0.2281
 4102SOL    HW113149   2.228   4.280   7.798  1.0438 -1.0031  0.0523
 4102SOL    HW213150   2.322   4.399   7.791  0.8318 -0.6621  2.2501
 4103SOL     OW13151   1.679   5.337   0.778 -0.1184  0.2552 -0.1629
 4103SOL    HW113152   1.637   5.251   0.772  0.6552 -0.2737  1.4135
 4103SOL    HW213153   1.614   5.392   0.822  0.1595 -0.0908  0.6935
 4104SOL     OW13154   4.275   4.088   5.458  0.2575 -0.4109  0.4891
 4104SOL    HW113155   4.262   3.996   5.480 -0.4418 -0.7528 -1.1740
 4104SOL    HW213156   4.226   4.136   5.525 -2.4236 -1.4158 -0.6124
 4105SOL     OW13157   3.389   3.971   5.563  0.0951  0.3263  0.0425
 4105SOL    HW113158   3.296   3.972   5.540 -0.1233  0.1352  0.8793
 4105SOL    HW213159   3.424   3.893   5.519 -0.3867 -0.2218  0.6042
 4106SOL     OW13160   4.254   3.250   0.105  0.0645  0.5601  0.3698
 4106SOL    HW113161   4.308   3.175   0.128  0.8215  0.0304 -2.6925
 4106SOL    HW213162   4.313   3.325   0.109 -0.2474  0.7677  1.6648
 4107SOL     OW13163   4.512   5.960   6.481 -0.2465  0.4062 -0.8727
 4107SOL    HW113164   4.547   6.039   6.439  0.9856 -0.6228 -1.8895
 4107SOL    HW213165   4.587   5.924   6.529 -1.4129  1.1046  1.5933
 4108SOL     OW13166   6.918   3.540   5.167  0.5582  0.0450  0.0656
 4108SOL    HW113167   6.851   3.495   5.117  0.0559  3.3703 -2.6799
 4108SOL    HW213168   6.878   3.624   5.192  2.8182  1.0292  0.7122
 4109SOL     OW13169   6.438   2.846   3.414  0.1348  0.3019  0.1109
 4109SOL    HW113170   6.519   2.814   3.374  0.7581  0.9506  0.8276
 4109SOL    HW213171   6.467   2.913   3.476 -0.9610  0.5808  0.3328
 4110SOL     OW13172   3.321   5.292   4.885  0.0590 -0.1577  0.3000
 4110SOL    HW113173   3.229   5.281   4.858  0.2832 -0.5152 -0.3381
 4110SOL    HW213174   3.366   5.218   4.844  1.0341  1.2362 -1.2608
 4111SOL     OW13175   4.412   2.824   0.673  0.1648  0.4660 -0.0651
 4111SOL    HW113176   4.322   2.813   0.705  0.5706  0.0928  0.9938
 4111SOL    HW213177   4.463   2.760   0.723  1.3417  1.9679  0.7445
 4112SOL     OW13178   5.173   3.492   0.966  0.1740  0.4078  0.1509
 4112SOL    HW113179   5.166   3.399   0.943 -0.4668  0.4809  0.0308
 4112SOL    HW213180   5.238   3.527   0.905  2.1825 -0.4362  1.6819
 4113SOL     OW13181   2.512   6.555   6.075  0.1688 -0.1021 -0.3364
 4113SOL    HW113182   2.462   6.484   6.035 -0.4389  0.9918 -1.5755
 4113SOL    HW213183   2.447   6.622   6.095  1.0404  1.1529 -1.5320
 4114SOL     OW13184   1.179   3.225   4.177  0.3501 -0.2163 -0.8423
 4114SOL    HW113185   1.116   3.197   4.244 -0.4787 -0.9723 -1.9070
 4114SOL    HW213186   1.221   3.302   4.215 -0.8017 -0.0380  0.1345
 4115SOL     OW13187   6.372   0.270   7.686  0.1031 -0.4128 -0.0404
 4115SOL    HW113188   6.320   0.284   7.607  0.5288  0.0822 -0.2411
 4115SOL    HW213189   6.453   0.229   7.654  1.1656  1.6703 -0.1548
 4116SOL     OW13190   0.286   2.925   1.851 -0.0372  0.3706 -0.3022
 4116SOL    HW113191   0.337   2.878   1.917 -0.7050  1.1996  0.8341
 4116SOL    HW213192   0.207   2.873   1.840  0.8831 -0.7993 -1.9079
 4117SOL     OW13193   5.727   7.239   7.122 -0.0749  0.4628  0.1423
 4117SOL    HW113194   5.761   7.186   7.195 -0.2093  0.9345  0.5500
 4117SOL    HW213195   5.655   7.186   7.086  0.4315 -0.0771 -0.0803
 4118SOL     OW13196   3.501   0.255   4.873 -0.5127  0.0741  0.7722
 4118SOL    HW113197   3.459   0.246   4.959  0.6606  1.1635  1.4941
 4118SOL    HW213198   3.456   0.191   4.818  0.0934 -2.1952  2.7208
 4119SOL     OW13199   2.161   0.182   2.467 -0.3388  0.0477 -0.2793
 4119SOL    HW113200   2.201   0.269   2.476  0.3724 -0.2969 -0.0533
 4119SOL    HW213201   2.234   0.124   2.449 -0.4819 -0.8659  1.7488
 4120SOL     OW13202   1.211   1.004   0.028 -0.0785  0.0614  0.5016
 4120SOL    HW113203   1.303   1.011   0.056 -0.5908 -1.8066  3.0014
 4120SOL    HW213204   1.210   0.930  -0.032  0.0952  0.2435  0.2742
 4121SOL     OW13205   0.991   5.079   4.388 -0.3143  0.0458  0.0400
 4121SOL    HW113206   1.048   5.119   4.453  0.8287 -1.5779  0.0985
 4121SOL    HW213207   0.902   5.096   4.419  0.1751  0.8588  1.0344
 4122SOL     OW13208   6.787   4.633   1.438  0.5438 -0.7543 -0.8280
 4122SOL    HW113209   6.814   4.545   1.464 -0.3120 -0.7373  0.2047
 4122SOL    HW213210   6.814   4.689   1.511 -1.2986 -0.5946 -0.2190
 4123SOL     OW13211   6.251   3.010   0.517  0.6603 -0.2186 -0.6147
 4123SOL    HW113212   6.169   3.018   0.468  0.2244 -0.3478  0.0650
 4123SOL    HW213213   6.257   3.091   0.567  2.2650  0.9352 -2.5467
 4124SOL     OW13214   4.440   7.879   2.141 -0.0053  0.2158  0.2761
 4124SOL    HW113215   4.385   7.906   2.068 -0.0105  0.3425  0.3271
 4124SOL    HW213216   4.485   7.959   2.169  1.4343 -0.1806 -0.8089
 4125SOL     OW13217   8.024   6.198   4.996 -0.0014  0.4244 -0.5632
 4125SOL    HW113218   8.005   6.128   5.059  1.1123  0.1316 -0.5383
 4125SOL    HW213219   8.047   6.153   4.915  1.5886  0.7061 -0.3059
 4126SOL     OW13220   0.132   6.296   3.181  0.1552 -0.1444 -0.2442
 4126SOL    HW113221   0.159   6.362   3.117  1.2339 -0.2625  0.0720
 4126SOL    HW213222   0.128   6.345   3.264 -0.2829 -0.2074 -0.2255
 4127SOL     OW13223   1.366   1.272   0.470  0.1871  0.5716  0.2458
 4127SOL    HW113224   1.333   1.346   0.520  0.4622 -0.1659  1.5478
 4127SOL    HW213225   1.453   1.255   0.505  0.0277 -0.5242  0.1394
 4128SOL     OW13226   6.485   7.679   2.433 -0.0226 -0.7812  0.0088
 4128SOL    HW113227   6.443   7.593   2.425  0.2641 -0.8409 -0.9754
 4128SOL    HW213228   6.569   7.660   2.475 -0.3563 -0.8576  0.6439
 4129SOL     OW13229   7.912   1.856   6.559 -0.3511 -0.3931  0.5019
 4129SOL    HW113230   7.890   1.773   6.517  0.0228 -0.9230  1.3326
 4129SOL    HW213231   7.911   1.837   6.652 -0.4855  0.5963  0.7175
 4130SOL     OW13232   0.600   3.383   0.942 -0.7851 -0.3527  0.4440
 4130SOL    HW113233   0.645   3.373   1.026  0.9189  0.1596 -0.3608
 4130SOL    HW213234   0.578   3.476   0.938  0.1299 -0.1495 -0.1319
 4131SOL     OW13235   2.098   0.482   2.198 -0.4793 -0.7914 -0.6611
 4131SOL    HW113236   2.177   0.472   2.145 -1.0363  0.0244 -1.6811
 4131SOL    HW213237   2.115   0.558   2.253  0.1662 -1.7400  0.4883
 4132SOL     OW13238   5.932   7.293   6.965  0.4766  0.3558 -0.0630
 4132SOL    HW113239   5.847   7.283   7.008 -0.0589 -0.0649 -1.1644
 4132SOL    HW213240   5.982   7.217   6.992  0.6148  0.7427  0.8081
 4133SOL     OW13241   2.891   1.641   6.904  0.1284  0.5671 -0.0124
 4133SOL    HW113242   2.820   1.577   6.901  0.0593  0.4494  2.3750
 4133SOL    HW213243   2.970   1.589   6.920  0.2649  0.9554  0.6082
 4134SOL     OW13244   6.223   5.273   4.534 -0.2126  0.2558  0.0710
 4134SOL    HW113245   6.234   5.179   4.547  1.0168  0.6279  2.1873
 4134SOL    HW213246   6.259   5.290   4.447 -0.9306 -1.2652 -0.5604
 4135SOL     OW13247   5.749   2.943   6.890 -0.1281 -0.0741 -0.3142
 4135SOL    HW113248   5.654   2.941   6.895 -0.1028  0.7477  1.0458
 4135SOL    HW213249   5.774   3.021   6.939  1.3061 -0.9629  0.4377
 4136SOL     OW13250   6.509   7.110   2.777 -0.6286  0.7960  0.0008
 4136SOL    HW113251   6.458   7.105   2.858 -0.9270  3.3167  0.0374
 4136SOL    HW213252   6.600   7.103   2.806 -0.7331 -3.4513 -0.0394
 4137SOL     OW13253   6.845   3.636   2.913 -0.1678  0.4644  0.3747
 4137SOL    HW113254   6.755   3.658   2.890  0.6532  1.2576 -2.5857
 4137SOL    HW213255   6.847   3.541   2.919 -1.3793  0.4909  1.5696
 4138SOL     OW13256   0.415   1.630   8.035 -0.1951 -0.6724 -0.2997
 4138SOL    HW113257   0.398   1.677   8.117 -1.3948  1.0952 -1.4953
 4138SOL    HW213258   0.454   1.547   8.063  1.3620  0.7116  1.9574
 4139SOL     OW13259   4.685   0.732   3.731  0.0824  0.3655 -0.3556
 4139SOL    HW113260   4.757   0.779   3.773  0.4925  0.3602 -1.0461
 4139SOL    HW213261   4.715   0.642   3.724 -0.5631  0.0543  0.6403
 4140SOL     OW13262   4.765   6.025   5.627  0.1236 -0.4771 -0.8111
 4140SOL    HW113263   4.757   6.119   5.642  0.6581 -0.3934 -1.0365
 4140SOL    HW213264   4.851   6.014   5.587  0.6939 -1.2160  0.5365
 4141SOL     OW13265   2.361   0.822   0.857  0.2067 -0.1204 -0.3918
 4141SOL    HW113266   2.404   0.884   0.798 -1.2782  0.6732 -0.6859
 4141SOL    HW213267   2.270   0.819   0.827 -0.1789 -1.0467  0.7772
 4142SOL     OW13268   0.828   1.321   2.928  0.1691 -0.8272 -0.2995
 4142SOL    HW113269   0.911   1.368   2.937 -0.2479  0.0029 -0.6580
 4142SOL    HW213270   0.818   1.274   3.011  0.1111  0.5375  0.4970
 4143SOL     OW13271   7.842   1.631   7.484 -0.0975  0.3937  0.1484
 4143SOL    HW113272   7.787   1.704   7.512 -0.3579  0.5025 -0.6343
 4143SOL    HW213273   7.830   1.626   7.389  1.7200  0.8141 -0.1349
 4144SOL     OW13274   7.967   1.095   0.976 -0.1091  0.4956  0.5868
 4144SOL    HW113275   7.919   1.071   1.055 -0.7264 -1.1155 -0.2324
 4144SOL    HW213276   7.939   1.031   0.911  0.2005  1.9246 -1.0129
 4145SOL     OW13277   7.859   6.089   5.262  0.4330  0.0887  0.2969
 4145SOL    HW113278   7.938   6.107   5.313 -0.4309  0.6683  1.4974
 4145SOL    HW213279   7.827   6.006   5.297  0.1319  0.2154  0.3297
 4146SOL     OW13280   6.259   2.459   4.621  0.0353  0.2747 -0.4638
 4146SOL    HW113281   6.330   2.505   4.667 -0.9217  1.8421 -0.4932
 4146SOL    HW213282   6.291   2.368   4.613  1.2312  0.5079  1.1592
 4147SOL     OW13283   5.992   6.702   1.419 -0.0713  0.7671  0.4854
 4147SOL    HW113284   5.949   6.778   1.458 -0.0521  1.0454 -0.0288
 4147SOL    HW213285   5.922   6.654   1.375 -0.2472 -0.0262  1.6054
 4148SOL     OW13286   0.019   5.105   5.479  0.2723  0.0961 -0.1528
 4148SOL    HW113287  -0.034   5.052   5.538  0.9116  1.2296  1.5019
 4148SOL    HW213288  -0.038   5.177   5.453  0.8418  1.1505  1.3889
 4149SOL     OW13289   5.022   5.665   6.792 -0.2108  0.6922  0.0878
 4149SOL    HW113290   4.972   5.746   6.793 -0.3187  0.6376 -0.4101
 4149SOL    HW213291   5.031   5.641   6.884 -0.0577  1.3371  0.2435
 4150SOL     OW13292   4.019   2.330   0.395 -0.6123 -0.2143  0.3570
 4150SOL    HW113293   3.985   2.251   0.354  0.7258 -1.5698  1.7697
 4150SOL    HW213294   3.953   2.353   0.461 -1.1391  0.0263 -0.2490
 4151SOL     OW13295   5.597   5.472   4.794  0.1798 -0.0616 -0.2838
 4151SOL    HW113296   5.631   5.384   4.808 -1.7718 -0.5463  2.0674
 4151SOL    HW213297   5.503   5.460   4.781  0.1555  1.5558 -2.0722
 4152SOL     OW13298   4.880   6.619   5.340 -0.3783  0.0060 -0.6274
 4152SOL    HW113299   4.842   6.558   5.276  0.1966 -1.0023 -0.0297
 4152SOL    HW213300   4.973   6.620   5.320  0.0274 -1.3229  0.9548
 4153SOL     OW13301   7.211   2.602   4.546  0.2557 -0.0998  0.5517
 4153SOL    HW113302   7.289   2.658   4.545 -0.0599  0.3575 -0.4755
 4153SOL    HW213303   7.138   2.662   4.530 -0.2943 -0.5545  1.2931
 4154SOL     OW13304   5.013   5.256   6.539 -0.0387  0.0622  0.2304
 4154SOL    HW113305   5.041   5.303   6.461 -0.5733 -1.0242 -0.6367
 4154SOL    HW213306   4.960   5.319   6.588  0.2578  0.7333 -0.3025
 4155SOL     OW13307   7.484   6.809   1.655 -0.0162 -0.6262 -0.9744
 4155SOL    HW113308   7.475   6.714   1.661  0.0958 -0.6797 -1.5909
 4155SOL    HW213309   7.403   6.838   1.613  0.2715 -0.5378 -1.4872
 4156SOL     OW13310   2.953   2.687   7.930  0.0084  0.7249 -0.2356
 4156SOL    HW113311   2.876   2.704   7.985 -0.7311 -0.3241 -0.9193
 4156SOL    HW213312   2.948   2.593   7.910  1.7914  0.5041  0.1869
 4157SOL     OW13313   0.012   5.916   0.416 -0.2430  1.0656  0.1167
 4157SOL    HW113314   0.031   5.884   0.504  0.0706  1.5529  0.2343
 4157SOL    HW213315  -0.003   6.010   0.428  1.4543  1.4580 -0.5634
 4158SOL     OW13316   6.684   3.984   0.243 -0.3499 -0.4188 -0.1250
 4158SOL    HW113317   6.714   3.990   0.333 -0.3506 -0.3415 -0.1304
 4158SOL    HW213318   6.599   4.028   0.242 -0.1686 -0.0695 -0.2484
 4159SOL     OW13319   3.646   3.516   0.118 -0.0346  0.1563  0.0450
 4159SOL    HW113320   3.691   3.594   0.086 -0.7345  0.2957 -0.6409
 4159SOL    HW213321   3.558   3.547   0.138 -0.6804 -0.6692 -1.3382
 4160SOL     OW13322   4.489   1.572   4.752 -0.4599  0.3926 -0.7858
 4160SOL    HW113323   4.568   1.526   4.780 -0.8180  0.2243 -0.0343
 4160SOL    HW213324   4.451   1.515   4.685 -0.6955 -0.2224 -0.1352
 4161SOL     OW13325   0.344   4.749   1.585 -0.2981 -0.2551 -0.1268
 4161SOL    HW113326   0.287   4.817   1.550  1.5800  0.8549 -1.2266
 4161SOL    HW213327   0.428   4.764   1.543  0.4963 -2.6250  0.4319
 4162SOL     OW13328   7.596   2.078   0.221  0.6190  0.0841 -0.1013
 4162SOL    HW113329   7.680   2.058   0.263 -0.1936 -3.2532  0.2807
 4162SOL    HW213330   7.549   2.130   0.286  1.7482  0.5414  0.3813
 4163SOL     OW13331   6.610   2.541   4.071  0.1688  0.4738 -0.7505
 4163SOL    HW113332   6.546   2.501   4.129  0.2403 -1.0786 -1.6917
 4163SOL    HW213333   6.623   2.629   4.107 -0.9459  0.1085  0.6418
 4164SOL     OW13334   0.231   1.414   7.373 -0.0581  0.7507 -0.0679
 4164SOL    HW113335   0.225   1.479   7.442  0.0625  0.6422  0.0468
 4164SOL    HW213336   0.302   1.355   7.401 -2.1397 -1.2317  1.3824
 4165SOL     OW13337   0.702   2.032   4.598 -0.6354  0.2936 -0.0813
 4165SOL    HW113338   0.772   1.967   4.598  0.3821  1.2869 -1.9968
 4165SOL    HW213339   0.663   2.027   4.685  1.2492 -0.8941  0.7372
 4166SOL     OW13340   5.665   1.816   3.174  0.3867 -0.3819  0.1410
 4166SOL    HW113341   5.630   1.867   3.247  1.2305 -0.5166  0.6582
 4166SOL    HW213342   5.593   1.812   3.111 -0.4228 -0.4138  1.0348
 4167SOL     OW13343   2.615   5.189   5.748 -0.0366  0.2694  0.1364
 4167SOL    HW113344   2.683   5.211   5.812  0.8021 -1.4029 -0.1163
 4167SOL    HW213345   2.640   5.103   5.715 -1.5563  0.2061 -0.9784
 4168SOL     OW13346   6.942   7.825   0.970  0.1693 -0.3260  0.1873
 4168SOL    HW113347   6.925   7.900   1.027  0.3282  0.2278 -0.4720
 4168SOL    HW213348   6.893   7.753   1.009  0.1894  0.0676  0.9539
 4169SOL     OW13349   1.982   0.091   4.123  0.7282 -0.0622 -0.3359
 4169SOL    HW113350   1.963   0.011   4.171 -2.8549  2.2436  2.7030
 4169SOL    HW213351   1.920   0.091   4.050  1.1412 -0.3131 -0.6885
 4170SOL     OW13352   4.643   4.957   0.247  0.0072 -0.0665  0.0741
 4170SOL    HW113353   4.571   5.016   0.268  0.1278 -0.1524  0.7522
 4170SOL    HW213354   4.610   4.903   0.175  0.9351  2.8139 -2.7438
 4171SOL     OW13355   2.453   1.238   5.745  0.3947 -0.1128 -0.5618
 4171SOL    HW113356   2.417   1.251   5.833 -0.4215  2.1013 -1.1566
 4171SOL    HW213357   2.376   1.226   5.689  0.9223 -1.9726 -0.9390
 4172SOL     OW13358   7.329   5.069   6.213  0.4608 -0.3517  0.1132
 4172SOL    HW113359   7.341   5.146   6.156  1.3877 -0.6514 -0.1138
 4172SOL    HW213360   7.235   5.067   6.230  0.4658  1.1006  0.4957
 4173SOL     OW13361   1.828   1.232   6.881  0.1059  0.3032 -0.4059
 4173SOL    HW113362   1.892   1.278   6.935  1.2695 -0.4270 -1.1220
 4173SOL    HW213363   1.808   1.293   6.810 -0.1643  0.6042 -0.0811
 4174SOL     OW13364   6.284   2.043   7.033  0.1378 -0.4104  0.7860
 4174SOL    HW113365   6.363   2.012   7.076  1.0247  0.6318 -0.0123
 4174SOL    HW213366   6.299   2.137   7.022 -0.7515 -0.3839 -0.3290
 4175SOL     OW13367   8.115   7.196   0.587 -0.1805 -0.0711 -0.7608
 4175SOL    HW113368   8.183   7.240   0.639 -0.2072  0.4570 -1.1652
 4175SOL    HW213369   8.115   7.106   0.619 -0.0400  0.1931 -0.0037
 4176SOL     OW13370   4.464   7.419   6.692  0.1920  0.1333  0.0720
 4176SOL    HW113371   4.410   7.486   6.651  1.4948  0.5377 -1.0856
 4176SOL    HW213372   4.424   7.336   6.665 -0.0933  0.4303 -0.4355
 4177SOL     OW13373   2.170   2.831   2.642  0.6159  0.1476 -0.2699
 4177SOL    HW113374   2.082   2.857   2.668  0.6668  0.0392  0.0103
 4177SOL    HW213375   2.222   2.911   2.651  0.7730 -0.0437  0.5938
 4178SOL     OW13376   3.423   2.143   1.956 -0.6058  0.2635  0.3684
 4178SOL    HW113377   3.384   2.059   1.979 -2.2882  1.6812  3.1742
 4178SOL    HW213378   3.349   2.202   1.941  0.5012  1.7219  0.3491
 4179SOL     OW13379   3.994   0.747   0.564  0.3049 -0.1416  0.2392
 4179SOL    HW113380   3.980   0.693   0.486  0.1739 -0.9463  0.8110
 4179SOL    HW213381   4.090   0.754   0.571  0.3294  1.5184 -1.0461
 4180SOL     OW13382   7.665   3.296   4.567 -0.0231 -0.3356 -0.8442
 4180SOL    HW113383   7.620   3.217   4.598 -0.0196  0.0662  0.2341
 4180SOL    HW213384   7.757   3.270   4.560  0.2638 -0.0144  1.1173
 4181SOL     OW13385   6.317   0.920   6.131  0.2057 -0.4397 -0.2541
 4181SOL    HW113386   6.266   0.994   6.099  2.2645  0.3840 -1.8547
 4181SOL    HW213387   6.313   0.855   6.061  1.2623 -0.4010 -0.3582
 4182SOL     OW13388   2.250   8.022   1.878  0.1797 -0.1792 -0.0441
 4182SOL    HW113389   2.331   7.977   1.902  0.4772 -0.4711 -1.4958
 4182SOL    HW213390   2.277   8.088   1.814 -0.7153 -0.2369 -0.4986
 4183SOL     OW13391   6.305   7.423   2.824  0.2144 -0.5159 -0.1976
 4183SOL    HW113392   6.220   7.407   2.782 -0.8939 -0.4483  1.8452
 4183SOL    HW213393   6.328   7.339   2.863 -0.0841  0.0064  1.1693
 4184SOL     OW13394   6.890   2.488   7.261 -0.6492  0.0071  0.2114
 4184SOL    HW113395   6.820   2.505   7.325 -0.8530 -0.5773  0.1524
 4184SOL    HW213396   6.874   2.397   7.233  1.2643 -0.8291  1.6187
 4185SOL     OW13397   7.371   5.874   0.331  0.4678 -0.0519 -0.5071
 4185SOL    HW113398   7.369   5.961   0.290 -1.4157 -0.5154 -1.4814
 4185SOL    HW213399   7.464   5.858   0.347  1.0386  1.2859 -2.1582
 4186SOL     OW13400   0.598   3.058   3.944 -0.2793  0.1587 -0.1456
 4186SOL    HW113401   0.646   3.072   3.862 -0.4701  0.1786 -0.2544
 4186SOL    HW213402   0.596   2.962   3.953 -0.3804  0.1526 -0.2359
 4187SOL     OW13403   0.640   2.605   7.824  0.4992  0.2744 -0.5229
 4187SOL    HW113404   0.590   2.527   7.849  0.9219  0.2082  0.1349
 4187SOL    HW213405   0.721   2.599   7.874  0.6538  1.0007 -0.6718
 4188SOL     OW13406   3.310   4.172   2.916 -0.6848  0.3099  0.5439
 4188SOL    HW113407   3.371   4.245   2.905  0.2882 -0.7634 -2.1222
 4188SOL    HW213408   3.350   4.118   2.985  0.8383  0.2336 -0.3418
 4189SOL     OW13409   4.456   5.655   1.961  0.0041  0.0018  0.1938
 4189SOL    HW113410   4.435   5.712   1.887  0.5005  0.8852  0.7194
 4189SOL    HW213411   4.404   5.689   2.034 -0.7037 -1.0409  0.2056
 4190SOL     OW13412   5.882   7.948   5.054  0.2238 -0.7479  0.0339
 4190SOL    HW113413   5.812   7.904   5.006  0.1726 -0.1517 -0.4504
 4190SOL    HW213414   5.840   7.981   5.134 -0.0263 -0.5063 -0.1939
 4191SOL     OW13415   5.650   5.912   4.089  0.0652  0.5127 -0.0652
 4191SOL    HW113416   5.588   5.901   4.017  0.8009  1.1102 -0.8140
 4191SOL    HW213417   5.596   5.942   4.162 -0.6822 -0.0270 -0.3758
 4192SOL     OW13418   5.610   5.698   0.863 -0.0882  0.2863 -0.7153
 4192SOL    HW113419   5.560   5.616   0.861 -1.1842  0.8917  0.1889
 4192SOL    HW213420   5.575   5.748   0.790 -1.1312  0.8536  0.1294
 4193SOL     OW13421   2.934   1.403   4.492 -0.4784  0.4069  0.0561
 4193SOL    HW113422   2.925   1.384   4.399  0.4193  2.3377 -0.4862
 4193SOL    HW213423   3.027   1.390   4.511 -0.8432 -1.0808  0.9984
 4194SOL     OW13424   2.792   2.171   7.525 -0.3234 -0.5922 -0.0992
 4194SOL    HW113425   2.850   2.096   7.509 -0.1886 -0.6699  0.7384
 4194SOL    HW213426   2.717   2.155   7.467 -0.6684 -1.8018  0.6539
 4195SOL     OW13427   0.140   0.405   1.653 -0.2110  0.4737 -0.4970
 4195SOL    HW113428   0.190   0.341   1.604 -0.2751 -1.2511  1.5388
 4195SOL    HW213429   0.094   0.457   1.587  1.0962 -0.5283 -2.2498
 4196SOL     OW13430   4.935   7.623   3.765 -0.9236 -0.1541  0.3388
 4196SOL    HW113431   5.018   7.625   3.812 -0.1214  1.9041 -1.0327
 4196SOL    HW213432   4.932   7.535   3.726  2.1314  0.6308 -2.0489
 4197SOL     OW13433   0.133   2.022   3.261 -0.9585  0.2178 -0.3877
 4197SOL    HW113434   0.163   2.026   3.170 -1.3771 -0.9093 -0.5983
 4197SOL    HW213435   0.116   1.929   3.276 -0.5637  0.3341  0.9588
 4198SOL     OW13436   3.720   1.955   7.704 -0.7633 -0.0003  0.1433
 4198SOL    HW113437   3.732   1.881   7.764  0.5295 -0.7553 -0.9826
 4198SOL    HW213438   3.625   1.969   7.702 -0.9928 -1.2642  0.8207
 4199SOL     OW13439   7.697   2.617   0.488 -0.0996 -0.4901  0.3443
 4199SOL    HW113440   7.757   2.561   0.439 -0.8782 -1.6616  0.6778
 4199SOL    HW213441   7.656   2.673   0.421  0.0109 -0.9696 -0.1314
 4200SOL     OW13442   3.365   3.913   7.550  0.7420 -0.0992  0.2360
 4200SOL    HW113443   3.434   3.915   7.484  0.8406 -0.6490  0.3138
 4200SOL    HW213444   3.310   3.839   7.524 -0.6531  1.1803 -0.6578
 4201SOL     OW13445   4.485   1.816   5.516 -0.5186 -0.4220  0.0852
 4201SOL    HW113446   4.539   1.833   5.438 -2.7842  1.9580 -1.1348
 4201SOL    HW213447   4.517   1.877   5.582  0.5266 -1.5003  0.6030
 4202SOL     OW13448   7.884   1.271   0.090  0.2899  0.0486 -0.0935
 4202SOL    HW113449   7.977   1.290   0.103 -0.1569  1.0652  2.0471
 4202SOL    HW213450   7.871   1.188   0.136  0.1365 -0.1416 -0.4753
 4203SOL     OW13451   0.438   1.320   7.539  0.2824  0.1209  0.1842
 4203SOL    HW113452   0.448   1.261   7.614  1.8009  0.6742  0.4741
 4203SOL    HW213453   0.426   1.406   7.579  0.8504  0.3811 -0.1960
 4204SOL     OW13454   0.008   0.622   2.099 -0.2056 -0.5437  0.0426
 4204SOL    HW113455  -0.003   0.570   2.179 -0.5177 -0.3105  0.1574
 4204SOL    HW213456  -0.003   0.559   2.028  0.4516 -0.8218  0.1851
 4205SOL     OW13457   2.608   0.342   3.123  0.4062  0.5652 -0.1761
 4205SOL    HW113458   2.556   0.262   3.135  1.5693 -0.0952  0.6828
 4205SOL    HW213459   2.561   0.391   3.055  0.3234 -1.4072 -1.6434
 4206SOL     OW13460   7.415   6.124   0.236  0.0695 -0.1978  0.3125
 4206SOL    HW113461   7.349   6.192   0.254 -0.0717 -0.6094  1.4690
 4206SOL    HW213462   7.385   6.082   0.156  0.4879  1.4872 -0.7705
 4207SOL     OW13463   4.623   5.811   3.076 -1.3313 -0.4597  0.0133
 4207SOL    HW113464   4.611   5.785   3.168  0.0970 -3.2053 -0.4721
 4207SOL    HW213465   4.718   5.809   3.063 -0.9611  4.9833 -0.3132
 4208SOL     OW13466   0.340   2.465   4.085  0.2435 -0.5684 -0.6681
 4208SOL    HW113467   0.408   2.479   4.019 -0.0978 -4.4131 -2.1005
 4208SOL    HW213468   0.258   2.474   4.037 -0.0900 -1.0888 -0.2034
 4209SOL     OW13469   6.985   7.619   1.636  0.4576  0.4383 -0.1927
 4209SOL    HW113470   6.914   7.565   1.670  1.4297 -1.4375 -1.0201
 4209SOL    HW213471   7.063   7.589   1.682  1.2711 -0.0107 -1.7901
 4210SOL     OW13472   0.625   1.719   6.129 -0.4386 -0.2094  0.3493
 4210SOL    HW113473   0.537   1.702   6.164 -0.2137 -0.3536  0.8415
 4210SOL    HW213474   0.668   1.634   6.129 -0.6089 -0.3120 -0.7772
 4211SOL     OW13475   1.782   3.047   7.346 -0.1205  0.3285 -0.0008
 4211SOL    HW113476   1.695   3.086   7.356 -0.5483 -0.0192 -1.8966
 4211SOL    HW213477   1.767   2.969   7.293  0.9600 -1.4833  2.1697
 4212SOL     OW13478   6.062   8.141   7.468 -0.4057  0.1798  0.4773
 4212SOL    HW113479   6.114   8.113   7.393  0.5086  0.5067  0.9748
 4212SOL    HW213480   6.123   8.138   7.542 -0.5806  2.3037  0.7595
 4213SOL     OW13481   7.015   3.574   2.407  0.0279  0.5230 -0.5213
 4213SOL    HW113482   6.966   3.648   2.371 -0.1123  1.4574  1.4253
 4213SOL    HW213483   7.038   3.601   2.496  0.1912 -1.6831  0.1882
 4214SOL     OW13484   4.796   0.852   6.524 -1.2075  0.9726  0.0632
 4214SOL    HW113485   4.854   0.813   6.588 -1.0479  0.3953 -0.4216
 4214SOL    HW213486   4.782   0.783   6.459 -2.1601  1.2086 -0.0066
 4215SOL     OW13487   7.873   7.098   4.099  0.4439  0.3506  0.3472
 4215SOL    HW113488   7.805   7.158   4.069 -0.1326  0.2785  1.4866
 4215SOL    HW213489   7.884   7.037   4.025  1.3016  2.0153 -0.9745
 4216SOL     OW13490   3.696   5.361   5.659  0.2077 -0.1044 -0.2063
 4216SOL    HW113491   3.656   5.429   5.604  0.3085  0.5975  0.5851
 4216SOL    HW213492   3.777   5.400   5.691  0.2263 -0.5710  0.3227
 4217SOL     OW13493   1.404   5.739   0.114  0.2874  0.0491  0.1844
 4217SOL    HW113494   1.349   5.696   0.180  0.1896 -1.3320 -0.7634
 4217SOL    HW213495   1.491   5.702   0.127  0.1622 -0.5945 -0.7708
 4218SOL     OW13496   2.054   4.940   5.446 -0.3256  0.2716 -0.2928
 4218SOL    HW113497   1.974   4.900   5.479 -1.0078  0.8516 -1.1879
 4218SOL    HW213498   2.045   4.937   5.351  0.1217  1.4865 -0.3985
 4219SOL     OW13499   5.632   7.557   8.082 -0.0810 -0.3183 -0.0347
 4219SOL    HW113500   5.618   7.647   8.111  2.2091 -0.1089  0.5927
 4219SOL    HW213501   5.574   7.505   8.138  1.5821  0.4292  2.5776
 4220SOL     OW13502   7.096   1.983   2.255  0.2320  0.1349  0.3561
 4220SOL    HW113503   7.147   1.939   2.323  0.4945  0.1240  0.1542
 4220SOL    HW213504   7.147   2.062   2.235  0.0755  0.2168  0.2823
 4221SOL     OW13505   4.147   1.313   2.823  0.2368 -0.5487 -0.0778
 4221SOL    HW113506   4.208   1.241   2.834  1.1863  0.3141  0.4628
 4221SOL    HW213507   4.072   1.275   2.776 -0.2835 -2.3873  2.0851
 4222SOL     OW13508   6.429   5.601   1.465  0.3731 -0.0600 -0.9961
 4222SOL    HW113509   6.481   5.638   1.394 -1.2507  3.3808 -0.6143
 4222SOL    HW213510   6.481   5.616   1.543  0.2399  0.3735 -0.9852
 4223SOL     OW13511   7.088   4.702   0.088  0.2518  0.6174  0.4368
 4223SOL    HW113512   7.155   4.747   0.037 -1.1758 -0.0007 -2.1135
 4223SOL    HW213513   7.120   4.613   0.097 -1.3388 -0.5026 -3.3034
 4224SOL     OW13514   1.029   4.444   4.724 -0.2981 -0.0802 -0.0583
 4224SOL    HW113515   1.072   4.415   4.804 -0.3218  0.7117  0.2472
 4224SOL    HW213516   1.080   4.404   4.653 -0.4310 -0.9876  0.3447
 4225SOL     OW13517   1.318   5.545   3.218  0.1690 -0.0489 -0.0532
 4225SOL    HW113518   1.402   5.540   3.171  0.0959  0.9776 -0.3099
 4225SOL    HW213519   1.303   5.639   3.230  0.0305 -0.2656  1.7560
 4226SOL     OW13520   3.554   2.095   0.503  0.4204 -0.1103  0.1810
 4226SOL    HW113521   3.643   2.062   0.494 -0.2020 -1.8934  0.0327
 4226SOL    HW213522   3.526   2.065   0.589 -1.3414 -3.2036 -1.2834
 4227SOL     OW13523   7.878   5.014   0.485 -0.2890 -0.5807 -0.3152
 4227SOL    HW113524   7.801   5.066   0.464 -1.2646 -1.4381  0.9541
 4227SOL    HW213525   7.918   5.060   0.559 -0.1759 -0.7149 -0.2925
 4228SOL     OW13526   1.368   3.500   3.378  0.3223 -0.0708 -0.0457
 4228SOL    HW113527   1.360   3.433   3.446  2.9638 -0.3255  0.1078
 4228SOL    HW213528   1.368   3.451   3.296 -2.4826  0.2083 -0.3139
 4229SOL     OW13529   2.638   4.090   7.855  0.5864  0.2254 -0.4268
 4229SOL    HW113530   2.696   4.044   7.916 -0.4517 -0.1557  0.2988
 4229SOL    HW213531   2.652   4.183   7.874 -0.5349  0.0975  1.2107
 4230SOL     OW13532   2.355   4.727   4.924  0.4322 -0.0667 -0.1705
 4230SOL    HW113533   2.332   4.738   5.016  0.8347  1.7857 -0.2389
 4230SOL    HW213534   2.451   4.730   4.923  0.4144  0.9612 -0.7154
 4231SOL     OW13535   7.767   0.412   0.442 -0.0770  0.0264 -0.2817
 4231SOL    HW113536   7.779   0.372   0.528 -3.5503 -0.9406 -0.0986
 4231SOL    HW213537   7.731   0.499   0.461  1.2871  0.7378 -0.7931
 4232SOL     OW13538   3.668   3.855   6.657  0.2143 -0.4380 -0.4030
 4232SOL    HW113539   3.682   3.940   6.614  1.6117  0.0913  1.0296
 4232SOL    HW213540   3.599   3.872   6.721  1.3549 -0.0346  0.7512
 4233SOL     OW13541   4.060   8.177   0.351  0.1710 -0.4280  0.2152
 4233SOL    HW113542   3.997   8.230   0.302 -0.5974 -2.2847 -0.9428
 4233SOL    HW213543   4.146   8.211   0.325 -0.2672 -0.4514 -1.3919
 4234SOL     OW13544   1.222   4.478   7.609  0.6814  0.5664 -0.6453
 4234SOL    HW113545   1.230   4.573   7.620  0.3710  0.3858  1.7280
 4234SOL    HW213546   1.276   4.441   7.680 -1.3123 -0.9569  0.1892
 4235SOL     OW13547   2.747   0.233   2.595  0.2196 -0.7881  0.2221
 4235SOL    HW113548   2.777   0.312   2.551 -0.2327 -0.5267  0.3846
 4235SOL    HW213549   2.826   0.178   2.602  0.5314 -0.3550  0.1107
 4236SOL     OW13550   1.756   2.054   6.666  1.0041  0.0750 -0.1853
 4236SOL    HW113551   1.791   2.093   6.746 -1.2976  1.4995  0.2170
 4236SOL    HW213552   1.827   2.063   6.602  1.0995  3.9310  0.2235
 4237SOL     OW13553   6.206   4.895   1.758 -0.4048  0.9799 -0.3436
 4237SOL    HW113554   6.225   4.968   1.700 -1.4395  0.7236 -1.0354
 4237SOL    HW213555   6.190   4.821   1.698  2.0577 -0.2151  0.3433
 4238SOL     OW13556   5.050   5.317   5.070 -0.0321  0.8487  0.4306
 4238SOL    HW113557   5.036   5.346   4.979 -0.8841 -2.3355 -0.5723
 4238SOL    HW213558   5.115   5.247   5.064 -1.3189 -0.5740  1.9969
 4239SOL     OW13559   7.111   2.338   1.374  0.2315 -0.2041 -0.6360
 4239SOL    HW113560   7.056   2.321   1.298 -0.2744 -1.5334  0.0003
 4239SOL    HW213561   7.096   2.264   1.432  0.5307  0.8224  0.8151
 4240SOL     OW13562   4.576   4.158   5.728 -0.0019  0.0313  0.2267
 4240SOL    HW113563   4.521   4.082   5.751 -0.2288 -0.3550 -1.4691
 4240SOL    HW213564   4.659   4.120   5.701  0.3915  0.4964  0.7576
 4241SOL     OW13565   4.814   2.071   6.760  0.4525  0.1069 -0.4385
 4241SOL    HW113566   4.786   2.132   6.691 -0.2905  0.5927  0.2866
 4241SOL    HW213567   4.797   1.984   6.723 -3.9006  0.3018  0.6146
 4242SOL     OW13568   1.100   3.272   6.186  0.2069 -0.0310  0.0858
 4242SOL    HW113569   1.156   3.322   6.246  0.6008  1.1369 -1.1802
 4242SOL    HW213570   1.161   3.236   6.122 -0.3734  0.4509 -0.7621
 4243SOL     OW13571   1.256   5.598   0.290 -0.3500  0.4644 -0.0662
 4243SOL    HW113572   1.168   5.594   0.326  0.4367  1.7750  2.1921
 4243SOL    HW213573   1.293   5.512   0.308 -0.7427  0.3307  0.1112
 4244SOL     OW13574   2.929   3.883   0.873  0.4022 -0.7008 -0.4836
 4244SOL    HW113575   2.837   3.897   0.854  0.6447  0.6896 -0.6866
 4244SOL    HW213576   2.930   3.818   0.944 -0.8012  0.8840  1.0422
 4245SOL     OW13577   8.111   1.052   2.138 -0.4198  0.1505 -0.4074
 4245SOL    HW113578   8.134   1.070   2.229 -1.4228  1.6288 -0.4119
 4245SOL    HW213579   8.029   1.003   2.143  0.2331 -0.9913 -0.5060
 4246SOL     OW13580   7.987   0.491   3.970  0.3028 -0.4878  0.0297
 4246SOL    HW113581   8.075   0.453   3.973  1.2710  1.5980  2.2275
 4246SOL    HW213582   7.937   0.442   4.036 -0.2693 -1.7504 -1.3014
 4247SOL     OW13583   3.941   3.448   3.963  0.0026  0.3452 -0.3199
 4247SOL    HW113584   3.869   3.504   3.935  0.6343  0.7418 -1.2073
 4247SOL    HW213585   3.919   3.361   3.929 -1.6692 -0.3429  2.2336
 4248SOL     OW13586   3.474   2.875   0.466 -0.1842 -0.3390  0.0315
 4248SOL    HW113587   3.395   2.929   0.469  0.5902  0.8138  0.4469
 4248SOL    HW213588   3.443   2.787   0.446 -2.0619 -0.7977  3.9766
 4249SOL     OW13589   2.826   6.144   0.186 -0.3676 -0.3958 -0.0095
 4249SOL    HW113590   2.823   6.192   0.269 -0.2385  0.9914 -0.7813
 4249SOL    HW213591   2.734   6.132   0.162 -0.3955 -0.0904 -0.0582
 4250SOL     OW13592   1.137   0.639   3.285 -0.2419 -0.2858  0.2646
 4250SOL    HW113593   1.078   0.564   3.280  0.0960 -0.5092 -0.5027
 4250SOL    HW213594   1.222   0.604   3.259  0.8011 -0.5307  3.5198
 4251SOL     OW13595   1.929   3.684   4.759 -0.1747 -0.9638 -0.6027
 4251SOL    HW113596   1.927   3.641   4.845 -0.3564 -1.9869 -1.1068
 4251SOL    HW213597   1.911   3.614   4.696  0.1186 -0.2611 -1.4951
 4252SOL     OW13598   6.098   8.133   2.017 -0.2276  0.0048 -0.0062
 4252SOL    HW113599   6.104   8.070   2.090  0.1640  1.5518  1.3561
 4252SOL    HW213600   6.008   8.123   1.985 -0.3632 -0.8155  0.5882
 4253SOL     OW13601   5.680   4.571   3.302 -0.2628 -0.0975  0.1205
 4253SOL    HW113602   5.680   4.624   3.222  1.5213 -0.5041 -0.1922
 4253SOL    HW213603   5.730   4.623   3.365  1.1969 -1.1934 -0.0771
 4254SOL     OW13604   6.594   4.606   2.068  0.2685  0.1794  0.4488
 4254SOL    HW113605   6.560   4.522   2.038  0.3247  0.8883 -1.7349
 4254SOL    HW213606   6.537   4.671   2.029  1.3923  1.2230  0.4831
 4255SOL     OW13607   1.296   0.504   1.806  0.4002 -0.5737  0.6819
 4255SOL    HW113608   1.201   0.507   1.798  0.4871 -0.1838 -0.4745
 4255SOL    HW213609   1.326   0.580   1.755  1.4194 -2.0533 -1.0395
 4256SOL     OW13610   0.637   7.870   6.452 -0.6717 -0.3105 -0.3168
 4256SOL    HW113611   0.663   7.914   6.371  1.3119 -1.5222 -0.4047
 4256SOL    HW213612   0.583   7.796   6.423 -2.1018  0.6785 -0.3096
 4257SOL     OW13613   3.743   5.852   7.747  0.2977 -0.1251 -0.2924
 4257SOL    HW113614   3.775   5.930   7.701  1.7080 -0.9613 -0.8016
 4257SOL    HW213615   3.768   5.779   7.691  1.1346 -1.1006  1.2764
 4258SOL     OW13616   5.680   5.005   0.523 -0.0614  0.2198 -0.7831
 4258SOL    HW113617   5.588   4.979   0.531  0.6262 -1.9472  1.1869
 4258SOL    HW213618   5.678   5.078   0.462 -2.8583 -0.9775 -2.3614
 4259SOL     OW13619   2.528   2.044   3.626 -0.2841 -0.5813 -0.5665
 4259SOL    HW113620   2.497   2.117   3.679 -0.6013 -1.0640 -0.0744
 4259SOL    HW213621   2.588   2.084   3.563 -0.6382  0.1323 -0.4589
 4260SOL     OW13622   4.716   5.907   4.990 -0.4536  0.1532  0.3061
 4260SOL    HW113623   4.685   5.844   5.055  0.0090 -0.5554 -0.1493
 4260SOL    HW213624   4.785   5.956   5.035 -0.1985 -0.2707  0.3819
 4261SOL     OW13625   3.369   0.286   3.908  0.3122  0.7455 -0.3166
 4261SOL    HW113626   3.382   0.373   3.945  1.9037  0.9261 -1.2110
 4261SOL    HW213627   3.276   0.283   3.884 -0.1144  1.5919  1.1688
 4262SOL     OW13628   5.801   1.983   3.757 -0.4910  0.0149  0.5118
 4262SOL    HW113629   5.882   2.033   3.753 -0.8200  0.4751 -1.6635
 4262SOL    HW213630   5.732   2.049   3.768 -0.9437  0.2181 -2.5438
 4263SOL     OW13631   4.686   2.527   6.450 -0.5932 -0.4782 -0.2010
 4263SOL    HW113632   4.738   2.541   6.530 -1.8616  0.1499  0.5492
 4263SOL    HW213633   4.718   2.444   6.415  0.2525 -0.5821  0.7570
 4264SOL     OW13634   5.496   7.762   3.301  0.0101 -0.0550  0.3240
 4264SOL    HW113635   5.517   7.832   3.362  0.3904  0.1898 -0.0792
 4264SOL    HW213636   5.411   7.730   3.329  1.6093 -2.3552  3.2129
 4265SOL     OW13637   1.889   0.526   5.214  0.5123  1.1545 -0.0732
 4265SOL    HW113638   1.845   0.545   5.132 -1.2652  0.2643  0.6258
 4265SOL    HW213639   1.821   0.533   5.281  0.9906 -1.7112  0.8787
 4266SOL     OW13640   0.158   7.192   4.036  0.0451  0.3651  0.0935
 4266SOL    HW113641   0.150   7.108   4.081  1.8284 -0.5725 -1.2281
 4266SOL    HW213642   0.252   7.206   4.027 -0.2244  1.0895 -2.2326
 4267SOL     OW13643   4.670   2.790   7.243  0.3284  0.3858  0.0284
 4267SOL    HW113644   4.645   2.702   7.271  0.1694  0.6414  0.7094
 4267SOL    HW213645   4.606   2.848   7.285  0.9119  0.8877  0.2488
 4268SOL     OW13646   6.348   7.130   1.783 -0.0132 -0.1794  0.5459
 4268SOL    HW113647   6.416   7.157   1.845  1.0878 -0.3757 -0.5413
 4268SOL    HW213648   6.337   7.205   1.725 -0.3908 -0.3199  0.4380
 4269SOL     OW13649   4.763   5.584   1.679  0.2165  0.3188 -0.5369
 4269SOL    HW113650   4.840   5.556   1.729  1.7937  2.7041 -1.4265
 4269SOL    HW213651   4.726   5.656   1.730 -1.6662 -0.9996  0.0311
 4270SOL     OW13652   3.771   3.255   2.597 -0.3249  0.1995  0.1067
 4270SOL    HW113653   3.813   3.337   2.574  0.1409  0.3637  1.4445
 4270SOL    HW213654   3.790   3.243   2.690 -1.5138 -0.7497  0.2614
 4271SOL     OW13655   1.453   3.803   2.049 -0.0993 -0.3924  0.2651
 4271SOL    HW113656   1.459   3.753   2.130 -0.5339  0.6674  0.9731
 4271SOL    HW213657   1.481   3.741   1.980  0.2247 -1.3167  1.2008
 4272SOL     OW13658   2.641   5.319   4.654  0.4731  0.1268 -0.2297
 4272SOL    HW113659   2.548   5.327   4.632  0.7408  0.4416 -1.3259
 4272SOL    HW213660   2.684   5.384   4.598  1.1660  1.4087  1.6953
 4273SOL     OW13661   1.289   6.977   6.251  0.3629 -0.3725  0.2668
 4273SOL    HW113662   1.231   6.932   6.189 -0.0058 -0.3816  0.6130
 4273SOL    HW213663   1.296   6.917   6.324  0.3808 -0.1402  0.4564
 4274SOL     OW13664   5.427   0.428   2.656 -0.1037 -0.1895 -0.1870
 4274SOL    HW113665   5.440   0.400   2.746 -3.9081  0.6045  0.8084
 4274SOL    HW213666   5.416   0.347   2.607  1.3279 -0.6051  0.1354
 4275SOL     OW13667   7.925   3.291   4.189 -0.0822  0.0399  0.4406
 4275SOL    HW113668   7.995   3.350   4.158 -0.0744  0.1788  0.7172
 4275SOL    HW213669   7.853   3.305   4.128  1.2344 -2.5375 -1.9164
 4276SOL     OW13670   6.838   3.067   7.454 -0.1701 -0.4632  0.0123
 4276SOL    HW113671   6.752   3.036   7.429 -0.7034  0.3215  0.7834
 4276SOL    HW213672   6.859   3.135   7.390 -0.5261 -0.0460  0.3265
 4277SOL     OW13673   2.333   5.304   4.946  0.4970 -0.1467  0.1102
 4277SOL    HW113674   2.321   5.332   5.036 -2.4514 -0.7051 -0.0258
 4277SOL    HW213675   2.248   5.317   4.904  1.4036 -1.1321 -2.2608
 4278SOL     OW13676   7.967   6.064   4.182  0.0837 -0.6833 -0.4635
 4278SOL    HW113677   7.925   5.982   4.155 -2.3013 -0.5163  2.3046
 4278SOL    HW213678   7.894   6.123   4.201  1.7073  1.2496  0.0320
 4279SOL     OW13679   7.002   7.228   1.822  0.1121  0.1380  0.3347
 4279SOL    HW113680   6.926   7.259   1.871 -0.3961 -0.2841 -0.1686
 4279SOL    HW213681   7.058   7.186   1.888 -0.5089 -0.3268  0.5780
 4280SOL     OW13682   2.484   0.798   6.819  0.0760  0.5559 -0.4320
 4280SOL    HW113683   2.548   0.738   6.781 -0.6206 -1.1494  0.9401
 4280SOL    HW213684   2.522   0.823   6.903 -0.2253  1.0065 -0.4294
 4281SOL     OW13685   2.359   1.530   1.197 -0.0248  0.0846  1.0631
 4281SOL    HW113686   2.435   1.503   1.249  0.1176 -0.7510  0.4429
 4281SOL    HW213687   2.321   1.603   1.246 -0.5226 -1.3360  2.9118
 4282SOL     OW13688   8.099   6.324   2.481  0.0217  0.5090 -0.3736
 4282SOL    HW113689   8.186   6.287   2.494 -0.7259 -0.9371  0.6996
 4282SOL    HW213690   8.091   6.333   2.386  0.8016 -0.7393 -0.5787
 4283SOL     OW13691   6.841   2.865   4.248 -0.0490  0.1917 -0.2798
 4283SOL    HW113692   6.849   2.787   4.303 -1.0710  0.8010  0.7802
 4283SOL    HW213693   6.858   2.834   4.159  0.4315 -1.0533  0.2256
 4284SOL     OW13694   5.187   2.635   7.914 -0.7010 -0.9440  0.1987
 4284SOL    HW113695   5.111   2.693   7.912  0.5721  0.7808 -0.6222
 4284SOL    HW213696   5.231   2.651   7.830  0.9633 -1.3310  0.9614
 4285SOL     OW13697   4.647   3.655   0.592 -0.3915 -0.0103  0.0439
 4285SOL    HW113698   4.731   3.612   0.606 -0.8178 -0.9484 -0.1869
 4285SOL    HW213699   4.584   3.602   0.641 -0.9449  0.2851 -0.3337
 4286SOL     OW13700   1.154   1.731   3.499  0.1321 -0.2517 -0.2198
 4286SOL    HW113701   1.178   1.811   3.451 -1.3853  1.3565  1.5431
 4286SOL    HW213702   1.210   1.732   3.576 -2.5271  1.3984  1.8761
 4287SOL     OW13703   1.401   1.521   3.600  0.5458 -0.0405 -0.1872
 4287SOL    HW113704   1.477   1.515   3.543  0.6889  1.0879 -0.1387
 4287SOL    HW213705   1.428   1.581   3.670 -0.0917 -0.3254  0.3139
 4288SOL     OW13706   4.914   5.906   0.604 -0.3053  0.2457  0.6939
 4288SOL    HW113707   4.880   5.845   0.539  1.2918 -2.1030  1.8935
 4288SOL    HW213708   4.931   5.852   0.681  1.2824  2.2019  1.8293
 4289SOL     OW13709   5.861   1.308   1.644 -0.4043  0.0673 -0.4211
 4289SOL    HW113710   5.815   1.297   1.727 -1.7232  0.4776 -1.0758
 4289SOL    HW213711   5.914   1.229   1.636 -0.5539 -0.1581  0.6128
 4290SOL     OW13712   3.978   0.757   3.635  0.2571  0.0112 -0.2141
 4290SOL    HW113713   3.925   0.818   3.583  0.8374  0.0753 -0.7450
 4290SOL    HW213714   3.983   0.798   3.721  0.4782  0.6230 -0.5111
 4291SOL     OW13715   2.205   0.109   3.994 -0.5847 -0.2235 -0.2124
 4291SOL    HW113716   2.118   0.111   4.033 -0.5296 -1.9116  0.0870
 4291SOL    HW213717   2.256   0.171   4.045 -0.6780 -1.8908  2.0494
 4292SOL     OW13718   6.192   5.041   0.418  0.3995 -0.9301  0.2765
 4292SOL    HW113719   6.107   5.004   0.440 -0.1308  1.2926  2.3712
 4292SOL    HW213720   6.255   4.990   0.469 -0.3091  0.7971  3.0706
 4293SOL     OW13721   1.387   5.759   7.868  0.1711 -0.0027 -0.1694
 4293SOL    HW113722   1.327   5.759   7.793 -0.4964 -0.0618  0.3506
 4293SOL    HW213723   1.427   5.672   7.868  0.2657  0.0383 -0.5220
 4294SOL     OW13724   2.599   5.337   7.871  0.1491  0.2834  0.3147
 4294SOL    HW113725   2.604   5.284   7.951  0.3215 -1.1769 -0.6161
 4294SOL    HW213726   2.691   5.349   7.846  0.0931  0.6909  0.3070
 4295SOL     OW13727   8.167   5.030   5.133 -0.0221  0.3015 -0.2367
 4295SOL    HW113728   8.257   5.007   5.110  0.3953  0.0198  1.5379
 4295SOL    HW213729   8.114   4.998   5.060  1.3522  1.0394 -1.6169
 4296SOL     OW13730   2.288   4.823   4.399 -0.3100 -0.0718  0.0814
 4296SOL    HW113731   2.234   4.761   4.350  1.0764 -0.7474 -0.6565
 4296SOL    HW213732   2.313   4.775   4.478 -3.9005  1.5704  2.4582
 4297SOL     OW13733   2.214   5.336   5.961 -0.1193 -0.0059  0.6454
 4297SOL    HW113734   2.228   5.415   5.908  0.3784 -0.8077 -0.4546
 4297SOL    HW213735   2.177   5.272   5.900  0.5488 -0.9800  1.2290
 4298SOL     OW13736   5.458   0.164   0.750  0.0888  0.2659  0.2153
 4298SOL    HW113737   5.540   0.207   0.772  0.0768  0.5686 -0.3219
 4298SOL    HW213738   5.475   0.119   0.668  0.3996 -1.6235  1.2477
 4299SOL     OW13739   4.468   5.460   3.349 -0.6389 -0.3212 -0.5856
 4299SOL    HW113740   4.453   5.553   3.364 -0.3999 -0.6390  1.9724
 4299SOL    HW213741   4.474   5.452   3.253  2.7284  2.8146 -0.8575
 4300SOL     OW13742   1.541   0.788   7.863  0.1003  0.4310  0.4503
 4300SOL    HW113743   1.564   0.742   7.782  0.2466 -0.5315  1.0158
 4300SOL    HW213744   1.535   0.880   7.838 -2.5666 -0.1081 -1.2669
 4301SOL     OW13745   1.320   5.357   1.469  0.0981  0.3263 -0.3085
 4301SOL    HW113746   1.340   5.446   1.441 -0.3430  0.0284 -1.6409
 4301SOL    HW213747   1.276   5.317   1.394 -0.7304 -0.6701  0.6620
 4302SOL     OW13748   6.469   5.935   4.862 -0.5403 -0.6796  0.5962
 4302SOL    HW113749   6.426   6.021   4.860 -0.4579 -0.6348  0.7452
 4302SOL    HW213750   6.543   5.945   4.801 -1.0291 -0.9129 -0.0450
 4303SOL     OW13751   2.106   4.778   4.880  0.3775  0.2740 -0.4480
 4303SOL    HW113752   2.202   4.774   4.877  0.5044  1.4835  0.8158
 4303SOL    HW213753   2.079   4.771   4.789  1.7838  1.8517 -1.0519
 4304SOL     OW13754   3.742   1.354   1.077  0.1266 -0.2665 -0.0019
 4304SOL    HW113755   3.794   1.336   0.999 -0.3285 -1.9437  0.0419
 4304SOL    HW213756   3.662   1.302   1.065 -0.6543  0.6994  0.8455
 4305SOL     OW13757   7.322   0.922   0.354 -0.0438 -0.0074 -0.3131
 4305SOL    HW113758   7.269   0.984   0.403 -0.2904 -2.1963  2.4435
 4305SOL    HW213759   7.404   0.968   0.338 -2.0056  2.9314 -3.4141
 4306SOL     OW13760   6.438   3.448   5.061 -0.1043 -0.1289 -0.1142
 4306SOL    HW113761   6.445   3.524   5.119  1.6291  0.2491 -0.7526
 4306SOL    HW213762   6.365   3.469   5.002 -0.8032  0.2156  0.8576
 4307SOL     OW13763   6.670   2.936   5.571 -0.1383  0.4215 -0.6371
 4307SOL    HW113764   6.709   2.852   5.549  2.0756  2.0843 -3.8876
 4307SOL    HW213765   6.632   2.967   5.489 -1.4221  2.3445  0.6034
 4308SOL     OW13766   0.797   2.876   6.414  0.0729 -0.5630  1.0219
 4308SOL    HW113767   0.851   2.930   6.356 -0.1687 -0.5379  0.8138
 4308SOL    HW213768   0.732   2.836   6.355 -1.1105  0.6218  1.4546
 4309SOL     OW13769   6.316   0.741   5.250  0.6054  0.3831  0.5743
 4309SOL    HW113770   6.404   0.778   5.245  0.4788  0.5105 -1.9313
 4309SOL    HW213771   6.271   0.796   5.314  1.3349  2.6180 -0.7232
 4310SOL     OW13772   7.904   1.155   7.721  0.3088 -0.0873 -0.4254
 4310SOL    HW113773   7.897   1.245   7.689 -0.5908 -0.3568 -1.0503
 4310SOL    HW213774   7.866   1.157   7.809  1.3529  0.3558  0.0293
 4311SOL     OW13775   8.016   1.335   2.669 -0.6429 -0.0617 -0.3910
 4311SOL    HW113776   7.962   1.265   2.633 -0.5085 -0.6713  0.5637
 4311SOL    HW213777   8.028   1.396   2.596  1.9594 -2.5993 -2.2608
 4312SOL     OW13778   3.208   5.028   1.482 -0.6328 -0.3798 -0.3975
 4312SOL    HW113779   3.205   5.116   1.518  0.4916 -0.4770 -0.0528
 4312SOL    HW213780   3.178   4.971   1.553 -3.0483 -0.1678 -1.1413
 4313SOL     OW13781   7.007   7.648   2.436 -0.2611 -0.0870 -0.3758
 4313SOL    HW113782   7.074   7.699   2.482 -0.0580 -0.6076 -0.0816
 4313SOL    HW213783   6.925   7.671   2.479  0.2159 -2.5316  2.0873
 4314SOL     OW13784   3.097   3.946   5.897 -0.2044  1.0258  0.4053
 4314SOL    HW113785   3.041   4.022   5.878 -0.9984  0.4136  0.2088
 4314SOL    HW213786   3.043   3.871   5.872 -0.1900  0.2966  2.4384
 4315SOL     OW13787   3.083   1.430   2.388 -0.0379 -0.1388 -0.3463
 4315SOL    HW113788   3.060   1.464   2.474  0.9236 -0.1134 -0.0851
 4315SOL    HW213789   3.065   1.503   2.328  0.4319  0.2617 -0.0051
 4316SOL     OW13790   3.432   4.397   4.164  0.1350 -0.2531  0.1830
 4316SOL    HW113791   3.417   4.440   4.248  2.3095  1.2856 -0.1406
 4316SOL    HW213792   3.472   4.313   4.186  0.6514  0.1253  0.7079
 4317SOL     OW13793   3.366   3.124   0.924  0.1906 -0.5441 -0.2760
 4317SOL    HW113794   3.373   3.032   0.947 -0.6126 -0.6305 -0.3559
 4317SOL    HW213795   3.388   3.128   0.830 -0.1848 -0.7095 -0.3693
 4318SOL     OW13796   2.507   0.504   2.928 -0.4091  0.0758 -0.0254
 4318SOL    HW113797   2.551   0.511   2.843 -0.7394  0.3309 -0.1833
 4318SOL    HW213798   2.527   0.587   2.972  0.5482 -0.4449  0.5430
 4319SOL     OW13799   7.991   0.309   7.074  0.8537 -0.1616 -0.7811
 4319SOL    HW113800   8.001   0.317   7.169  0.1012 -1.6639 -0.5408
 4319SOL    HW213801   8.058   0.246   7.048  1.1631  0.3678 -1.2827
 4320SOL     OW13802   0.722   1.736   6.474 -0.5247 -0.0451 -0.3708
 4320SOL    HW113803   0.675   1.658   6.448  0.9534 -1.5829  1.2693
 4320SOL    HW213804   0.686   1.759   6.560 -1.4368  1.5497 -1.1332
 4321SOL     OW13805   0.548   7.396   4.637  0.4049 -0.4415 -0.4456
 4321SOL    HW113806   0.544   7.347   4.556 -0.3561 -0.4315 -0.4215
 4321SOL    HW213807   0.614   7.351   4.690  1.0044 -0.3648 -1.1118
 4322SOL     OW13808   6.693   3.544   7.805  0.7979 -0.3177 -0.0656
 4322SOL    HW113809   6.744   3.614   7.846  0.5537  0.3070 -0.7958
 4322SOL    HW213810   6.610   3.586   7.782  0.7641 -0.7702 -0.7779
 4323SOL     OW13811   0.184   8.140   5.937 -0.4025  0.1878 -0.1759
 4323SOL    HW113812   0.270   8.098   5.941 -0.2258  0.4450 -1.0597
 4323SOL    HW213813   0.203   8.233   5.926 -0.7790  0.1707 -1.0916
 4324SOL     OW13814   3.532   2.708   4.018 -0.2266 -0.1400  0.4532
 4324SOL    HW113815   3.573   2.652   4.084 -0.9582 -1.6645 -0.3456
 4324SOL    HW213816   3.439   2.707   4.039 -0.4257 -0.3642 -0.3841
 4325SOL     OW13817   3.109   3.747   0.012  0.2853  0.7251 -0.0152
 4325SOL    HW113818   3.086   3.670   0.064  3.0616  0.5750  1.1511
 4325SOL    HW213819   3.204   3.753   0.018  0.2914  3.4638 -1.2425
 4326SOL     OW13820   1.952   1.798   2.943 -0.2758 -0.6374 -0.2911
 4326SOL    HW113821   1.954   1.807   3.039  0.9078 -0.6727 -0.2976
 4326SOL    HW213822   1.881   1.856   2.915 -0.6361 -0.6277  0.6116
 4327SOL     OW13823   0.320   1.863   2.212  0.2329 -0.0541  0.3876
 4327SOL    HW113824   0.268   1.887   2.135 -0.1837 -0.8252  0.4253
 4327SOL    HW213825   0.358   1.778   2.190 -0.8917 -0.8753  1.4975
 4328SOL     OW13826   6.928   0.687   4.947  0.1092  0.2753  0.4678
 4328SOL    HW113827   6.865   0.671   4.877  1.4600 -1.3732 -0.4725
 4328SOL    HW213828   6.979   0.763   4.916  0.4958 -0.2485 -0.2238
 4329SOL     OW13829   1.936   1.564   7.060  0.6879  0.0931  0.0938
 4329SOL    HW113830   1.884   1.551   7.140 -0.4359  1.0120 -0.4589
 4329SOL    HW213831   1.898   1.642   7.019 -1.1671 -2.2578 -3.1456
 4330SOL     OW13832   8.102   6.229   5.800  0.6454  0.2782 -0.6516
 4330SOL    HW113833   8.079   6.151   5.851 -0.2542 -0.0382 -1.5092
 4330SOL    HW213834   8.184   6.206   5.756  0.3100 -0.2537 -1.0123
 4331SOL     OW13835   6.702   3.532   3.190 -0.0483  0.4326 -0.3608
 4331SOL    HW113836   6.641   3.510   3.261 -1.0996 -0.0290 -1.3801
 4331SOL    HW213837   6.700   3.628   3.186 -3.6109  0.4351 -2.7255
 4332SOL     OW13838   5.203   6.528   6.896 -0.5817  0.3034 -0.2115
 4332SOL    HW113839   5.278   6.544   6.839 -0.4306 -0.7457 -0.3287
 4332SOL    HW213840   5.137   6.488   6.838  0.2840 -2.6582  0.6654
 4333SOL     OW13841   2.459   0.907   2.250  0.4121  0.0032 -0.2206
 4333SOL    HW113842   2.400   0.981   2.266  0.7960  0.5765 -1.3869
 4333SOL    HW213843   2.402   0.839   2.214  0.4817  0.6915 -1.7176
 4334SOL     OW13844   4.486   4.268   4.618  0.0644  0.3759  0.3755
 4334SOL    HW113845   4.460   4.283   4.709  2.1271  0.0055  1.0752
 4334SOL    HW213846   4.407   4.233   4.576 -0.5434 -0.7987  2.3661
 4335SOL     OW13847   6.298   0.286   0.206 -0.4021  0.0538 -0.1717
 4335SOL    HW113848   6.381   0.281   0.158 -1.2180  0.1696 -1.6384
 4335SOL    HW213849   6.303   0.214   0.269 -0.3527 -1.7663 -2.1619
 4336SOL     OW13850   4.216   7.829   7.399 -0.1312  0.1735 -0.0823
 4336SOL    HW113851   4.150   7.809   7.333 -0.0319  0.7909 -0.3823
 4336SOL    HW213852   4.298   7.792   7.364 -0.4344 -1.2391  0.6329
 4337SOL     OW13853   7.547   7.827   4.913 -0.1627 -0.0548  0.0519
 4337SOL    HW113854   7.603   7.765   4.866  0.1079  1.8010 -2.2693
 4337SOL    HW213855   7.607   7.884   4.959 -0.1316  1.0915 -1.3341
 4338SOL     OW13856   3.207   5.289   6.032 -0.1566  0.0028 -0.4412
 4338SOL    HW113857   3.119   5.272   5.998  0.1102 -0.4294 -0.9503
 4338SOL    HW213858   3.254   5.326   5.957  0.0176  0.4950 -0.0904
 4339SOL     OW13859   0.030   0.760   5.410  0.0858  0.0770  0.6668
 4339SOL    HW113860   0.028   0.667   5.434 -1.4003  0.0567  0.5640
 4339SOL    HW213861  -0.062   0.785   5.404  0.4658  1.5248  0.5275
 4340SOL     OW13862   5.557   2.049   7.681 -0.3500  0.2299 -0.0866
 4340SOL    HW113863   5.552   2.118   7.615 -1.3123  0.1119 -0.1434
 4340SOL    HW213864   5.518   2.088   7.759 -0.0103  0.0712  0.1680
 4341SOL     OW13865   5.351   0.241   5.874  0.0480 -0.2939  0.3454
 4341SOL    HW113866   5.354   0.286   5.959  0.6616 -0.3403  0.3522
 4341SOL    HW213867   5.367   0.309   5.810  1.1093 -0.5068  0.3635
 4342SOL     OW13868   2.187   8.160   2.814 -0.5664 -0.0372  0.4382
 4342SOL    HW113869   2.240   8.231   2.850 -1.4149 -0.0474  1.7467
 4342SOL    HW213870   2.238   8.129   2.739  0.1235  1.5289  0.2123
 4343SOL     OW13871   4.388   4.005   3.180 -0.1170 -0.1380 -0.0179
 4343SOL    HW113872   4.322   4.054   3.132 -1.0902 -0.3514  1.0530
 4343SOL    HW213873   4.465   4.062   3.181  0.3619 -0.6035 -2.7970
 4344SOL     OW13874   3.226   6.758   4.791  0.0132  0.1794  0.2116
 4344SOL    HW113875   3.163   6.725   4.726  0.1192 -0.6015  0.5027
 4344SOL    HW213876   3.281   6.819   4.742 -0.5688  0.3956 -0.1917
 4345SOL     OW13877   6.768   2.698   5.514 -0.1443 -0.3538 -0.5402
 4345SOL    HW113878   6.752   2.606   5.536 -0.2126 -0.1647  0.2250
 4345SOL    HW213879   6.835   2.695   5.446  0.4692 -0.9508  0.0712
 4346SOL     OW13880   4.097   4.500   0.703 -0.2309 -0.3905 -0.2195
 4346SOL    HW113881   4.002   4.515   0.702 -0.2792 -0.5794 -1.8412
 4346SOL    HW213882   4.131   4.561   0.638  0.7270 -0.5865  0.0865
 4347SOL     OW13883   7.012   6.828   0.763  0.1914  0.5203  0.8789
 4347SOL    HW113884   7.104   6.800   0.754 -0.2851 -0.3426 -2.4878
 4347SOL    HW213885   6.980   6.833   0.674 -3.2015  0.4489  1.9792
 4348SOL     OW13886   5.193   5.714   2.350  0.5510 -0.0370  0.3915
 4348SOL    HW113887   5.250   5.780   2.390 -0.1041  0.0204  1.2568
 4348SOL    HW213888   5.235   5.631   2.370  0.2915 -0.0023  1.1267
 4349SOL     OW13889   1.442   7.784   0.682 -0.4549  0.2892  0.2640
 4349SOL    HW113890   1.417   7.877   0.677 -0.9763  0.0984 -3.3796
 4349SOL    HW213891   1.360   7.737   0.671  0.1052 -0.5096 -0.7015
 4350SOL     OW13892   0.081   2.706   4.156 -0.0388 -0.1880 -0.5053
 4350SOL    HW113893   0.026   2.783   4.137  1.0207  0.6402 -0.2875
 4350SOL    HW213894   0.022   2.646   4.201 -0.4635  1.2496  0.9504
 4351SOL     OW13895   7.643   4.731   4.818 -0.1615 -0.2057  0.2118
 4351SOL    HW113896   7.664   4.664   4.753 -1.8149  1.6232 -2.4765
 4351SOL    HW213897   7.588   4.687   4.882 -0.1556 -1.7028 -0.7695
 4352SOL     OW13898   3.186   3.822   0.505 -0.4053  0.0899 -0.1416
 4352SOL    HW113899   3.193   3.738   0.459 -0.1920  0.0548 -0.0440
 4352SOL    HW213900   3.271   3.864   0.492  0.0589 -0.4082  1.1650
 4353SOL     OW13901   4.224   8.186   6.316 -0.6682  0.2652 -0.3591
 4353SOL    HW113902   4.301   8.135   6.341 -0.0987  1.5100  0.5473
 4353SOL    HW213903   4.161   8.121   6.284  0.3688 -0.8808 -0.1397
 4354SOL     OW13904   5.819   0.510   3.698 -0.0877 -0.0041  0.1889
 4354SOL    HW113905   5.803   0.464   3.616  1.1148  1.8749 -1.1638
 4354SOL    HW213906   5.910   0.491   3.720 -0.1785  0.1110  0.6814
 4355SOL     OW13907   7.961   3.938   8.164  0.2502  0.1583 -0.0310
 4355SOL    HW113908   7.985   4.028   8.185 -0.7425 -0.2797  3.6938
 4355SOL    HW213909   7.904   3.945   8.088  2.7218  2.2522 -1.8735
 4356SOL     OW13910   5.687   8.024   5.288 -0.4884 -0.0540  0.3105
 4356SOL    HW113911   5.661   8.104   5.243 -2.6252 -0.5254  0.5750
 4356SOL    HW213912   5.735   8.054   5.365 -0.9735  0.9599  0.2347
 4357SOL     OW13913   6.951   5.302   7.139  0.1717 -0.9815  1.0264
 4357SOL    HW113914   6.929   5.293   7.232  0.0842 -1.9488  0.9295
 4357SOL    HW213915   6.895   5.237   7.096 -1.0111  0.6034  0.0895
 4358SOL     OW13916   4.256   2.942   6.772 -0.4402  0.4506 -0.1675
 4358SOL    HW113917   4.198   2.893   6.714 -0.4318  0.6947 -0.3808
 4358SOL    HW213918   4.322   2.980   6.714  0.4192 -0.4934  0.1483
 4359SOL     OW13919   1.826   1.904   3.328  0.1590 -0.0939 -0.8055
 4359SOL    HW113920   1.820   1.976   3.390  1.6230 -0.7069  0.1014
 4359SOL    HW213921   1.795   1.941   3.245 -1.1080  0.9472  0.0994
 4360SOL     OW13922   1.394   0.418   2.220 -0.1750 -0.0991 -0.0411
 4360SOL    HW113923   1.386   0.452   2.309 -0.7885 -0.8046  0.1805
 4360SOL    HW213924   1.430   0.330   2.232 -0.4628 -0.2759 -0.4733
 4361SOL     OW13925   3.295   2.205   7.479 -0.1312 -0.2915 -0.3597
 4361SOL    HW113926   3.204   2.209   7.509  0.0179  1.4601 -0.0057
 4361SOL    HW213927   3.305   2.116   7.445 -2.7533  0.1830 -2.8726
 4362SOL     OW13928   3.163   2.470   1.030 -0.3654 -0.4186  0.3751
 4362SOL    HW113929   3.081   2.420   1.036  0.0227 -1.2821 -1.1047
 4362SOL    HW213930   3.231   2.407   1.056  0.0590 -0.5028 -0.8586
 4363SOL     OW13931   3.273   7.287   0.920 -0.3785  0.1313  0.3362
 4363SOL    HW113932   3.332   7.286   0.995 -0.7814  2.9275  0.8084
 4363SOL    HW213933   3.319   7.237   0.852  1.1811 -0.2203  1.6077
 4364SOL     OW13934   7.669   7.296   2.689  0.1603  0.0691 -0.8398
 4364SOL    HW113935   7.635   7.210   2.663  1.6491 -1.0752  0.6966
 4364SOL    HW213936   7.595   7.338   2.733 -0.2069 -1.0609 -0.3182
 4365SOL     OW13937   7.683   0.768   5.982 -0.1294 -0.5542 -0.4427
 4365SOL    HW113938   7.775   0.750   5.968 -0.1084  0.4853 -1.8228
 4365SOL    HW213939   7.681   0.855   6.022 -0.4856 -0.8549  0.2058
 4366SOL     OW13940   4.576   6.606   0.107  0.1925 -0.1207 -0.2049
 4366SOL    HW113941   4.520   6.572   0.176 -2.2097 -1.6866 -2.6789
 4366SOL    HW213942   4.516   6.624   0.034  2.7397 -0.5457 -2.6002
 4367SOL     OW13943   4.199   1.603   0.835 -0.1238 -0.3753  0.4327
 4367SOL    HW113944   4.132   1.619   0.901 -0.3905 -0.4137  0.1702
 4367SOL    HW213945   4.155   1.616   0.751 -0.1095 -1.5401  0.2327
 4368SOL     OW13946   7.502   5.100   2.539  0.1920 -0.9649  0.1224
 4368SOL    HW113947   7.483   5.180   2.490 -1.4667  0.7053  3.1901
 4368SOL    HW213948   7.469   5.029   2.482 -1.2785  0.7821 -1.3289
 4369SOL     OW13949   0.071   0.308   0.704 -0.3100  0.6662 -0.6192
 4369SOL    HW113950   0.139   0.352   0.756 -0.1251 -0.4128  0.0831
 4369SOL    HW213951  -0.003   0.300   0.764 -0.4753  0.3694 -0.8589
 4370SOL     OW13952   7.366   3.986   1.782  0.4308  0.4689  0.3884
 4370SOL    HW113953   7.454   3.992   1.746  0.0103  0.5144 -0.6602
 4370SOL    HW213954   7.339   4.077   1.795 -0.1520  0.5353 -1.0700
 4371SOL     OW13955   0.980   0.557   0.604 -0.6115 -0.2498  0.5922
 4371SOL    HW113956   0.895   0.576   0.564 -0.4016  0.2637  0.3829
 4371SOL    HW213957   1.043   0.604   0.550 -0.2308 -0.3105  0.9776
 4372SOL     OW13958   5.469   0.778   1.526  0.1678  0.0360  0.3146
 4372SOL    HW113959   5.400   0.734   1.477 -1.7922  2.7638  0.3776
 4372SOL    HW213960   5.457   0.748   1.616 -0.6492  0.0619  0.2277
 4373SOL     OW13961   1.796   7.120   1.001 -0.2611 -0.5137 -0.0852
 4373SOL    HW113962   1.753   7.036   0.992 -0.4387 -0.4743  0.3859
 4373SOL    HW213963   1.727   7.181   1.027 -0.0004 -0.3750  0.3029
 4374SOL     OW13964   5.628   5.473   4.137 -0.0500  0.0606  0.3358
 4374SOL    HW113965   5.564   5.489   4.067  0.4873  0.7076 -0.0153
 4374SOL    HW213966   5.585   5.410   4.195 -1.7369  1.7735  1.0577
 4375SOL     OW13967   3.913   7.225   2.190  0.3169  0.1448  0.2528
 4375SOL    HW113968   3.963   7.234   2.271  1.1290 -0.9084 -0.1003
 4375SOL    HW213969   3.865   7.143   2.200 -0.0080  0.2889 -0.1117
 4376SOL     OW13970   4.617   1.626   1.165 -0.0825  0.0910  0.4915
 4376SOL    HW113971   4.549   1.607   1.100  1.6638 -0.7431 -1.1811
 4376SOL    HW213972   4.630   1.720   1.159 -0.6600  0.1682  0.3899
 4377SOL     OW13973   2.234   3.974   1.386 -0.5021 -0.6183 -0.3575
 4377SOL    HW113974   2.312   3.922   1.365 -0.7728 -1.8281  1.4411
 4377SOL    HW213975   2.161   3.912   1.378 -1.5052  0.7337 -3.0600
 4378SOL     OW13976   6.144   4.934   2.119  0.4710  0.0254 -0.1772
 4378SOL    HW113977   6.202   5.003   2.151  0.4709  0.2934 -0.7504
 4378SOL    HW213978   6.086   4.916   2.193 -0.2211  1.3903 -0.3531
 4379SOL     OW13979   6.244   6.224   2.201 -0.0770 -0.1330  0.0012
 4379SOL    HW113980   6.266   6.218   2.108  0.4427  0.1290  0.1043
 4379SOL    HW213981   6.199   6.142   2.220  1.4741 -1.0154 -0.0321
 4380SOL     OW13982   1.709   0.043   6.954 -0.0384 -0.3401 -0.2914
 4380SOL    HW113983   1.651   0.116   6.975 -1.4512 -2.1842  2.7969
 4380SOL    HW213984   1.699   0.031   6.859 -2.7044  1.0669 -0.2855
 4381SOL     OW13985   4.866   0.985   3.787  0.4255 -0.1318  0.3784
 4381SOL    HW113986   4.884   1.028   3.704 -1.5581 -2.3008 -1.3353
 4381SOL    HW213987   4.790   1.032   3.823  0.8575  0.3732  0.6444
 4382SOL     OW13988   4.344   3.576   1.168  0.2803  0.3984 -0.0393
 4382SOL    HW113989   4.386   3.661   1.179  1.7574 -0.1471 -1.0990
 4382SOL    HW213990   4.417   3.513   1.170 -0.5665 -0.6652 -1.0804
 4383SOL     OW13991   0.018   3.017   5.913  0.3632 -0.0463 -0.0435
 4383SOL    HW113992   0.026   3.019   5.818 -0.5065 -0.5242 -0.1434
 4383SOL    HW213993  -0.017   2.929   5.932  1.8540 -0.4896  0.8310
 4384SOL     OW13994   7.965   4.241   7.317 -0.1378  0.1589 -0.0885
 4384SOL    HW113995   7.925   4.299   7.381 -1.9467 -1.5978  0.4800
 4384SOL    HW213996   7.956   4.287   7.233  0.2167  1.4977  0.5878
 4385SOL     OW13997   1.906   6.337   2.836 -0.9098  0.3088  0.1837
 4385SOL    HW113998   1.883   6.283   2.911 -1.0263 -1.5721 -1.1274
 4385SOL    HW213999   1.892   6.427   2.866  1.3042 -0.1730  3.1435
 4386SOL     OW14000   3.052   5.818   5.675 -0.5034 -0.5868  0.2383
 4386SOL    HW114001   2.989   5.779   5.735 -0.2185 -1.3398  0.0671
 4386SOL    HW214002   3.092   5.890   5.725 -1.8730  0.2627  0.1535
 4387SOL     OW14003   3.039   1.126   1.856  0.0748 -0.1091  0.0330
 4387SOL    HW114004   3.017   1.073   1.779 -1.0350 -0.6019  0.6556
 4387SOL    HW214005   3.124   1.093   1.885 -0.2640 -1.0583 -0.0291
 4388SOL     OW14006   2.310   3.792   7.875 -0.1389 -0.5830  0.0731
 4388SOL    HW114007   2.395   3.748   7.880  0.6425  0.6321 -1.8261
 4388SOL    HW214008   2.329   3.883   7.894 -0.8360 -0.1282 -1.2929
 4389SOL     OW14009   7.102   1.499   3.971  0.2004  0.1064  0.2020
 4389SOL    HW114010   7.030   1.531   3.916 -0.0456  1.1985  1.1138
 4389SOL    HW214011   7.165   1.571   3.972  1.1094 -0.6694 -0.2266
 4390SOL     OW14012   3.763   2.841   2.678 -0.2741  0.7125 -0.2243
 4390SOL    HW114013   3.701   2.832   2.751  0.8356  0.0375  0.6595
 4390SOL    HW214014   3.794   2.931   2.684  0.8794  0.2557  1.0396
 4391SOL     OW14015   0.831   0.837   1.069 -0.3743  0.3263  0.1273
 4391SOL    HW114016   0.798   0.925   1.049  0.6093  0.6066 -0.3185
 4391SOL    HW214017   0.918   0.852   1.106  0.4264 -0.5237 -1.3485
 4392SOL     OW14018   3.004   4.327   2.492  0.2723  0.3238  0.0694
 4392SOL    HW114019   2.954   4.402   2.522 -0.4284 -0.4505  0.8668
 4392SOL    HW214020   3.052   4.297   2.570 -0.2045 -0.6362  0.0042
 4393SOL     OW14021   0.442   7.392   3.335  0.5123  0.3000 -0.2175
 4393SOL    HW114022   0.407   7.355   3.254 -0.5393  0.9661 -0.0904
 4393SOL    HW214023   0.418   7.328   3.402  0.7471  0.0962 -0.3257
 4394SOL     OW14024   0.368   3.246   7.434 -0.3654  0.1290 -0.2858
 4394SOL    HW114025   0.303   3.239   7.504 -0.2556 -1.0034 -0.2886
 4394SOL    HW214026   0.446   3.204   7.470 -0.5706 -1.2675 -1.4106
 4395SOL     OW14027   6.207   7.763   5.645  0.2120  0.6730  0.6378
 4395SOL    HW114028   6.127   7.799   5.682  0.8524 -0.3441  3.1662
 4395SOL    HW214029   6.268   7.837   5.643 -0.3072  1.0981  0.0943
 4396SOL     OW14030   0.442   7.393   6.191  0.0497  0.3485  0.2367
 4396SOL    HW114031   0.395   7.467   6.231 -2.1187 -1.4395  1.2686
 4396SOL    HW214032   0.469   7.339   6.265  0.5496 -0.4843 -0.5309
 4397SOL     OW14033   5.115   7.089   0.962  0.9077 -0.0106 -0.3528
 4397SOL    HW114034   5.068   7.026   0.906  1.1996  0.6886 -1.4257
 4397SOL    HW214035   5.047   7.136   1.009  0.6591 -0.7361  0.0194
 4398SOL     OW14036   6.116   5.056   6.907  0.3961 -0.3998 -0.0135
 4398SOL    HW114037   6.034   5.023   6.871  0.6175  0.9614 -1.9397
 4398SOL    HW214038   6.168   4.978   6.926 -0.3462 -1.2460 -1.3086
 4399SOL     OW14039   7.953   3.775   2.253  0.0557 -0.1253  0.2224
 4399SOL    HW114040   8.023   3.758   2.190 -0.6207  0.7538 -0.8096
 4399SOL    HW214041   7.876   3.730   2.217 -0.5334  1.0350 -0.0299
 4400SOL     OW14042   0.888   1.784   7.009  0.2253 -0.1006 -0.3135
 4400SOL    HW114043   0.964   1.765   6.954  0.4232  0.2293 -0.1611
 4400SOL    HW214044   0.909   1.743   7.093 -0.0890 -0.6286 -0.4879
 4401SOL     OW14045   7.266   5.531   1.325 -0.1431 -0.0314 -0.0067
 4401SOL    HW114046   7.202   5.465   1.352 -0.4178  0.3739  0.3372
 4401SOL    HW214047   7.223   5.579   1.254  0.1915 -0.4371 -0.5001
 4402SOL     OW14048   6.139   6.417   6.777 -0.5106 -0.0086 -0.0797
 4402SOL    HW114049   6.060   6.472   6.776  0.6827  1.8202  0.5204
 4402SOL    HW214050   6.107   6.330   6.755 -2.7321  0.6152  0.3502
 4403SOL     OW14051   6.501   0.297   0.029  0.5373  0.1463 -0.0071
 4403SOL    HW114052   6.467   0.355  -0.039  0.3939  1.6390  1.2894
 4403SOL    HW214053   6.596   0.301   0.017  0.4944  0.0163 -0.4191
 4404SOL     OW14054   4.297   6.642   2.127  0.1836 -0.3652 -0.4148
 4404SOL    HW114055   4.364   6.691   2.080 -0.2197 -1.5068 -2.2933
 4404SOL    HW214056   4.347   6.587   2.188  0.8374 -0.0216 -0.6234
 4405SOL     OW14057   5.589   6.416   8.070  0.0322 -0.4043 -0.0641
 4405SOL    HW114058   5.607   6.431   7.978  1.0661 -1.7282 -0.1122
 4405SOL    HW214059   5.635   6.487   8.116  0.7180 -0.5633 -0.4965
 4406SOL     OW14060   0.240   1.300   6.362  0.3530  0.0935  0.6130
 4406SOL    HW114061   0.295   1.246   6.419 -1.2478 -0.5380  1.6172
 4406SOL    HW214062   0.261   1.270   6.274  1.7030 -0.0279  0.9470
 4407SOL     OW14063   5.440   7.497   6.909  0.0581  0.2281 -0.3981
 4407SOL    HW114064   5.501   7.503   6.835 -1.4773  0.9660 -1.6632
 4407SOL    HW214065   5.368   7.555   6.885 -0.8920 -0.1782  1.3130
 4408SOL     OW14066   2.598   6.203   6.917 -0.4234 -0.4937  0.5130
 4408SOL    HW114067   2.685   6.195   6.955 -0.2347  0.2827  0.2702
 4408SOL    HW214068   2.548   6.253   6.981  0.2264  1.8683 -0.6866
 4409SOL     OW14069   1.070   3.130   8.083 -0.0608  0.3954 -0.2295
 4409SOL    HW114070   1.104   3.111   8.170  1.6693  0.9435 -0.7477
 4409SOL    HW214071   0.986   3.173   8.099  0.1397  0.3106  1.1503
 4410SOL     OW14072   4.640   2.479   7.357 -0.0378 -0.2177  0.1436
 4410SOL    HW114073   4.703   2.511   7.422 -2.2539 -0.0155  2.3546
 4410SOL    HW214074   4.590   2.413   7.403 -2.8397  1.1241 -0.7661
 4411SOL     OW14075   5.306   6.073   6.925  0.0209 -0.0822 -0.3752
 4411SOL    HW114076   5.386   6.120   6.949  0.4888 -1.2261  0.3639
 4411SOL    HW214077   5.285   6.106   6.837  2.4156 -1.1407 -1.4403
 4412SOL     OW14078   0.432   4.393   5.469 -0.0744  0.0507  0.1952
 4412SOL    HW114079   0.360   4.333   5.491 -0.1007  1.0765  3.2341
 4412SOL    HW214080   0.400   4.480   5.492  2.6630  0.3828  3.4818
 4413SOL     OW14081   2.333   4.033   4.209  0.1512 -0.6515  0.2225
 4413SOL    HW114082   2.401   4.079   4.161  2.4895 -2.3223  1.6969
 4413SOL    HW214083   2.251   4.073   4.180  1.7778  1.9669 -1.1071
 4414SOL     OW14084   7.563   4.454   3.598 -0.5403 -0.0793  0.3397
 4414SOL    HW114085   7.492   4.503   3.555 -0.0788  0.1888 -0.1165
 4414SOL    HW214086   7.525   4.429   3.683 -0.6156  1.5416  0.8309
 4415SOL     OW14087   3.338   2.792   2.618  0.3368  0.4496 -0.3142
 4415SOL    HW114088   3.354   2.886   2.630 -1.0743  0.5555  0.9990
 4415SOL    HW214089   3.272   2.770   2.684 -0.5057 -1.1521 -1.6250
 4416SOL     OW14090   0.112   3.869   0.952  0.2398  0.3052  0.2576
 4416SOL    HW114091   0.188   3.815   0.973 -0.3508 -0.7721 -0.3184
 4416SOL    HW214092   0.046   3.845   1.017  0.9258  2.5572  1.9334
 4417SOL     OW14093   7.953   5.027   3.074 -0.4019 -0.4243  0.4864
 4417SOL    HW114094   7.922   5.040   2.984 -0.7159  0.5269  0.7221
 4417SOL    HW214095   8.024   4.964   3.066 -0.6719 -0.6299 -0.3839
 4418SOL     OW14096   2.487   1.798   0.307  0.5820  0.2307  0.3861
 4418SOL    HW114097   2.489   1.756   0.393 -1.4962  0.7194  0.7146
 4418SOL    HW214098   2.488   1.725   0.245 -2.9877 -0.4717  0.9497
 4419SOL     OW14099   7.933   6.658   5.661  0.6126  0.0148  0.2962
 4419SOL    HW114100   7.881   6.714   5.603  0.9072 -0.5998 -0.5790
 4419SOL    HW214101   8.024   6.677   5.638  0.7357 -0.1783  0.6155
 4420SOL     OW14102   7.486   1.081   8.103  0.5557 -0.9147 -0.0888
 4420SOL    HW114103   7.434   1.042   8.173  0.8882 -0.0474  0.6554
 4420SOL    HW214104   7.422   1.108   8.037  0.1261 -0.5248  0.4856
 4421SOL     OW14105   6.163   1.077   6.357  0.2163  0.1664 -0.2388
 4421SOL    HW114106   6.146   1.100   6.265 -1.1724 -1.4051 -0.4221
 4421SOL    HW214107   6.094   1.121   6.406 -0.0289 -0.3409 -0.1310
 4422SOL     OW14108   1.562   7.425   7.405 -0.2214 -0.5537  0.2795
 4422SOL    HW114109   1.644   7.377   7.388  1.0494  1.8393 -0.8336
 4422SOL    HW214110   1.546   7.473   7.324 -2.0910 -0.0197  0.9327
 4423SOL     OW14111   2.405   7.373   4.874  0.0697  0.4610  0.0952
 4423SOL    HW114112   2.453   7.294   4.899 -1.5327 -0.2432  1.0667
 4423SOL    HW214113   2.317   7.343   4.855 -0.3835  1.9244 -0.2120
 4424SOL     OW14114   1.330   5.006   0.924  0.2715 -0.2677  0.6038
 4424SOL    HW114115   1.289   4.923   0.902  3.4549 -1.2725 -2.6516
 4424SOL    HW214116   1.417   4.982   0.957  1.0007  1.7276  0.3108
 4425SOL     OW14117   1.007   4.495   2.854 -0.1830 -0.0400  0.1355
 4425SOL    HW114118   1.083   4.475   2.799 -0.3698 -0.8600  0.1735
 4425SOL    HW214119   0.973   4.410   2.881  0.5874  0.3537  2.5073
 4426SOL     OW14120   0.080   5.375   4.696  0.5102 -0.2301  0.7248
 4426SOL    HW114121   0.030   5.439   4.746  0.9434 -0.1064  1.0033
 4426SOL    HW214122   0.160   5.363   4.747  0.9983 -0.0282  0.0082
 4427SOL     OW14123   4.670   3.679   7.096 -0.1284 -0.2289  0.0618
 4427SOL    HW114124   4.615   3.730   7.037  1.6380 -0.9497 -2.3696
 4427SOL    HW214125   4.648   3.588   7.077 -1.8754 -0.5416  2.9861
 4428SOL     OW14126   1.593   0.587   3.214 -0.0856 -0.3620  0.3889
 4428SOL    HW114127   1.614   0.504   3.171  0.6653 -0.2023  0.4387
 4428SOL    HW214128   1.503   0.576   3.245 -0.3893 -0.7408 -0.5951
 4429SOL     OW14129   5.552   5.843   0.650  0.5974  0.0004  0.0542
 4429SOL    HW114130   5.591   5.926   0.623 -0.4856  0.2818 -0.7056
 4429SOL    HW214131   5.461   5.849   0.621  0.0046 -0.6741  1.6783
 4430SOL     OW14132   4.638   1.764   0.461  0.0542  0.2498  0.4070
 4430SOL    HW114133   4.615   1.703   0.391 -1.2471 -1.0411  1.8795
 4430SOL    HW214134   4.596   1.846   0.437 -3.6011 -1.1356  1.3465
 4431SOL     OW14135   2.274   5.331   6.703 -0.1549  0.1168  0.5780
 4431SOL    HW114136   2.211   5.346   6.774 -1.1859 -2.1069  0.2271
 4431SOL    HW214137   2.224   5.283   6.637  1.2156  0.7337 -0.9656
 4432SOL     OW14138   5.396   7.633   2.756 -0.3838  0.2959  0.1029
 4432SOL    HW114139   5.372   7.724   2.768  1.7284  0.8228  0.7747
 4432SOL    HW214140   5.490   7.634   2.737 -0.5118 -1.6717 -0.9855
 4433SOL     OW14141   2.811   2.998   6.973 -0.3992  0.3636 -0.3482
 4433SOL    HW114142   2.898   2.959   6.979 -0.6523 -0.1152  0.3643
 4433SOL    HW214143   2.766   2.947   6.905 -1.0827 -1.3655  1.2877
 4434SOL     OW14144   7.607   6.878   7.571  0.0543 -0.2412  0.2103
 4434SOL    HW114145   7.531   6.820   7.578  1.1822 -1.7981  0.0882
 4434SOL    HW214146   7.668   6.844   7.636  1.9385 -1.0859 -1.8890
 4435SOL     OW14147   1.905   7.009   4.119 -0.3728  0.2343  0.0896
 4435SOL    HW114148   1.907   7.090   4.170 -0.5865  0.4405 -0.2249
 4435SOL    HW214149   1.946   7.032   4.036  1.3911 -0.5084  0.7211
 4436SOL     OW14150   4.304   3.564   6.516  0.6047  0.7624 -0.0360
 4436SOL    HW114151   4.298   3.567   6.420 -1.7976 -0.5600 -0.0184
 4436SOL    HW214152   4.317   3.655   6.542 -2.7320  1.8513 -1.5330
 4437SOL     OW14153   5.863   6.974   1.219 -0.1892 -0.3163 -0.4007
 4437SOL    HW114154   5.840   6.887   1.185 -0.6201 -0.2009 -0.4200
 4437SOL    HW214155   5.958   6.975   1.220 -0.0524  0.2935 -3.3014
 4438SOL     OW14156   6.840   7.940   6.005 -0.3826 -0.2298  0.0460
 4438SOL    HW114157   6.873   7.965   6.091  0.0491 -1.1111  0.1484
 4438SOL    HW214158   6.861   7.846   5.998 -2.6609 -0.7794  0.0124
 4439SOL     OW14159   4.158   4.697   8.046 -0.5119  0.0391 -0.2699
 4439SOL    HW114160   4.120   4.643   7.976 -1.1854 -1.6465  1.2986
 4439SOL    HW214161   4.088   4.757   8.071 -0.0634  1.0755 -1.4147
 4440SOL     OW14162   3.796   2.255   1.269 -0.5878  0.1905 -0.2251
 4440SOL    HW114163   3.763   2.185   1.326 -1.4215  0.2050 -0.6625
 4440SOL    HW214164   3.864   2.213   1.216  0.9798  0.4438  1.4975
 4441SOL     OW14165   0.917   3.828   4.284  0.0860 -0.1597 -0.0315
 4441SOL    HW114166   0.952   3.856   4.200  0.3977  1.3611  0.5753
 4441SOL    HW214167   0.863   3.902   4.314  1.1830 -0.0249  1.7844
 4442SOL     OW14168   3.544   2.806   3.317  0.5175 -0.1512 -0.5393
 4442SOL    HW114169   3.627   2.761   3.336  0.4802  0.1912  0.4790
 4442SOL    HW214170   3.498   2.809   3.401 -1.2347 -1.7107 -1.3782
 4443SOL     OW14171   0.259   1.867   6.465  0.0381  0.1899  0.0049
 4443SOL    HW114172   0.325   1.936   6.458 -1.1416  1.2706 -1.5469
 4443SOL    HW214173   0.205   1.879   6.386 -2.7421  0.2001  1.7883
 4444SOL     OW14174   7.438   0.510   7.826  0.1220 -0.4146  0.0680
 4444SOL    HW114175   7.403   0.473   7.908 -0.7314  0.2341  0.0031
 4444SOL    HW214176   7.374   0.576   7.800  0.8316 -0.0024 -0.6687
 4445SOL     OW14177   4.808   4.192   0.991 -0.1105  0.2326 -0.5721
 4445SOL    HW114178   4.860   4.112   1.002  0.1559  0.2681 -1.4981
 4445SOL    HW214179   4.762   4.202   1.074  0.0605 -0.7346 -0.3458
 4446SOL     OW14180   0.002   1.735   7.451 -0.2735  0.2294  0.1880
 4446SOL    HW114181   0.013   1.643   7.426 -2.0462 -0.7183  2.4447
 4446SOL    HW214182   0.090   1.773   7.444  0.2787 -1.2521 -1.9932
 4447SOL     OW14183   6.945   4.670   7.243  0.2499 -0.4899 -0.3228
 4447SOL    HW114184   6.885   4.604   7.206  1.0089 -1.7926  0.7037
 4447SOL    HW214185   6.974   4.720   7.167 -2.0360  0.1437 -0.8803
 4448SOL     OW14186   6.391   1.361   3.791 -0.5290 -0.2207  0.0711
 4448SOL    HW114187   6.408   1.353   3.698 -0.9438  0.9175 -0.1159
 4448SOL    HW214188   6.404   1.273   3.826  0.4525 -0.4802 -0.9167
 4449SOL     OW14189   8.110   6.040   5.414 -0.1917  0.2009 -0.1363
 4449SOL    HW114190   8.175   6.088   5.465 -0.0435  0.8862 -0.9632
 4449SOL    HW214191   8.086   5.966   5.471  0.5308  0.5176  0.6064
 4450SOL     OW14192   7.882   5.952   6.949 -0.1849 -0.0577  0.0137
 4450SOL    HW114193   7.891   5.942   7.043 -0.7354 -0.5424  0.0244
 4450SOL    HW214194   7.787   5.954   6.935 -0.1053  0.0475 -0.5229
 4451SOL     OW14195   2.343   1.684   6.888 -0.1835 -0.2703  0.0380
 4451SOL    HW114196   2.296   1.619   6.940 -1.3962 -1.0401 -1.9182
 4451SOL    HW214197   2.428   1.692   6.931 -0.5442 -2.0870  1.1803
 4452SOL     OW14198   6.835   3.915   1.336 -0.1019  0.3005 -0.2595
 4452SOL    HW114199   6.887   3.913   1.255  1.9503  1.0045  0.9865
 4452SOL    HW214200   6.749   3.881   1.309  0.1271  1.5874 -2.9942
 4453SOL     OW14201   0.571   5.347   0.269 -0.2616  0.0849  0.0414
 4453SOL    HW114202   0.538   5.430   0.235  1.2507 -0.0601 -1.9644
 4453SOL    HW214203   0.617   5.307   0.195  1.2987 -1.3445  1.6765
 4454SOL     OW14204   5.234   1.732   6.166  0.2287 -0.3628  0.0498
 4454SOL    HW114205   5.309   1.760   6.219 -1.0176 -1.1922  2.3979
 4454SOL    HW214206   5.224   1.639   6.187 -1.3181 -0.3192 -0.3751
 4455SOL     OW14207   2.323   1.119   2.377  0.1722  0.9106  0.2728
 4455SOL    HW114208   2.232   1.143   2.394  0.3131  1.2527  0.5668
 4455SOL    HW214209   2.357   1.093   2.463 -0.5901 -2.5821 -0.3296
 4456SOL     OW14210   5.376   4.735   5.164  0.4619 -0.6650 -0.8006
 4456SOL    HW114211   5.418   4.759   5.082  0.1593  0.2923 -0.6810
 4456SOL    HW214212   5.417   4.791   5.230  0.2957 -1.0184 -0.3898
 4457SOL     OW14213   0.801   7.604   6.070 -0.4313 -0.0315  0.4986
 4457SOL    HW114214   0.864   7.675   6.057  0.6947 -0.9809  0.6281
 4457SOL    HW214215   0.810   7.579   6.162 -0.8470 -0.3158  0.4660
 4458SOL     OW14216   5.142   4.209   6.093 -0.1296  0.0913 -0.0712
 4458SOL    HW114217   5.208   4.196   6.024  0.4514 -0.2984  0.5501
 4458SOL    HW214218   5.177   4.164   6.169  0.0289  1.8915  0.9876
 4459SOL     OW14219   6.110   2.167   5.132  0.2132  0.1300 -0.1977
 4459SOL    HW114220   6.116   2.082   5.089  0.2581 -0.3345  0.7051
 4459SOL    HW214221   6.192   2.175   5.181 -0.9267 -0.5855  1.9757
 4460SOL     OW14222   4.783   2.561   0.802 -0.6812  0.5265 -0.0501
 4460SOL    HW114223   4.722   2.624   0.840 -2.7312 -1.4495  0.1687
 4460SOL    HW214224   4.824   2.518   0.877 -0.9303  0.1204 -0.1418
 4461SOL     OW14225   4.831   4.084   4.056  0.1550  0.1939 -0.5518
 4461SOL    HW114226   4.772   4.152   4.088 -1.6356 -0.7661 -1.6522
 4461SOL    HW214227   4.863   4.041   4.136  1.5685  2.4403  0.1824
 4462SOL     OW14228   5.074   0.008   1.321  0.5569  0.3416 -0.6749
 4462SOL    HW114229   5.006  -0.021   1.260  0.9437 -0.8179 -0.5655
 4462SOL    HW214230   5.133   0.061   1.268  1.1472 -1.0389 -1.4401
 4463SOL     OW14231   1.056   2.097   2.420  0.1766  0.2220 -0.0386
 4463SOL    HW114232   1.136   2.107   2.368  0.7593  1.7768  1.0717
 4463SOL    HW214233   1.007   2.178   2.404 -0.5001 -0.0910  0.3989
 4464SOL     OW14234   5.796   4.732   3.473 -0.4744 -0.4034 -0.2101
 4464SOL    HW114235   5.820   4.713   3.564  1.9028  1.0712 -0.4268
 4464SOL    HW214236   5.741   4.810   3.478  1.6551  1.1939 -0.0644
 4465SOL     OW14237   0.666   2.778   3.903  0.9286  0.6811  0.2588
 4465SOL    HW114238   0.734   2.733   3.953 -0.1913 -1.6338 -0.1710
 4465SOL    HW214239   0.586   2.730   3.923 -0.2776  2.2425 -0.6111
 4466SOL     OW14240   1.511   7.692   3.772 -0.5844 -0.4934  0.1345
 4466SOL    HW114241   1.436   7.632   3.771  0.0636 -1.3167 -0.8684
 4466SOL    HW214242   1.484   7.764   3.715 -0.5949 -0.8064 -0.2557
 4467SOL     OW14243   7.883   4.435   6.729  0.8167 -0.2232  0.7764
 4467SOL    HW114244   7.885   4.429   6.634 -0.6546 -1.1603  0.7654
 4467SOL    HW214245   7.810   4.379   6.755 -1.0702  2.6650  2.2325
 4468SOL     OW14246   0.572   3.916   5.912 -0.3994 -0.0374 -0.2530
 4468SOL    HW114247   0.583   3.823   5.893  0.1379 -0.3359  1.3237
 4468SOL    HW214248   0.659   3.953   5.904 -0.1835 -0.1445  1.3228
 4469SOL     OW14249   0.351   1.176   8.035  0.6741  0.3983 -0.0530
 4469SOL    HW114250   0.404   1.175   7.956  0.3732  0.0728 -0.2506
 4469SOL    HW214251   0.265   1.207   8.006  0.4683 -0.0417  0.0852
 4470SOL     OW14252   2.330   5.055   6.923 -0.0276  0.3529  0.4731
 4470SOL    HW114253   2.361   4.971   6.889 -1.7297  0.1671 -0.7860
 4470SOL    HW214254   2.392   5.119   6.887 -0.3458 -0.1066 -0.9939
 4471SOL     OW14255   2.240   8.050   6.659  0.0335 -0.0497 -0.7894
 4471SOL    HW114256   2.185   8.122   6.628  1.1927 -0.3521 -3.8216
 4471SOL    HW214257   2.314   8.095   6.701 -0.5264  0.4232 -0.2724
 4472SOL     OW14258   7.889   6.855   0.693  0.7020 -0.5378  0.1567
 4472SOL    HW114259   7.823   6.922   0.710  0.3291 -0.7857 -0.2845
 4472SOL    HW214260   7.843   6.788   0.643  1.6280 -0.0393 -1.4380
 4473SOL     OW14261   4.292   2.634   0.353  0.4535 -0.1167 -0.2239
 4473SOL    HW114262   4.298   2.729   0.363  1.6060 -0.3546  1.7757
 4473SOL    HW214263   4.268   2.621   0.261  1.8042  2.0614 -0.9519
 4474SOL     OW14264   2.173   6.726   6.589 -0.6450  0.2908 -0.1400
 4474SOL    HW114265   2.268   6.722   6.574 -0.5469  2.4075 -0.4556
 4474SOL    HW214266   2.162   6.799   6.650 -2.1640  0.9911 -1.1879
 4475SOL     OW14267   5.160   8.107   2.109  0.4897  1.0447  0.1618
 4475SOL    HW114268   5.154   8.139   2.019 -1.2800  0.8526  0.1767
 4475SOL    HW214269   5.118   8.021   2.106  0.7338  0.8826  1.1125
 4476SOL     OW14270   0.878   1.545   7.190  0.3466 -0.1644  0.3303
 4476SOL    HW114271   0.947   1.486   7.219 -0.1293 -0.4935  0.8147
 4476SOL    HW214272   0.808   1.487   7.160  0.1249  0.1613  0.2140
 4477SOL     OW14273   5.406   0.442   3.791  0.1491 -0.1756  0.0393
 4477SOL    HW114274   5.367   0.355   3.796  0.2916 -0.2184  0.4475
 4477SOL    HW214275   5.354   0.495   3.851 -0.7405  0.3366 -1.1523
 4478SOL     OW14276   7.968   1.839   4.768 -0.0485  0.3157 -0.4096
 4478SOL    HW114277   7.930   1.868   4.686 -1.1364  0.7432  0.2266
 4478SOL    HW214278   7.936   1.749   4.779  0.0219  0.2905 -0.4081
 4479SOL     OW14279   8.123   6.873   3.596 -0.2850  0.1671 -0.5414
 4479SOL    HW114280   8.139   6.950   3.541  0.8713 -0.9276 -1.8187
 4479SOL    HW214281   8.067   6.817   3.543  0.1541 -0.5339 -0.2799
 4480SOL     OW14282   5.575   7.352   2.566  0.1485 -0.1929 -0.1796
 4480SOL    HW114283   5.597   7.414   2.496 -0.8190 -0.8953 -1.1415
 4480SOL    HW214284   5.489   7.318   2.541 -0.0646 -0.7239  1.1873
 4481SOL     OW14285   3.525   5.374   7.815 -0.5623  0.1572 -0.2626
 4481SOL    HW114286   3.585   5.438   7.854 -1.3251  0.3248  0.6874
 4481SOL    HW214287   3.469   5.346   7.888  0.7765 -2.8257 -0.2436
 4482SOL     OW14288   1.034   6.921   0.200 -0.3147 -0.1705  0.2286
 4482SOL    HW114289   1.066   7.002   0.162  1.9507 -1.6586 -1.2108
 4482SOL    HW214290   1.085   6.911   0.281 -2.0682  0.7841  1.5502
 4483SOL     OW14291   3.089   1.705   2.254 -0.2402 -0.1435  0.2699
 4483SOL    HW114292   3.006   1.753   2.249 -0.2887 -0.3327 -1.3009
 4483SOL    HW214293   3.146   1.760   2.308 -0.9584  0.6603  0.2305
 4484SOL     OW14294   4.994   5.432   0.035 -0.3042 -0.4862 -0.1760
 4484SOL    HW114295   4.936   5.376   0.086 -0.1833  0.6106  1.2149
 4484SOL    HW214296   4.937   5.502   0.003  0.1456  0.4014  0.9010
 4485SOL     OW14297   0.898   6.862   2.490 -0.0852  0.1228 -0.0926
 4485SOL    HW114298   0.912   6.782   2.438  2.2551  1.2384 -1.3524
 4485SOL    HW214299   0.879   6.929   2.424 -0.4860  0.9248  0.8270
 4486SOL     OW14300   3.124   0.953   0.142  0.2120 -0.1979 -0.2405
 4486SOL    HW114301   3.109   0.859   0.151 -1.3496  0.0278 -0.1265
 4486SOL    HW214302   3.062   0.993   0.204 -1.6370  0.9926 -2.6908
 4487SOL     OW14303   8.046   1.070   1.677  0.0233  0.4241  0.1542
 4487SOL    HW114304   7.979   1.023   1.727  0.6175 -0.1132  0.4620
 4487SOL    HW214305   8.082   1.133   1.739  0.2736  0.2374  0.2031
 4488SOL     OW14306   4.239   2.151   4.234  0.6067  0.6534  0.1824
 4488SOL    HW114307   4.192   2.157   4.151 -2.2649 -0.1708  1.6430
 4488SOL    HW214308   4.219   2.233   4.279  1.5060  0.7609  0.4158
 4489SOL     OW14309   5.963   7.349   2.294 -0.3741 -0.2456  0.2649
 4489SOL    HW114310   5.870   7.351   2.268 -0.5565 -1.5599  0.7419
 4489SOL    HW214311   5.971   7.270   2.348  0.7748  0.4855  1.2152
 4490SOL     OW14312   4.300   2.866   4.674 -0.1838 -0.2112 -0.3095
 4490SOL    HW114313   4.294   2.960   4.657  2.0562  0.2047  0.8196
 4490SOL    HW214314   4.393   2.846   4.668 -0.5600 -2.2718 -0.0070
 4491SOL     OW14315   2.293   5.494   5.160 -0.6065  0.1486 -0.0147
 4491SOL    HW114316   2.309   5.435   5.234 -0.6762 -1.8727 -1.5110
 4491SOL    HW214317   2.275   5.579   5.200  0.2869 -0.6420  2.2341
 4492SOL     OW14318   0.579   2.970   6.000  0.0841  0.2682  0.2631
 4492SOL    HW114319   0.662   3.007   5.971 -0.7637  2.5886  0.5796
 4492SOL    HW214320   0.573   2.992   6.093 -0.4282 -0.7806  0.4894
 4493SOL     OW14321   3.940   1.953   2.347 -0.0766 -0.1795  0.0367
 4493SOL    HW114322   3.974   1.890   2.283 -0.7407 -1.6904  1.1128
 4493SOL    HW214323   3.858   1.985   2.308  0.3527  0.1675 -0.5939
 4494SOL     OW14324   8.050   4.175   0.021 -0.1224 -0.1244 -0.5692
 4494SOL    HW114325   8.130   4.225   0.003 -1.7565  2.4436 -1.1194
 4494SOL    HW214326   8.027   4.200   0.110 -1.1895  0.4559 -0.9994
 4495SOL     OW14327   5.729   2.705   5.310  0.3399  0.5279 -0.4475
 4495SOL    HW114328   5.659   2.670   5.365 -0.2882 -0.0334 -1.5624
 4495SOL    HW214329   5.731   2.798   5.332 -1.4007  0.7485 -1.0298
 4496SOL     OW14330   4.661   0.543   7.109 -0.2191  0.7497  0.1889
 4496SOL    HW114331   4.676   0.457   7.149  0.5963  0.5762 -0.4549
 4496SOL    HW214332   4.574   0.569   7.139 -1.1371 -0.9864 -0.7946
 4497SOL     OW14333   0.007   0.018   6.280 -0.4927 -0.1180  0.0550
 4497SOL    HW114334  -0.007  -0.059   6.224 -3.9554  0.0713  0.4359
 4497SOL    HW214335  -0.034  -0.005   6.363  2.5489  0.4728  1.8348
 4498SOL     OW14336   5.873   7.415   3.708  0.1636  0.2578  0.5586
 4498SOL    HW114337   5.951   7.360   3.695  0.4035  0.7673 -0.2158
 4498SOL    HW214338   5.799   7.355   3.693  0.4229  0.2702 -0.9881
 4499SOL     OW14339   5.987   4.362   1.562  0.0651  0.1432  0.4736
 4499SOL    HW114340   6.080   4.385   1.570  0.3029 -0.3749 -0.6090
 4499SOL    HW214341   5.944   4.445   1.540  0.8666 -0.2318 -3.0336
 4500SOL     OW14342   1.078   2.703   2.832 -0.0097 -0.4595  0.3926
 4500SOL    HW114343   1.039   2.735   2.751 -3.2932  0.1015  2.0440
 4500SOL    HW214344   1.020   2.632   2.860  1.5199 -1.1928  1.8717
 4501SOL     OW14345   0.469   1.598   1.129  0.2401 -0.7358  0.0106
 4501SOL    HW114346   0.391   1.595   1.184 -1.3609 -0.4310 -2.0967
 4501SOL    HW214347   0.505   1.686   1.143 -1.2553  0.0493 -0.8031
 4502SOL     OW14348   1.614   4.242   5.636  0.4865  0.2331 -0.1007
 4502SOL    HW114349   1.622   4.150   5.662  1.3582  1.1922  3.6712
 4502SOL    HW214350   1.644   4.244   5.545 -0.4620 -3.2998 -0.6439
 4503SOL     OW14351   2.805   3.813   7.042  0.3976  0.0062  0.4392
 4503SOL    HW114352   2.817   3.853   6.956 -0.7000 -0.6086 -0.0212
 4503SOL    HW214353   2.736   3.865   7.084 -2.1774 -2.1950 -0.7709
 4504SOL     OW14354   2.083   7.758   5.711 -0.0548  0.1657 -0.3712
 4504SOL    HW114355   2.073   7.708   5.630 -0.8977 -0.4961  0.1242
 4504SOL    HW214356   2.158   7.718   5.755  0.6732  0.8013 -1.0029
 4505SOL     OW14357   0.796   1.737   5.340  0.0534  0.1320 -0.3888
 4505SOL    HW114358   0.812   1.652   5.300 -0.4695 -0.0080 -0.3069
 4505SOL    HW214359   0.852   1.798   5.291 -0.5903 -0.0292 -1.3425
 4506SOL     OW14360   1.704   8.174   7.615 -0.0656  0.3313 -0.9762
 4506SOL    HW114361   1.710   8.090   7.661 -0.5573  0.7758 -0.0812
 4506SOL    HW214362   1.612   8.180   7.588 -0.8461  1.9844  1.7397
 4507SOL     OW14363   5.411   2.049   6.299  0.8952 -0.1950 -0.0311
 4507SOL    HW114364   5.470   2.097   6.240  0.5331 -0.2965 -0.4806
 4507SOL    HW214365   5.454   1.965   6.313  1.0788 -0.0956  0.0104
 4508SOL     OW14366   5.896   5.834   5.775 -0.2109 -0.1172  0.6506
 4508SOL    HW114367   5.873   5.742   5.769  2.1710 -0.7003 -0.3533
 4508SOL    HW214368   5.820   5.880   5.740 -1.3962 -1.6708  1.0868
 4509SOL     OW14369   7.430   0.157   4.882 -0.3336  0.3634  0.0559
 4509SOL    HW114370   7.513   0.195   4.853 -0.6298  1.0460  0.0860
 4509SOL    HW214371   7.415   0.196   4.968 -0.2911 -0.3733  0.4006
 4510SOL     OW14372   5.583   0.037   6.861 -0.4658 -0.0798  0.0069
 4510SOL    HW114373   5.629   0.001   6.936 -0.6389  0.1446  0.2223
 4510SOL    HW214374   5.490   0.025   6.881 -0.5099 -0.9294 -0.6181
 4511SOL     OW14375   6.185   1.720   0.218 -0.5721  0.1429 -0.1169
 4511SOL    HW114376   6.267   1.749   0.177 -0.1965  0.4818  0.8629
 4511SOL    HW214377   6.154   1.795   0.267 -1.5882  0.0797 -0.6243
 4512SOL     OW14378   4.758   7.944   7.525  0.6043 -0.2315 -0.6196
 4512SOL    HW114379   4.764   8.039   7.512  1.5360 -0.0824  0.6949
 4512SOL    HW214380   4.837   7.909   7.482 -0.1921 -0.5273 -1.8897
 4513SOL     OW14381   6.052   4.699   3.353  0.0517  0.5301 -0.1736
 4513SOL    HW114382   5.974   4.723   3.404  0.4666  2.2363 -0.2892
 4513SOL    HW214383   6.017   4.652   3.277 -1.0327  2.4285 -0.9203
 4514SOL     OW14384   1.653   5.119   4.465  0.4930  0.4236 -0.2437
 4514SOL    HW114385   1.592   5.181   4.425  2.4000  1.9720 -0.8576
 4514SOL    HW214386   1.626   5.115   4.556 -1.5559 -0.2538 -0.8144
 4515SOL     OW14387   2.849   0.236   4.664  0.0198 -0.5147 -0.8422
 4515SOL    HW114388   2.764   0.272   4.638 -0.3120 -1.6459 -1.3876
 4515SOL    HW214389   2.830   0.146   4.689  0.6815 -0.1160  1.3545
 4516SOL     OW14390   4.999   0.733   4.904  0.2434 -0.1774  0.4193
 4516SOL    HW114391   4.942   0.765   4.974  0.4995 -2.4781  1.7727
 4516SOL    HW214392   4.966   0.776   4.825 -2.5896 -0.4474  1.3415
 4517SOL     OW14393   4.022   5.203   3.145  0.1712 -0.2708 -0.1533
 4517SOL    HW114394   3.995   5.293   3.160  3.0672  0.4625  1.3912
 4517SOL    HW214395   4.029   5.195   3.050 -0.5066  0.9551 -0.3278
 4518SOL     OW14396   4.122   7.864   1.745 -0.4420 -0.4120 -0.5799
 4518SOL    HW114397   4.054   7.931   1.750  0.4866  0.6103 -1.1794
 4518SOL    HW214398   4.075   7.782   1.731 -1.6337  0.0346  0.6681
 4519SOL     OW14399   4.455   7.723   6.277 -0.0575  0.0194  0.1591
 4519SOL    HW114400   4.381   7.694   6.223  0.3233 -1.3356  0.3198
 4519SOL    HW214401   4.533   7.697   6.227  0.2959 -0.5490  0.9830
 4520SOL     OW14402   7.029   1.190   3.609 -0.3447  0.0651 -0.3047
 4520SOL    HW114403   6.994   1.176   3.521 -0.5294 -0.1896 -0.1922
 4520SOL    HW214404   7.096   1.258   3.598  0.2178 -0.5577 -0.7760
 4521SOL     OW14405   5.174   4.079   8.160 -0.1804  0.0617  0.2368
 4521SOL    HW114406   5.150   4.121   8.243 -0.4811 -1.5298  0.9910
 4521SOL    HW214407   5.237   4.012   8.185  1.5085  1.0404 -1.1457
 4522SOL     OW14408   3.166   4.244   4.409 -0.7952 -0.3729  0.3269
 4522SOL    HW114409   3.160   4.149   4.397 -1.4856 -0.5004  1.5035
 4522SOL    HW214410   3.256   4.258   4.440  0.3043 -0.2595 -2.5913
 4523SOL     OW14411   1.926   5.390   6.442 -0.2074  0.1136 -0.2100
 4523SOL    HW114412   1.852   5.428   6.395 -0.7569  1.0514  1.3183
 4523SOL    HW214413   1.894   5.306   6.474 -0.0765 -0.1969 -0.8998
 4524SOL     OW14414   5.564   2.027   0.344  0.3692  0.4665 -0.2014
 4524SOL    HW114415   5.587   1.937   0.324 -1.2882  0.2100 -1.1795
 4524SOL    HW214416   5.621   2.080   0.288 -0.1054 -0.0659 -1.2100
 4525SOL     OW14417   7.255   2.305   3.244 -0.4194  0.4004  0.7704
 4525SOL    HW114418   7.263   2.358   3.165 -1.7846  0.0307  0.3607
 4525SOL    HW214419   7.341   2.312   3.287  1.2499 -1.4243 -1.9951
 4526SOL     OW14420   6.748   5.577   4.208 -0.0560 -0.1125 -0.0636
 4526SOL    HW114421   6.765   5.628   4.129 -1.5757 -0.0452 -0.3882
 4526SOL    HW214422   6.793   5.493   4.193  0.5846  0.3012 -0.4998
 4527SOL     OW14423   3.932   8.085   1.515  0.1067 -0.0329 -0.1065
 4527SOL    HW114424   3.972   8.121   1.594  1.3935  1.0549 -1.1965
 4527SOL    HW214425   3.912   7.994   1.537 -0.0679  0.3960  1.6291
 4528SOL     OW14426   0.273   4.846   5.716  0.2379  0.2405 -0.3465
 4528SOL    HW114427   0.186   4.828   5.751  0.7181 -0.0757  0.7224
 4528SOL    HW214428   0.311   4.908   5.778  2.0506 -2.2267  1.1779
 4529SOL     OW14429   4.136   6.299   4.216  0.0049 -0.7511 -0.0638
 4529SOL    HW114430   4.127   6.342   4.131  0.7321 -0.4507  0.0013
 4529SOL    HW214431   4.051   6.259   4.232  0.5116 -2.8336 -2.0367
 4530SOL     OW14432   0.139   2.448   6.857 -0.6365 -0.3670 -0.8099
 4530SOL    HW114433   0.120   2.541   6.851 -1.0630 -0.2011  1.9475
 4530SOL    HW214434   0.093   2.419   6.936  0.9687 -2.5219 -0.5821
 4531SOL     OW14435   0.179   1.342   5.811  0.4918 -0.1737  0.3735
 4531SOL    HW114436   0.113   1.322   5.878  1.2364 -0.9928  0.8873
 4531SOL    HW214437   0.240   1.268   5.815  1.6859  0.7778  0.2157
 4532SOL     OW14438   4.411   4.914   4.490 -0.2570  0.0368  0.0177
 4532SOL    HW114439   4.387   4.935   4.399  0.6079  0.1020 -0.2064
 4532SOL    HW214440   4.427   4.819   4.488  1.0595  0.2474 -0.2190
 4533SOL     OW14441   4.086   1.765   6.944 -0.8418  0.0534  0.3108
 4533SOL    HW114442   4.114   1.838   6.888  1.1728  0.9626  2.3368
 4533SOL    HW214443   4.167   1.719   6.965 -1.3218  0.3580  3.2242
 4534SOL     OW14444   3.357   4.537   2.412  0.3022  0.0967  0.0651
 4534SOL    HW114445   3.325   4.568   2.327 -0.0043  0.1382  0.1933
 4534SOL    HW214446   3.415   4.607   2.442 -0.2496  0.4765  0.2726
 4535SOL     OW14447   7.716   6.860   1.813  0.4778 -0.7192 -0.2058
 4535SOL    HW114448   7.768   6.854   1.732 -0.0927  1.0349 -0.7571
 4535SOL    HW214449   7.634   6.816   1.792 -1.1524  2.7146 -1.9707
 4536SOL     OW14450   1.511   2.246   6.637 -0.4765 -0.7006  0.3772
 4536SOL    HW114451   1.579   2.287   6.691 -1.0329 -0.7747  1.1580
 4536SOL    HW214452   1.545   2.158   6.619  0.2892 -0.2349 -0.4963
 4537SOL     OW14453   0.352   6.496   4.233 -0.5448 -0.3137  0.0640
 4537SOL    HW114454   0.272   6.479   4.282 -0.2483 -0.5152  0.4795
 4537SOL    HW214455   0.322   6.538   4.152 -1.0458 -0.0924  0.3594
 4538SOL     OW14456   7.927   2.831   4.563  0.3525  0.3711  0.4475
 4538SOL    HW114457   7.995   2.869   4.618  0.2408  2.7467 -0.9378
 4538SOL    HW214458   7.870   2.785   4.624  1.5807  0.8113  1.9919
 4539SOL     OW14459   5.573   5.248   6.604 -0.4290 -0.7470 -0.4602
 4539SOL    HW114460   5.576   5.303   6.682 -3.8492 -0.5433 -0.3122
 4539SOL    HW214461   5.533   5.304   6.537  0.2728 -1.6607 -1.6738
 4540SOL     OW14462   4.343   0.369   4.773 -0.1142 -0.7475 -0.5493
 4540SOL    HW114463   4.299   0.437   4.722  0.5870 -0.4605 -0.7808
 4540SOL    HW214464   4.325   0.288   4.726  1.7512 -0.3218 -2.1401
 4541SOL     OW14465   7.350   7.474   4.676  0.3973  0.0787  0.1771
 4541SOL    HW114466   7.421   7.494   4.615 -0.5636  0.1925 -0.9367
 4541SOL    HW214467   7.306   7.398   4.638 -0.4926  0.4290  0.4771
 4542SOL     OW14468   4.639   5.499   2.382 -0.1280  0.4625 -0.5257
 4542SOL    HW114469   4.726   5.465   2.364 -0.1607 -0.2206  0.4985
 4542SOL    HW214470   4.580   5.425   2.369 -0.3452  0.4352  0.4797
 4543SOL     OW14471   0.105   1.047   1.067  0.0981 -0.5047  0.2862
 4543SOL    HW114472   0.061   1.033   0.983 -3.1422  0.8465  1.5898
 4543SOL    HW214473   0.133   1.138   1.065  2.1892 -1.1045 -0.1598
 4544SOL     OW14474   7.229   1.743   4.163 -0.0432  0.0442 -0.0655
 4544SOL    HW114475   7.193   1.684   4.229  1.3888  0.1717  0.8496
 4544SOL    HW214476   7.240   1.827   4.208  0.2484  0.3401 -0.6742
 4545SOL     OW14477   4.602   7.655   4.708  0.3882 -0.1002  0.1549
 4545SOL    HW114478   4.593   7.599   4.785  1.0812  0.8399  0.9530
 4545SOL    HW214479   4.520   7.645   4.661 -0.1757 -0.4647  1.1857
 4546SOL     OW14480   2.077   1.460   5.636 -0.4689  0.1432  0.0335
 4546SOL    HW114481   2.078   1.397   5.708 -0.6103  0.3652  0.2321
 4546SOL    HW214482   2.032   1.536   5.672 -0.5836  0.2375 -0.3061
 4547SOL     OW14483   3.158   2.099   0.723 -0.3383 -0.0526 -0.1257
 4547SOL    HW114484   3.106   2.130   0.648 -0.8055  2.6827  1.1889
 4547SOL    HW214485   3.249   2.121   0.700 -0.1826 -1.3369 -0.8154
 4548SOL     OW14486   7.262   6.169   7.760 -0.1317 -0.4389  0.0351
 4548SOL    HW114487   7.345   6.193   7.717 -0.7136 -0.2709 -1.0171
 4548SOL    HW214488   7.267   6.075   7.771  1.0017 -0.2247  1.7118
 4549SOL     OW14489   6.553   0.013   4.857  0.1225  0.8602 -0.0527
 4549SOL    HW114490   6.581  -0.057   4.798  0.9697 -0.3170  1.6604
 4549SOL    HW214491   6.616   0.083   4.843  1.5013 -0.1535  0.7517
 4550SOL     OW14492   4.428   4.178   4.926  0.0317  0.0377 -0.1028
 4550SOL    HW114493   4.454   4.087   4.913 -1.0121 -0.0863 -1.6785
 4550SOL    HW214494   4.394   4.181   5.015  0.7715 -0.9205  0.2345
 4551SOL     OW14495   7.633   2.955   7.256 -0.1289  0.2270  0.1714
 4551SOL    HW114496   7.644   2.877   7.202  2.1170  0.6418 -0.0694
 4551SOL    HW214497   7.587   2.925   7.334  0.2327 -1.2340 -0.1498
 4552SOL     OW14498   4.498   3.940   7.192 -0.1652 -0.0241  0.7868
 4552SOL    HW114499   4.486   4.035   7.200  0.1915 -0.0143  1.3182
 4552SOL    HW214500   4.591   3.929   7.172 -0.1958 -0.2644  0.7700
 4553SOL     OW14501   2.937   6.209   6.462  0.2290  0.3220  0.0636
 4553SOL    HW114502   2.870   6.235   6.525 -0.4266 -1.6589  0.2789
 4553SOL    HW214503   3.019   6.236   6.501 -0.2750  0.4264  1.0851
 4554SOL     OW14504   2.323   1.242   2.095 -0.1070 -0.0095 -0.2481
 4554SOL    HW114505   2.351   1.188   2.020  0.9013  0.0180  0.0918
 4554SOL    HW214506   2.325   1.181   2.170  1.0245  0.4757  0.1365
 4555SOL     OW14507   4.318   0.028   3.566  0.5273 -0.1186 -0.2471
 4555SOL    HW114508   4.391  -0.027   3.538  1.0068  0.2477  0.2728
 4555SOL    HW214509   4.324   0.029   3.661 -0.0342  0.0826 -0.2130
 4556SOL     OW14510   3.458   5.965   5.225 -0.1299 -0.0373  0.5801
 4556SOL    HW114511   3.524   5.898   5.209 -0.3638  0.1416 -1.2377
 4556SOL    HW214512   3.385   5.917   5.265  0.5653 -0.4431  1.4266
 4557SOL     OW14513   1.983   2.989   8.053  0.6025  0.0353  0.1515
 4557SOL    HW114514   1.950   3.075   8.027  0.2970 -0.1620 -0.1385
 4557SOL    HW214515   1.904   2.938   8.073  0.7278 -0.4264 -0.4886
 4558SOL     OW14516   0.494   2.191   5.423  0.3366  0.0918  0.5956
 4558SOL    HW114517   0.424   2.172   5.361 -0.0667  1.0773  0.7260
 4558SOL    HW214518   0.450   2.225   5.500  0.9811  1.7961  0.2716
 4559SOL     OW14519   6.520   4.253   0.432  0.2385  0.2947  0.3565
 4559SOL    HW114520   6.543   4.339   0.468 -1.6786  0.7380  0.6036
 4559SOL    HW214521   6.432   4.236   0.465  0.1371 -1.2612 -0.6336
 4560SOL     OW14522   1.663   2.644   3.567  0.4112  0.4144  0.5883
 4560SOL    HW114523   1.744   2.594   3.555  0.8728  0.9101  1.5299
 4560SOL    HW214524   1.691   2.725   3.609 -0.4605  1.0232  0.0412
 4561SOL     OW14525   1.061   1.272   4.817 -0.1869  0.0438  0.5142
 4561SOL    HW114526   1.085   1.342   4.878 -1.7673  0.0036  1.2571
 4561SOL    HW214527   0.965   1.279   4.810 -0.1488 -0.6592 -1.1253
 4562SOL     OW14528   1.955   3.678   6.960 -0.3618 -0.9574  0.8429
 4562SOL    HW114529   2.006   3.598   6.949 -0.5323 -0.9938  0.3222
 4562SOL    HW214530   1.909   3.665   7.044  0.3319 -1.0003  1.2215
 4563SOL     OW14531   4.098   7.714   7.190  0.8408 -0.1487  0.3795
 4563SOL    HW114532   4.018   7.739   7.143 -0.4889  1.7093  3.3329
 4563SOL    HW214533   4.162   7.696   7.121 -0.8536  2.5150 -2.1072
 4564SOL     OW14534   6.094   1.172   4.614  0.4278  0.6937 -0.2692
 4564SOL    HW114535   6.116   1.091   4.659  0.5149  0.2459 -1.0962
 4564SOL    HW214536   6.179   1.215   4.600  0.5996 -0.0071 -1.5422
 4565SOL     OW14537   6.405   4.201   0.943 -0.2124  0.9525 -0.7678
 4565SOL    HW114538   6.407   4.295   0.963  1.1335  0.7030  0.3453
 4565SOL    HW214539   6.421   4.158   1.026 -1.5533 -0.3246 -1.1231
 4566SOL     OW14540   7.941   6.112   0.969 -0.1751  0.2146  0.0149
 4566SOL    HW114541   7.951   6.018   0.982 -1.2959 -0.1767 -1.6157
 4566SOL    HW214542   7.875   6.139   1.033  0.1622 -0.0858  0.4966
 4567SOL     OW14543   2.758   3.133   5.570  0.0675  0.2160 -0.3965
 4567SOL    HW114544   2.840   3.171   5.540 -0.2841 -0.9531 -3.1446
 4567SOL    HW214545   2.690   3.188   5.530 -0.5474  0.5774  1.0455
 4568SOL     OW14546   5.317   5.915   5.503 -0.6530 -0.0353 -0.5528
 4568SOL    HW114547   5.373   5.866   5.564  0.8770  1.5547 -0.6240
 4568SOL    HW214548   5.229   5.879   5.519 -0.1711 -0.3431  1.9377
 4569SOL     OW14549   1.216   8.103   2.185  0.4372  0.3686 -0.3963
 4569SOL    HW114550   1.274   8.098   2.261  0.2849  0.0515 -0.2954
 4569SOL    HW214551   1.264   8.155   2.121  1.6740 -1.4871 -1.0481
 4570SOL     OW14552   0.636   5.000   5.606  0.0129  0.0612 -0.2092
 4570SOL    HW114553   0.570   4.961   5.663  0.5648 -2.3528 -1.0883
 4570SOL    HW214554   0.698   5.042   5.666 -0.0961 -1.2941  0.8985
 4571SOL     OW14555   6.902   5.676   0.153 -0.7828 -0.3811 -0.8626
 4571SOL    HW114556   6.812   5.682   0.123 -0.7400 -0.8219 -1.0936
 4571SOL    HW214557   6.915   5.583   0.173 -1.7406  0.1934  3.4485
 4572SOL     OW14558   2.317   5.792   2.306 -0.4479  0.2998  0.2955
 4572SOL    HW114559   2.303   5.708   2.350  1.8433 -0.0772  0.4377
 4572SOL    HW214560   2.268   5.855   2.358 -1.4094 -0.8042  0.7637
 4573SOL     OW14561   3.131   0.964   2.719 -0.5634  0.1774  0.0653
 4573SOL    HW114562   3.216   0.940   2.758 -0.1009 -0.7483 -1.4207
 4573SOL    HW214563   3.069   0.959   2.792  0.7123  1.3757  1.3012
 4574SOL     OW14564   0.668   2.490   6.619  0.6354 -0.0384  0.4216
 4574SOL    HW114565   0.723   2.464   6.693  0.6494 -0.7375  0.1761
 4574SOL    HW214566   0.727   2.487   6.543  0.2389 -0.9243  0.1351
 4575SOL     OW14567   1.641   4.431   1.952  0.3865 -0.6241  0.1306
 4575SOL    HW114568   1.657   4.524   1.936 -0.1926 -0.5689 -0.1393
 4575SOL    HW214569   1.643   4.390   1.866 -3.2454 -0.2424 -0.3046
 4576SOL     OW14570   5.551   2.094   4.237  0.2139 -0.5283 -0.2887
 4576SOL    HW114571   5.485   2.090   4.168  0.3130  0.5885 -0.4608
 4576SOL    HW214572   5.631   2.063   4.195  0.1723 -0.2917 -0.5415
 4577SOL     OW14573   4.022   0.254   7.323 -0.3580 -0.0233 -0.5375
 4577SOL    HW114574   3.992   0.201   7.249  0.3005  0.3736 -1.1065
 4577SOL    HW214575   4.044   0.190   7.391 -0.8133 -0.4033 -0.7404
 4578SOL     OW14576   3.761   4.072   3.011  0.2413 -0.4134  0.4098
 4578SOL    HW114577   3.842   4.123   3.022  1.7886 -2.1907 -1.9183
 4578SOL    HW214578   3.733   4.091   2.922 -0.5377 -1.6760  0.3640
 4579SOL     OW14579   4.081   4.646   6.051  0.3099  0.2622  0.6957
 4579SOL    HW114580   4.143   4.716   6.029  1.0076 -0.0613  1.5474
 4579SOL    HW214581   3.998   4.674   6.012  1.1878  0.2611 -1.3006
 4580SOL     OW14582   4.288   1.958   6.343  0.4243  0.4823 -0.1444
 4580SOL    HW114583   4.275   1.908   6.263  1.2420  0.2434 -0.1310
 4580SOL    HW214584   4.382   1.971   6.349  0.3104  1.1585  0.3843
 4581SOL     OW14585   1.268   2.257   1.925 -0.0230 -0.2889  0.0858
 4581SOL    HW114586   1.267   2.226   1.834  1.6179  1.0380 -0.4270
 4581SOL    HW214587   1.334   2.203   1.968 -0.4897 -0.6198  0.4037
 4582SOL     OW14588   1.596   7.198   2.032  0.0757  0.1729 -0.0086
 4582SOL    HW114589   1.665   7.133   2.019 -0.6307 -0.7484  0.7321
 4582SOL    HW214590   1.643   7.282   2.033  1.1360 -0.3990  0.0614
 4583SOL     OW14591   4.833   6.947   4.375  0.0765 -0.1132  0.0065
 4583SOL    HW114592   4.753   6.895   4.371 -0.6517  0.7654  1.9653
 4583SOL    HW214593   4.904   6.883   4.376 -0.7462 -1.0448  1.1536
 4584SOL     OW14594   2.585   7.372   4.676  0.2678  0.2972 -0.4271
 4584SOL    HW114595   2.515   7.389   4.739  1.5041 -0.5546  1.2517
 4584SOL    HW214596   2.544   7.320   4.607 -1.1351  1.3235 -0.4141
 4585SOL     OW14597   5.315   4.286   3.714  0.2803 -0.3488  0.3550
 4585SOL    HW114598   5.379   4.222   3.682 -0.8964 -0.1227 -2.7819
 4585SOL    HW214599   5.250   4.292   3.645 -1.2598  2.0936  1.8473
 4586SOL     OW14600   5.799   4.533   5.832  0.1957 -0.3467 -0.2328
 4586SOL    HW114601   5.858   4.582   5.888 -1.4220  0.7085  0.6341
 4586SOL    HW214602   5.764   4.464   5.887 -1.7001  0.9312  0.2727
 4587SOL     OW14603   4.608   5.342   1.676  0.2840  0.4197 -0.4214
 4587SOL    HW114604   4.614   5.299   1.762 -0.9618  0.4735 -0.2933
 4587SOL    HW214605   4.650   5.427   1.689  0.1056  0.4268  0.1320
 4588SOL     OW14606   4.690   7.877   3.524  0.1666 -1.2309  0.4797
 4588SOL    HW114607   4.770   7.928   3.516 -0.7590  0.1799 -0.2085
 4588SOL    HW214608   4.697   7.810   3.456  1.1904 -1.7722  1.0938
 4589SOL     OW14609   3.552   4.956   7.650 -0.1210  0.4357  0.1841
 4589SOL    HW114610   3.472   4.979   7.603 -1.1282  0.1428  1.6893
 4589SOL    HW214611   3.595   5.039   7.666 -0.8336  0.7408  0.5674
 4590SOL     OW14612   3.197   2.660   6.292  0.0252  0.2242  0.2539
 4590SOL    HW114613   3.253   2.600   6.243  0.5633  0.0048  1.1136
 4590SOL    HW214614   3.163   2.607   6.364 -2.1897  0.0390 -0.8453
 4591SOL     OW14615   1.150   1.539   0.520 -0.4386  0.2503  0.2516
 4591SOL    HW114616   1.084   1.609   0.510 -1.0669 -0.3434  0.1405
 4591SOL    HW214617   1.208   1.551   0.445  1.2450  2.4761  1.7703
 4592SOL     OW14618   7.817   7.289   5.619  0.0859 -0.0592  0.2585
 4592SOL    HW114619   7.835   7.274   5.526 -3.4275  3.3805 -1.2521
 4592SOL    HW214620   7.728   7.258   5.631  0.9657 -1.9189  3.0813
 4593SOL     OW14621   4.122   2.578   2.822  0.2810  0.2522  0.3353
 4593SOL    HW114622   4.148   2.648   2.882  1.3328 -0.1476  0.3766
 4593SOL    HW214623   4.202   2.526   2.810  0.1743  0.4275 -1.5658
 4594SOL     OW14624   5.862   7.952   1.775  0.0717  0.4451 -0.2237
 4594SOL    HW114625   5.957   7.940   1.768 -0.0939 -0.0309 -2.0012
 4594SOL    HW214626   5.845   8.033   1.727 -0.2668  1.4364  1.4769
 4595SOL     OW14627   4.875   7.200   1.058 -0.0242  0.2062  0.1214
 4595SOL    HW114628   4.907   7.262   1.124 -0.3014  0.5018 -0.0130
 4595SOL    HW214629   4.807   7.249   1.011 -1.3844 -0.7071  1.0427
 4596SOL     OW14630   0.071   5.535   3.309 -0.2377 -0.8476 -0.4438
 4596SOL    HW114631  -0.011   5.539   3.260 -0.7755 -0.1842  0.4838
 4596SOL    HW214632   0.107   5.623   3.304  0.1119 -0.9836 -0.3407
 4597SOL     OW14633   8.075   2.751   3.345 -0.3167  0.0021  0.3099
 4597SOL    HW114634   8.034   2.677   3.389  0.3099 -1.7773 -1.8831
 4597SOL    HW214635   8.169   2.734   3.351 -0.1903 -1.1004 -2.6934
 4598SOL     OW14636   4.302   8.201   5.480  0.4056 -0.3681 -0.4117
 4598SOL    HW114637   4.238   8.139   5.445 -1.0802  0.5165  0.6479
 4598SOL    HW214638   4.379   8.189   5.425 -0.2338 -2.3261 -0.9691
 4599SOL     OW14639   7.773   5.092   5.608 -0.3661  0.9471 -0.3862
 4599SOL    HW114640   7.854   5.042   5.614  0.0347  1.7427  2.2456
 4599SOL    HW214641   7.706   5.028   5.585  0.4485 -0.4641  0.9563
 4600SOL     OW14642   4.921   8.076   3.553 -0.3499 -1.1680  0.0911
 4600SOL    HW114643   4.876   8.160   3.555  0.3414 -0.8005  1.6473
 4600SOL    HW214644   4.958   8.071   3.464  0.2559  0.5377  0.2035
 4601SOL     OW14645   1.396   6.353   6.397  0.2392 -0.0491  0.2205
 4601SOL    HW114646   1.362   6.442   6.385  1.2305  0.1005 -2.0473
 4601SOL    HW214647   1.323   6.296   6.371  0.1641  0.1493 -0.0081
 4602SOL     OW14648   5.223   0.364   4.297  0.0268 -0.2105 -0.1464
 4602SOL    HW114649   5.310   0.334   4.323  1.0439  0.6189 -2.2989
 4602SOL    HW214650   5.216   0.453   4.331  0.1100 -0.2076 -0.1374
 4603SOL     OW14651   2.463   1.543   7.882  0.5657  0.9059 -0.0662
 4603SOL    HW114652   2.437   1.593   7.960  1.2076  0.8645  0.1765
 4603SOL    HW214653   2.552   1.514   7.901  0.2665 -0.1727 -0.2945
 4604SOL     OW14654   0.020   7.699   3.516 -0.3226  0.2084  0.5245
 4604SOL    HW114655   0.029   7.607   3.488  0.0337  0.1358  0.8691
 4604SOL    HW214656  -0.075   7.716   3.513 -0.2952  0.2024 -0.7122
 4605SOL     OW14657   7.581   1.237   1.360 -0.5008 -0.2529  0.2147
 4605SOL    HW114658   7.663   1.286   1.358 -1.5015  1.5448  1.2367
 4605SOL    HW214659   7.576   1.203   1.450 -0.7088 -0.6730  0.0486
 4606SOL     OW14660   1.343   5.302   0.989 -0.4547 -0.3358 -0.1549
 4606SOL    HW114661   1.367   5.211   0.969 -1.8102 -1.2388  1.9658
 4606SOL    HW214662   1.292   5.330   0.913  0.3400 -1.1804 -1.0364
 4607SOL     OW14663   6.724   6.642   5.010 -0.0075 -0.0420 -0.2905
 4607SOL    HW114664   6.730   6.716   5.071 -1.0820 -0.4550  0.3509
 4607SOL    HW214665   6.742   6.680   4.924 -0.6448  0.9919  0.0147
 4608SOL     OW14666   7.867   8.208   7.889  0.0448 -0.2728 -0.3355
 4608SOL    HW114667   7.941   8.150   7.868 -0.0708 -0.1315 -1.1800
 4608SOL    HW214668   7.812   8.205   7.810 -0.4321  0.2619 -0.0231
 4609SOL     OW14669   1.567   5.272   5.517  0.1713 -0.1739 -0.0813
 4609SOL    HW114670   1.492   5.288   5.575  0.3201  1.0585 -0.2009
 4609SOL    HW214671   1.548   5.323   5.439  1.6947  1.2053  0.3739
 4610SOL     OW14672   5.931   4.065   7.915  0.5202 -0.3278 -0.1942
 4610SOL    HW114673   5.926   3.987   7.859  1.6705 -0.8074  0.3252
 4610SOL    HW214674   5.919   4.031   8.004  1.0500  0.0830  0.0378
 4611SOL     OW14675   0.829   2.251   6.823  0.4003  0.4355  0.2924
 4611SOL    HW114676   0.925   2.249   6.833  0.3732  0.2021  0.5092
 4611SOL    HW214677   0.799   2.308   6.893  0.2980 -0.3341  0.8868
 4612SOL     OW14678   0.206   7.381   6.422  0.1132  0.5818  0.5287
 4612SOL    HW114679   0.297   7.351   6.419  0.2026  0.8684  0.4129
 4612SOL    HW214680   0.208   7.469   6.385 -0.1171  0.8136  1.0571
 4613SOL     OW14681   6.117   4.044   0.164  0.5570  0.2402  0.4756
 4613SOL    HW114682   6.049   4.112   0.160  0.3689  0.3598  3.4672
 4613SOL    HW214683   6.182   4.079   0.225  3.0664 -0.1913 -1.7544
 4614SOL     OW14684   0.802   4.907   3.376 -0.2527 -0.2363  0.1079
 4614SOL    HW114685   0.736   4.870   3.434 -0.3579  1.3878  1.0723
 4614SOL    HW214686   0.875   4.929   3.433 -0.0092  0.5900 -0.4953
 4615SOL     OW14687   7.944   7.327   2.438  0.0560  0.4010 -0.0320
 4615SOL    HW114688   7.858   7.365   2.419 -0.1698  1.0302  2.0243
 4615SOL    HW214689   7.993   7.397   2.481  1.5883  0.0051 -1.0580
 4616SOL     OW14690   2.429   4.799   7.482  0.0550  0.2246  0.5295
 4616SOL    HW114691   2.485   4.816   7.407 -0.7093  1.7657  0.2663
 4616SOL    HW214692   2.484   4.819   7.558  0.2550  0.5142  0.3129
 4617SOL     OW14693   4.110   6.391   0.810 -0.1872  0.4538 -0.2790
 4617SOL    HW114694   4.103   6.474   0.857  2.1557  1.0041 -0.7189
 4617SOL    HW214695   4.194   6.355   0.839  1.2250  0.6536 -3.6096
 4618SOL     OW14696   8.041   6.627   1.729  0.1214 -0.2633 -0.0940
 4618SOL    HW114697   8.051   6.721   1.713  2.6300 -0.4141  0.1968
 4618SOL    HW214698   7.994   6.623   1.812  0.4423  0.7667  0.1605
 4619SOL     OW14699   5.601   1.718   3.466 -0.4898  0.1127 -0.6110
 4619SOL    HW114700   5.675   1.779   3.468  0.1615 -0.6203 -1.5863
 4619SOL    HW214701   5.536   1.761   3.411 -0.3896  0.3137 -0.5747
 4620SOL     OW14702   2.705   8.071   6.129  0.2509 -0.3277  0.4205
 4620SOL    HW114703   2.772   8.045   6.192 -0.8053 -0.0576  1.6980
 4620SOL    HW214704   2.623   8.065   6.178 -0.6627 -0.6199 -1.0960
 4621SOL     OW14705   0.517   7.957   1.873  0.1279  0.4084 -0.3644
 4621SOL    HW114706   0.528   7.897   1.947  1.9105 -2.5977 -2.8105
 4621SOL    HW214707   0.581   8.026   1.888  1.3875 -0.8583  0.2995
 4622SOL     OW14708   5.690   0.249   6.436 -0.0579 -0.0389  0.1655
 4622SOL    HW114709   5.621   0.216   6.493 -1.4669 -0.4379 -1.6643
 4622SOL    HW214710   5.644   0.301   6.370  1.3985 -0.1267 -0.9840
 4623SOL     OW14711   2.537   5.568   2.584  0.4405  0.0545  0.4123
 4623SOL    HW114712   2.453   5.528   2.608  0.3808  1.1656  2.2277
 4623SOL    HW214713   2.574   5.508   2.519 -1.6800 -0.5363 -0.3423
 4624SOL     OW14714   6.256   4.604   1.768  0.4809  0.1933 -0.2336
 4624SOL    HW114715   6.189   4.606   1.700 -0.3666  0.1701  0.5853
 4624SOL    HW214716   6.220   4.549   1.836  1.4102  0.0510  0.1587
 4625SOL     OW14717   7.950   1.782   2.265 -0.3106 -0.1572  0.3965
 4625SOL    HW114718   7.961   1.716   2.196 -2.0712 -1.1321  0.9723
 4625SOL    HW214719   7.949   1.865   2.218 -0.0015 -0.6901 -0.5881
 4626SOL     OW14720   6.747   0.459   3.981  0.3619  0.9652  0.2206
 4626SOL    HW114721   6.764   0.469   4.074 -0.2241  1.0275  0.3232
 4626SOL    HW214722   6.818   0.403   3.950  0.7374  1.2041  0.6388
 4627SOL     OW14723   4.251   5.552   6.973  0.2480  0.4333  0.3432
 4627SOL    HW114724   4.200   5.484   7.016  1.0078  0.9219  2.0979
 4627SOL    HW214725   4.252   5.526   6.881 -0.0889 -1.5345  0.8467
 4628SOL     OW14726   2.067   2.304   1.418 -0.7488 -0.2204 -0.0742
 4628SOL    HW114727   2.051   2.316   1.324 -1.1753 -0.0920  0.0155
 4628SOL    HW214728   2.122   2.225   1.422  0.2840  0.4503 -0.5093
 4629SOL     OW14729   6.341   1.529   2.941  0.1367  0.8258  0.3703
 4629SOL    HW114730   6.260   1.581   2.940 -1.5601 -1.6559  0.9164
 4629SOL    HW214731   6.316   1.445   2.979  2.7490 -0.4432 -0.4599
 4630SOL     OW14732   1.717   2.088   7.938 -0.0388  0.9349 -0.7934
 4630SOL    HW114733   1.741   2.005   7.977  0.4298  1.0920 -0.7488
 4630SOL    HW214734   1.628   2.074   7.905 -0.2085  0.6135 -0.2206
 4631SOL     OW14735   6.049   1.641   3.592 -0.1013  0.0943  0.0440
 4631SOL    HW114736   6.001   1.686   3.661 -1.5368  0.4860 -1.1657
 4631SOL    HW214737   6.141   1.658   3.612 -0.4998  0.4702  1.6595
 4632SOL     OW14738   0.775   5.082   5.329 -0.5182 -0.3431  0.2184
 4632SOL    HW114739   0.780   4.997   5.373 -2.1807 -0.1345  0.8838
 4632SOL    HW214740   0.684   5.088   5.299 -0.4593  1.2404  0.2652
 4633SOL     OW14741   2.613   2.036   6.163 -0.5417 -0.6673  0.8706
 4633SOL    HW114742   2.599   1.972   6.233 -0.4069 -1.6136  0.0540
 4633SOL    HW214743   2.680   2.095   6.197  0.1059 -1.5936  1.2297
 4634SOL     OW14744   1.058   7.006   2.634  0.0134  0.7263 -0.3367
 4634SOL    HW114745   0.992   6.949   2.594 -0.9594  2.8157 -1.9156
 4634SOL    HW214746   1.139   6.984   2.588 -0.1737  0.1151 -0.3926
 4635SOL     OW14747   3.994   4.698   5.024  0.1217  0.6879 -0.3176
 4635SOL    HW114748   4.078   4.657   5.044  2.4617  4.4327 -1.5248
 4635SOL    HW214749   3.953   4.711   5.110  0.2397 -2.0025  0.2357
 4636SOL     OW14750   7.786   6.176   3.384  0.1829 -0.1423 -0.1635
 4636SOL    HW114751   7.877   6.183   3.414  0.2516 -1.3771 -0.0343
 4636SOL    HW214752   7.740   6.134   3.456 -0.0080 -1.5765 -1.0814
 4637SOL     OW14753   4.634   3.462   7.680 -0.0256 -0.4740 -0.3711
 4637SOL    HW114754   4.566   3.394   7.683 -2.3601  1.6661 -1.0480
 4637SOL    HW214755   4.635   3.498   7.769  1.0481 -1.1825 -0.0752
 4638SOL     OW14756   8.153   0.934   7.220 -0.2809  0.3474 -0.0414
 4638SOL    HW114757   8.075   0.946   7.166  0.2470  1.7149 -0.5583
 4638SOL    HW214758   8.177   0.842   7.208 -1.4901  0.0519 -0.3031
 4639SOL     OW14759   4.806   0.118   1.025  0.3527 -0.1368 -0.2351
 4639SOL    HW114760   4.727   0.117   0.971  0.3905 -0.7108 -0.2887
 4639SOL    HW214761   4.804   0.203   1.069  0.1036  0.1655 -0.8152
 4640SOL     OW14762   0.057   0.531   7.409  0.4353 -0.7405  0.0709
 4640SOL    HW114763   0.120   0.467   7.376  1.1377 -1.5995  2.8568
 4640SOL    HW214764  -0.023   0.481   7.425 -0.0855 -0.2156 -0.7820
 4641SOL     OW14765   7.983   0.787   2.181 -0.8022 -0.2197  0.5012
 4641SOL    HW114766   7.926   0.712   2.193  2.3219 -3.1129 -0.8640
 4641SOL    HW214767   8.009   0.783   2.088  0.5954  1.6886  0.7292
 4642SOL     OW14768   2.082   0.860   5.480  0.4400  0.2801  0.4021
 4642SOL    HW114769   2.136   0.791   5.520  0.5640  0.9347  1.4011
 4642SOL    HW214770   2.105   0.859   5.388 -1.4680 -2.8307 -0.2018
 4643SOL     OW14771   5.991   1.848   4.662 -0.0776 -0.4113 -0.5144
 4643SOL    HW114772   5.929   1.915   4.633  0.4616  0.6506  0.6498
 4643SOL    HW214773   5.943   1.799   4.729  0.1706  0.1064  0.0501
 4644SOL     OW14774   3.400   5.526   1.980  0.0155 -0.3310  0.0859
 4644SOL    HW114775   3.487   5.525   2.019  0.1240  0.3942 -0.1287
 4644SOL    HW214776   3.415   5.514   1.886 -0.1530 -0.6986  0.1037
 4645SOL     OW14777   4.156   6.354   3.909 -0.0115 -0.0021 -0.1432
 4645SOL    HW114778   4.235   6.329   3.957 -0.4827 -0.2748  0.5035
 4645SOL    HW214779   4.183   6.355   3.817 -0.1205 -3.7111 -0.3573
 4646SOL     OW14780   8.009   6.122   1.463  0.0605 -0.0818  0.2785
 4646SOL    HW114781   7.989   6.192   1.401  0.0519  0.1623  0.5526
 4646SOL    HW214782   8.076   6.070   1.421 -0.0346  0.0117  0.0124
 4647SOL     OW14783   6.957   6.222   7.721 -0.0158 -0.6240  0.2349
 4647SOL    HW114784   7.035   6.229   7.776 -0.6759 -0.7146  1.2127
 4647SOL    HW214785   6.888   6.261   7.774 -0.4642  0.2675 -0.9864
 4648SOL     OW14786   6.485   2.418   5.695 -0.3738 -0.4961  0.2344
 4648SOL    HW114787   6.400   2.398   5.656 -0.9022 -0.1105  1.1588
 4648SOL    HW214788   6.546   2.359   5.651 -1.0526 -0.5478 -0.6784
 4649SOL     OW14789   2.054   4.834   6.580  0.5490  0.0208 -0.9581
 4649SOL    HW114790   2.040   4.863   6.670 -3.4184 -2.6629 -0.4479
 4649SOL    HW214791   2.009   4.899   6.526 -1.4190 -0.8846 -0.4886
 4650SOL     OW14792   3.934   3.706   4.894  0.0882 -0.4043 -0.4076
 4650SOL    HW114793   3.850   3.748   4.910  0.1468  0.6296 -2.5387
 4650SOL    HW214794   3.918   3.642   4.825  0.6879 -1.6611  0.5488
 4651SOL     OW14795   3.269   3.615   6.530  1.0874 -0.3801 -0.6682
 4651SOL    HW114796   3.213   3.673   6.582  3.0934 -1.6544  3.3290
 4651SOL    HW214797   3.318   3.674   6.473  0.1253  1.3938  0.2585
 4652SOL     OW14798   6.184   6.719   4.093 -0.4373  0.0919  0.3712
 4652SOL    HW114799   6.260   6.667   4.118 -0.7602 -0.5151  0.1090
 4652SOL    HW214800   6.205   6.751   4.004  0.6666  2.1687  1.2964
 4653SOL     OW14801   3.039   2.910   3.254  0.9135 -0.0555  0.3529
 4653SOL    HW114802   2.949   2.920   3.284  1.1554  1.7947  0.5871
 4653SOL    HW214803   3.089   2.970   3.309  2.4158 -1.5225  0.6710
 4654SOL     OW14804   5.967   4.338   5.157  0.2427 -0.6116 -0.7007
 4654SOL    HW114805   5.900   4.273   5.139  0.7266 -0.6645 -2.5409
 4654SOL    HW214806   6.043   4.287   5.186 -0.1972 -0.6275  0.4535
 4655SOL     OW14807   4.897   5.003   3.211  0.4646  0.4008  0.4987
 4655SOL    HW114808   4.866   5.025   3.123 -1.1039  0.1717  0.9667
 4655SOL    HW214809   4.945   4.921   3.200 -0.7703 -0.2877  0.0244
 4656SOL     OW14810   8.044   6.109   2.122 -0.2127 -0.1792  0.4792
 4656SOL    HW114811   8.040   6.052   2.199 -1.7122  2.2232  2.3124
 4656SOL    HW214812   8.043   6.198   2.158  3.5567  1.1754 -2.1359
 4657SOL     OW14813   3.233   4.614   5.416 -0.0616  0.3892  0.3938
 4657SOL    HW114814   3.302   4.676   5.392  0.6548 -1.0440 -1.5468
 4657SOL    HW214815   3.269   4.529   5.393 -2.1228 -0.4899  0.2367
 4658SOL     OW14816   5.706   8.103   3.831 -0.4079 -0.3614 -0.0779
 4658SOL    HW114817   5.621   8.062   3.812 -0.8220  0.0036  0.9094
 4658SOL    HW214818   5.716   8.169   3.762 -2.1312  1.3122  1.1984
 4659SOL     OW14819   0.158   1.475   3.324  0.0161 -0.2302 -0.2024
 4659SOL    HW114820   0.219   1.409   3.291  1.7851  0.3495  1.7685
 4659SOL    HW214821   0.148   1.455   3.417 -3.0483 -0.4423 -0.4675
 4660SOL     OW14822   5.735   6.659   0.961 -0.4954  0.2014  0.0851
 4660SOL    HW114823   5.813   6.636   0.912  0.2417  0.9547  0.8658
 4660SOL    HW214824   5.663   6.646   0.900  0.3900  1.0870 -1.1745
 4661SOL     OW14825   7.990   4.351   0.769 -0.2201  0.2549 -0.5313
 4661SOL    HW114826   7.943   4.272   0.798  0.3909 -0.2071 -0.7898
 4661SOL    HW214827   7.944   4.423   0.814 -0.9913 -0.2081 -0.5520
 4662SOL     OW14828   0.109   2.599   5.058  0.2315  0.4409 -0.1080
 4662SOL    HW114829   0.109   2.524   4.999  2.5087  0.0236  0.3250
 4662SOL    HW214830   0.191   2.645   5.038 -0.0283  1.5414  1.1975
 4663SOL     OW14831   6.778   7.835   2.904  0.2198  0.7537  0.8380
 4663SOL    HW114832   6.790   7.921   2.863 -1.0933  0.7976  0.5194
 4663SOL    HW214833   6.842   7.835   2.976  2.6533  0.6412 -1.1621
 4664SOL     OW14834   2.984   5.425   7.152 -0.0585 -0.4365 -0.6426
 4664SOL    HW114835   3.029   5.341   7.146 -0.7640 -0.7589 -2.0601
 4664SOL    HW214836   2.908   5.408   7.207  0.7215 -0.2716  0.5069
 4665SOL     OW14837   0.245   6.366   7.703 -0.2422  0.6690  0.0777
 4665SOL    HW114838   0.152   6.386   7.705 -0.2232  0.8699 -0.7343
 4665SOL    HW214839   0.267   6.363   7.610  0.6267  0.9339  0.2642
 4666SOL     OW14840   1.099   4.830   3.899 -0.3094 -0.0979  0.0003
 4666SOL    HW114841   1.090   4.740   3.866 -1.8119  0.0291 -0.0082
 4666SOL    HW214842   1.126   4.820   3.990 -2.2434 -0.6600  0.5672
 4667SOL     OW14843   5.092   2.537   3.267  0.0428 -0.2915  0.5981
 4667SOL    HW114844   5.122   2.627   3.272 -0.8665  0.0260  0.4631
 4667SOL    HW214845   5.122   2.496   3.348  1.3193 -0.1520  0.2256
 4668SOL     OW14846   7.402   1.498   4.817 -0.2693  0.2889  0.2942
 4668SOL    HW114847   7.310   1.476   4.802 -0.3455 -0.4619  1.6924
 4668SOL    HW214848   7.407   1.514   4.911  1.0035  0.5123  0.1994
 4669SOL     OW14849   7.302   7.047   3.412  0.1990  0.4837 -0.1295
 4669SOL    HW114850   7.371   7.075   3.351 -1.0390 -0.2919 -1.9804
 4669SOL    HW214851   7.221   7.052   3.360 -0.6478 -2.2975  0.7834
 4670SOL     OW14852   4.519   1.086   6.740  0.1253  0.2810  0.4435
 4670SOL    HW114853   4.513   1.044   6.655  0.6206 -0.9308  0.9815
 4670SOL    HW214854   4.431   1.077   6.777 -0.2325  1.2824 -0.1428
 4671SOL     OW14855   2.726   6.974   6.915 -0.0423  0.6420 -0.3319
 4671SOL    HW114856   2.654   6.982   6.977  0.9989  1.6326  0.8001
 4671SOL    HW214857   2.772   7.058   6.921  1.2596 -0.0057 -0.9597
 4672SOL     OW14858   7.705   2.008   5.797 -0.1584  0.2451  0.3960
 4672SOL    HW114859   7.776   2.054   5.751  0.5905 -0.5224  0.7448
 4672SOL    HW214860   7.739   1.919   5.809 -0.8945  0.0646  1.2244
 4673SOL     OW14861   7.947   2.980   0.122  0.1546  0.3587 -0.1264
 4673SOL    HW114862   7.929   2.997   0.029  0.3093 -0.6179 -0.3436
 4673SOL    HW214863   8.013   3.045   0.145 -1.0346  1.6579 -0.2580
 4674SOL     OW14864   1.157   3.386   7.965  0.0383 -0.0048  0.1212
 4674SOL    HW114865   1.161   3.292   7.986 -0.6779 -0.5016 -1.7744
 4674SOL    HW214866   1.222   3.426   8.023  1.0247 -1.8064  0.3454
 4675SOL     OW14867   7.113   3.335   3.891 -0.1415 -0.2345 -0.6366
 4675SOL    HW114868   7.044   3.307   3.951 -0.3429 -1.0554 -1.2341
 4675SOL    HW214869   7.112   3.430   3.896 -0.6045 -0.2714  0.1504
 4676SOL     OW14870   7.247   4.168   3.157  0.1316 -0.5513  0.0150
 4676SOL    HW114871   7.255   4.200   3.247  0.2374  1.0312 -0.5224
 4676SOL    HW214872   7.158   4.190   3.131  0.9786  1.7675 -1.2143
 4677SOL     OW14873   1.452   0.450   4.072 -0.6025  0.5055 -0.3228
 4677SOL    HW114874   1.466   0.356   4.057  1.0457  0.6402  0.2228
 4677SOL    HW214875   1.403   0.454   4.154 -2.3143  0.0996 -1.2527
 4678SOL     OW14876   0.618   5.417   2.308 -0.4435 -0.2932 -0.5062
 4678SOL    HW114877   0.684   5.467   2.357 -0.6098 -0.1412 -0.4341
 4678SOL    HW214878   0.658   5.331   2.295  0.0121 -0.0104 -0.9956
 4679SOL     OW14879   0.394   7.547   3.109 -0.0005  0.2350 -0.2907
 4679SOL    HW114880   0.385   7.523   3.201 -0.7639  1.2947 -0.0719
 4679SOL    HW214881   0.488   7.546   3.092  0.1277 -0.2348  0.4240
 4680SOL     OW14882   2.802   0.349   5.595  0.6337 -0.0613  0.3134
 4680SOL    HW114883   2.834   0.278   5.651  1.3639  1.7052  2.2726
 4680SOL    HW214884   2.715   0.369   5.629  0.5562  0.1809 -0.0253
 4681SOL     OW14885   0.032   0.543   3.604  0.1870  0.3008  0.3059
 4681SOL    HW114886  -0.046   0.582   3.643 -0.2902 -1.4297  1.1261
 4681SOL    HW214887   0.079   0.502   3.677  0.3303 -1.2306 -0.5991
 4682SOL     OW14888   2.478   6.503   2.102  0.2842  0.0707 -0.2379
 4682SOL    HW114889   2.558   6.520   2.052  0.6917  1.1970  0.7757
 4682SOL    HW214890   2.410   6.494   2.035  0.8541  1.3287 -1.0141
 4683SOL     OW14891   7.886   4.083   0.485 -0.1331 -0.2088 -0.2987
 4683SOL    HW114892   7.860   4.068   0.576  0.5792 -0.8044 -0.1815
 4683SOL    HW214893   7.892   3.995   0.447 -0.0699  0.0168 -0.8241
 4684SOL     OW14894   4.239   3.528   2.021  0.1836  0.2173 -0.4331
 4684SOL    HW114895   4.185   3.536   2.099  0.5923  0.5603 -0.1813
 4684SOL    HW214896   4.312   3.472   2.048 -0.4170 -0.8622 -0.9784
 4685SOL     OW14897   0.970   2.976   1.565 -0.4374 -0.0083 -0.2282
 4685SOL    HW114898   0.978   2.985   1.660  1.2202 -0.3011 -0.3139
 4685SOL    HW214899   1.027   3.045   1.530  1.9757 -2.2275 -0.9549
 4686SOL     OW14900   5.102   1.007   6.810  0.1059 -0.2246 -0.1054
 4686SOL    HW114901   5.139   1.088   6.845  0.5487 -0.9141  1.0804
 4686SOL    HW214902   5.077   0.957   6.888 -1.0873 -0.8085 -0.8443
 4687SOL     OW14903   5.064   6.264   6.444 -0.0910 -0.0048  0.0489
 4687SOL    HW114904   5.073   6.354   6.413 -1.3594  0.1578  0.0966
 4687SOL    HW214905   4.970   6.246   6.439  0.1341 -1.3105  0.0992
 4688SOL     OW14906   8.145   3.648   3.884 -0.1434  0.0908  0.6610
 4688SOL    HW114907   8.132   3.698   3.964 -2.0194  1.3941 -0.3810
 4688SOL    HW214908   8.156   3.714   3.816  1.4458 -0.9942 -0.1741
 4689SOL     OW14909   7.815   2.005   3.594  0.7462 -0.4499  0.0673
 4689SOL    HW114910   7.900   2.037   3.564  0.7112 -0.9588 -0.6216
 4689SOL    HW214911   7.761   2.083   3.601  0.1964 -0.4137 -3.0616
 4690SOL     OW14912   2.606   2.274   1.259 -0.6880  0.1376 -0.7189
 4690SOL    HW114913   2.645   2.295   1.174  4.0996 -1.1095  0.8580
 4690SOL    HW214914   2.618   2.180   1.269 -1.0543  0.2661  1.3710
 4691SOL     OW14915   0.253   7.646   6.361 -0.4812  0.3305 -0.0567
 4691SOL    HW114916   0.348   7.649   6.349 -0.5210  1.2618 -0.1867
 4691SOL    HW214917   0.227   7.737   6.377 -1.3590  0.0968 -0.0811
 4692SOL     OW14918   8.021   2.134   7.237 -0.7335 -0.4131 -0.4174
 4692SOL    HW114919   8.046   2.220   7.271 -2.7324 -0.1561  0.5529
 4692SOL    HW214920   8.059   2.072   7.299  1.3324 -0.3185 -1.5203
 4693SOL     OW14921   2.551   5.290   0.193  0.0625 -0.1980 -0.3883
 4693SOL    HW114922   2.462   5.307   0.160 -0.0026 -0.8657 -0.5745
 4693SOL    HW214923   2.607   5.299   0.117  0.2839  1.1789 -0.0801
 4694SOL     OW14924   0.336   4.290   6.185  0.3010 -0.5087  0.7106
 4694SOL    HW114925   0.407   4.251   6.134  0.6798  1.6024 -0.4757
 4694SOL    HW214926   0.257   4.270   6.134  0.6761  1.5764 -0.8147
 4695SOL     OW14927   4.198   4.808   5.211  0.2930 -0.1135 -0.4227
 4695SOL    HW114928   4.245   4.726   5.227 -0.6311 -0.9112 -1.6406
 4695SOL    HW214929   4.132   4.812   5.280 -0.2112 -0.8386 -0.8541
 4696SOL     OW14930   1.606   2.663   2.698 -0.0023 -0.0586 -0.1957
 4696SOL    HW114931   1.586   2.666   2.791  0.3020  2.1600 -0.1336
 4696SOL    HW214932   1.527   2.630   2.656 -1.4766  2.2600  0.5880
 4697SOL     OW14933   3.040   1.206   7.265  0.0019 -0.5178  0.4655
 4697SOL    HW114934   3.038   1.296   7.233 -0.1070 -0.5489  0.3867
 4697SOL    HW214935   2.991   1.209   7.347  1.6980 -0.0856  1.5198
 4698SOL     OW14936   1.782   7.261   7.381 -0.4226  0.3337  0.2853
 4698SOL    HW114937   1.848   7.219   7.436  1.6369  2.2077 -0.5627
 4698SOL    HW214938   1.800   7.229   7.293 -0.8937  0.5954  0.0891
 4699SOL     OW14939   2.522   3.241   4.370 -0.2113 -0.2471 -0.6594
 4699SOL    HW114940   2.442   3.188   4.369 -1.2345  1.1971 -2.3308
 4699SOL    HW214941   2.490   3.331   4.375  1.4307  0.2897  1.0409
 4700SOL     OW14942   1.002   7.167   0.681 -0.0543 -0.3398 -0.1413
 4700SOL    HW114943   1.006   7.218   0.600  0.6236  0.5711  0.4365
 4700SOL    HW214944   0.933   7.209   0.733  2.2326  1.8172  1.4457
 4701SOL     OW14945   2.020   6.401   7.712  0.1188 -0.6231 -0.0218
 4701SOL    HW114946   2.097   6.429   7.662  0.5063  1.0778  1.4745
 4701SOL    HW214947   1.991   6.479   7.758 -1.1295 -1.7952  1.2599
 4702SOL     OW14948   0.607   4.254   1.753 -0.0488  0.1635  0.2333
 4702SOL    HW114949   0.570   4.319   1.694  1.0185  0.9674  0.4182
 4702SOL    HW214950   0.559   4.173   1.733 -1.4480  1.0090  0.0632
 4703SOL     OW14951   1.768   6.193   4.855  0.0003  0.1870  0.2167
 4703SOL    HW114952   1.858   6.183   4.824  0.2822  2.2395  0.2115
 4703SOL    HW214953   1.734   6.269   4.807 -0.9894  0.8043  1.8032
 4704SOL     OW14954   5.530   5.948   1.018  0.3722  0.0316 -0.7519
 4704SOL    HW114955   5.507   5.856   1.034  2.7453 -0.1382  3.0174
 4704SOL    HW214956   5.595   5.944   0.948 -0.0769 -1.0469 -1.1394
 4705SOL     OW14957   6.363   4.382   3.361 -0.1400  0.2549 -0.1110
 4705SOL    HW114958   6.367   4.441   3.437 -0.5026  0.6505 -0.3937
 4705SOL    HW214959   6.441   4.404   3.310 -0.1565  0.3334 -0.1029
 4706SOL     OW14960   4.765   6.754   8.113  0.2362  0.1485  0.0412
 4706SOL    HW114961   4.778   6.688   8.044  0.4551 -0.0510  0.2695
 4706SOL    HW214962   4.730   6.705   8.187  0.1564  0.3344  0.1274
 4707SOL     OW14963   6.310   2.239   1.747 -0.4970 -0.3538 -0.2587
 4707SOL    HW114964   6.298   2.329   1.777 -0.3146 -0.7421  1.0820
 4707SOL    HW214965   6.239   2.190   1.788 -0.1499 -0.9458 -0.3426
 4708SOL     OW14966   8.045   1.039   3.276 -0.6544  0.9597  0.1881
 4708SOL    HW114967   7.959   1.026   3.317 -0.6063  0.3707  0.1150
 4708SOL    HW214968   8.066   1.131   3.293 -1.6210  1.3101 -0.3974
 4709SOL     OW14969   3.905   1.589   5.934  0.3764 -0.1383  0.3401
 4709SOL    HW114970   3.861   1.509   5.907  1.2345 -0.3489 -0.4789
 4709SOL    HW214971   3.996   1.577   5.907  0.1778  1.8676 -1.5033
 4710SOL     OW14972   0.742   0.554   2.884 -0.3571  0.2820  0.4122
 4710SOL    HW114973   0.650   0.578   2.871 -0.4889  0.6117  1.7873
 4710SOL    HW214974   0.780   0.555   2.796 -1.9225 -1.0112 -0.3396
 4711SOL     OW14975   2.140   0.035   6.530  0.0069  0.2743  0.3812
 4711SOL    HW114976   2.204   0.106   6.529  2.9345 -2.1027  2.6128
 4711SOL    HW214977   2.123   0.017   6.437  3.6190  0.2756 -0.4378
 4712SOL     OW14978   6.552   7.984   4.423  0.2535  0.0036  0.3488
 4712SOL    HW114979   6.464   7.961   4.455 -0.0507  0.0697 -0.4125
 4712SOL    HW214980   6.596   7.900   4.413 -0.1922 -0.1333 -0.5637
 4713SOL     OW14981   5.000   2.888   3.076  1.0271 -0.1035 -0.1674
 4713SOL    HW114982   5.034   2.820   3.017  0.7942  0.7124 -1.2874
 4713SOL    HW214983   4.993   2.966   3.020 -0.7360  0.2862  0.5360
 4714SOL     OW14984   8.133   2.005   5.499  0.3784 -0.0764  0.1020
 4714SOL    HW114985   8.118   1.962   5.414 -1.5440  0.8734 -0.0931
 4714SOL    HW214986   8.206   2.065   5.482 -0.0393  0.1713 -0.9336
 4715SOL     OW14987   6.864   3.435   7.620  0.0515  0.0239  0.0822
 4715SOL    HW114988   6.923   3.377   7.668 -0.6919 -0.5718  0.2905
 4715SOL    HW214989   6.802   3.467   7.686  0.7617  1.4872  0.0768
 4716SOL     OW14990   2.407   3.346   0.167 -0.1644 -0.5121  0.0987
 4716SOL    HW114991   2.361   3.331   0.085 -0.8924  1.1011  0.1758
 4716SOL    HW214992   2.493   3.378   0.140 -1.3903  2.9838 -0.1645
 4717SOL     OW14993   6.071   6.241   3.798 -0.1305  0.3188 -0.5134
 4717SOL    HW114994   6.163   6.214   3.804 -0.6380 -1.2761  1.6379
 4717SOL    HW214995   6.040   6.203   3.716  0.5119 -1.4594  0.0158
 4718SOL     OW14996   3.813   7.891   2.397 -0.1706  0.0738 -0.3817
 4718SOL    HW114997   3.893   7.898   2.448  0.4064 -0.2335 -1.2287
 4718SOL    HW214998   3.840   7.906   2.307 -1.2998  1.3963 -0.5345
 4719SOL     OW14999   6.740   6.594   5.641  0.3174 -0.7966  0.1779
 4719SOL    HW115000   6.835   6.586   5.634  0.4314  0.6082 -0.2331
 4719SOL    HW215001   6.726   6.638   5.725  0.1905  0.8867 -0.6754
 4720SOL     OW15002   7.275   7.408   7.104 -0.1922  0.1696 -0.0358
 4720SOL    HW115003   7.311   7.496   7.101 -0.6570  0.3597 -0.1188
 4720SOL    HW215004   7.190   7.418   7.147 -0.9338  0.0158 -1.3909
 4721SOL     OW15005   5.944   6.153   1.541 -0.5891 -0.7835  0.0279
 4721SOL    HW115006   5.933   6.231   1.488  0.3573 -0.8413 -0.2764
 4721SOL    HW215007   5.913   6.081   1.485 -0.7577 -0.7057  0.0235
 4722SOL     OW15008   5.581   1.664   7.115 -0.2106 -0.1329  0.1722
 4722SOL    HW115009   5.551   1.754   7.101  0.8566 -0.1686 -3.3572
 4722SOL    HW215010   5.512   1.610   7.076 -0.3433 -0.8356  1.3347
 4723SOL     OW15011   4.690   5.128   5.710  0.5348  0.2322  0.1208
 4723SOL    HW115012   4.767   5.092   5.753  0.6845  1.9805  1.4305
 4723SOL    HW215013   4.618   5.072   5.740  1.1937 -1.0235 -0.6092
 4724SOL     OW15014   7.885   2.852   3.670 -0.2009  0.3287  0.3975
 4724SOL    HW115015   7.832   2.775   3.686  0.0220  0.4951  2.0948
 4724SOL    HW215016   7.865   2.911   3.743  0.8755  1.1707  0.0403
 4725SOL     OW15017   0.198   5.000   1.433  0.4203 -0.7581  0.3561
 4725SOL    HW115018   0.225   5.040   1.351 -1.3069 -2.3485 -1.0793
 4725SOL    HW215019   0.168   5.073   1.487 -2.6763  0.0516 -2.1775
 4726SOL     OW15020   5.436   2.209   7.902  0.3974  0.4315 -0.3349
 4726SOL    HW115021   5.487   2.205   7.982  0.8056  0.6975 -0.5791
 4726SOL    HW215022   5.355   2.163   7.923  1.2006 -1.0244 -0.2871
 4727SOL     OW15023   4.065   7.334   8.114  0.1856  0.1228 -0.1283
 4727SOL    HW115024   4.077   7.410   8.170  4.1191 -1.3063  1.2853
 4727SOL    HW215025   4.013   7.273   8.167  0.4942  0.2929  0.3703
 4728SOL     OW15026   3.301   3.867   5.175  0.3306 -0.1070  0.3200
 4728SOL    HW115027   3.360   3.839   5.105  0.8945  0.9617  0.3369
 4728SOL    HW215028   3.330   3.817   5.251  2.4878  1.6758  0.7883
 4729SOL     OW15029   5.841   0.433   4.147  0.4025 -0.1355 -0.1801
 4729SOL    HW115030   5.777   0.461   4.082 -0.1624 -0.1122  0.3755
 4729SOL    HW215031   5.922   0.478   4.123  0.0593  0.2885 -0.5518
 4730SOL     OW15032   5.592   4.075   7.686  0.1133  0.1449  0.1785
 4730SOL    HW115033   5.651   4.072   7.611 -1.0254 -1.1626 -0.7029
 4730SOL    HW215034   5.526   4.009   7.668 -1.4469  1.3202  1.3112
 4731SOL     OW15035   5.241   2.474   6.015  0.2031  0.4320  0.2139
 4731SOL    HW115036   5.228   2.393   6.064  0.8230  0.0516 -0.2427
 4731SOL    HW215037   5.279   2.447   5.932 -1.3193  1.0143 -0.7220
 4732SOL     OW15038   2.102   6.469   6.021  0.5428 -0.3728  0.6254
 4732SOL    HW115039   2.039   6.408   6.059 -0.7487  1.7310  2.0818
 4732SOL    HW215040   2.055   6.511   5.949 -0.2251  1.9815  2.3859
 4733SOL     OW15041   2.388   5.457   3.634  0.0220 -0.0987  0.1729
 4733SOL    HW115042   2.364   5.384   3.690 -1.8692  2.0685  2.3825
 4733SOL    HW215043   2.306   5.484   3.593 -0.4057  3.5285  2.9881
 4734SOL     OW15044   2.786   3.280   5.854  0.4776 -0.3979  0.1362
 4734SOL    HW115045   2.712   3.233   5.815 -0.1448  0.6266  0.0509
 4734SOL    HW215046   2.861   3.257   5.798 -0.3087  0.6742 -1.4097
 4735SOL     OW15047   6.044   7.014   0.919  0.1410 -0.4811 -0.5439
 4735SOL    HW115048   6.068   7.062   0.840 -2.1465 -2.1266 -2.3775
 4735SOL    HW215049   5.952   7.035   0.933  0.3367 -0.7162  1.3636
 4736SOL     OW15050   5.463   7.415   8.213  0.1362  0.4275 -0.1855
 4736SOL    HW115051   5.390   7.390   8.156  0.1627 -2.1686  0.7918
 4736SOL    HW215052   5.441   7.377   8.298  1.9251  0.9050  0.5343
 4737SOL     OW15053   1.639   5.502   2.753 -0.2890  0.2127 -0.3108
 4737SOL    HW115054   1.734   5.511   2.745 -0.3537 -0.5617 -2.5958
 4737SOL    HW215055   1.604   5.571   2.697 -1.0563 -0.1339 -0.2725
 4738SOL     OW15056   5.531   7.400   6.275 -0.0315  0.0103 -0.1992
 4738SOL    HW115057   5.600   7.462   6.299  0.3572  0.7541 -2.9186
 4738SOL    HW215058   5.568   7.314   6.296  1.3245  0.4590 -0.6069
 4739SOL     OW15059   0.557   7.962   4.113 -0.6090 -0.2320  0.4304
 4739SOL    HW115060   0.593   7.961   4.202 -0.7004 -2.9973  0.5125
 4739SOL    HW215061   0.614   7.905   4.063 -1.1966  0.4297 -1.0382
 4740SOL     OW15062   3.627   4.156   3.256  0.2824 -0.4372  0.3294
 4740SOL    HW115063   3.692   4.157   3.327  0.5678  1.9169  0.1046
 4740SOL    HW215064   3.679   4.153   3.176  0.0626 -0.0584  0.1721
 4741SOL     OW15065   7.925   6.689   6.035  0.3194  0.3676  0.2631
 4741SOL    HW115066   7.874   6.738   5.971  2.7656  0.1401 -2.0528
 4741SOL    HW215067   7.945   6.606   5.992  1.1017 -0.2863  1.8018
 4742SOL     OW15068   4.460   5.842   3.494  0.0182  0.1569 -0.3650
 4742SOL    HW115069   4.546   5.800   3.491 -0.0178 -0.0177  0.7022
 4742SOL    HW215070   4.423   5.814   3.578 -1.3837 -0.3507 -1.1260
 4743SOL     OW15071   1.791   6.334   8.176 -0.2201  0.4997  0.0576
 4743SOL    HW115072   1.769   6.275   8.104 -0.8776 -0.2868  0.8724
 4743SOL    HW215073   1.727   6.312   8.245  1.0840  0.4380  1.2932
 4744SOL     OW15074   7.487   0.374   1.968 -0.5537  0.3641 -0.0537
 4744SOL    HW115075   7.493   0.342   2.058  0.3820  2.3091  0.6328
 4744SOL    HW215076   7.570   0.350   1.928 -0.1862  1.1799  0.2085
 4745SOL     OW15077   2.695   0.001   1.804  0.4924 -0.7447 -0.2414
 4745SOL    HW115078   2.731  -0.023   1.890 -0.1194  0.8142  0.4758
 4745SOL    HW215079   2.609   0.038   1.823  0.0218 -1.0742 -1.6097
 4746SOL     OW15080   5.120   7.818   6.903  0.4241 -0.3234  0.2338
 4746SOL    HW115081   5.077   7.889   6.855  1.3292  0.3216  0.3507
 4746SOL    HW215082   5.147   7.756   6.836  0.8057  0.0917  0.0033
 4747SOL     OW15083   7.505   6.212   7.603  0.1231 -0.1040 -0.7702
 4747SOL    HW115084   7.461   6.265   7.537 -0.1330 -0.2992 -0.7543
 4747SOL    HW215085   7.597   6.238   7.596 -0.1906  1.4783  0.2717
 4748SOL     OW15086   7.547   8.105   6.354 -0.5960  0.1628 -0.4433
 4748SOL    HW115087   7.567   8.176   6.293  0.3865  0.8109  0.5851
 4748SOL    HW215088   7.499   8.147   6.425  0.6339 -0.0176  0.5398
 4749SOL     OW15089   7.897   4.129   2.517  0.1928 -0.1755 -0.2499
 4749SOL    HW115090   7.803   4.137   2.534  0.0435  2.3772 -1.7494
 4749SOL    HW215091   7.902   4.089   2.430  0.5679 -1.5305  0.3731
 4750SOL     OW15092   0.317   0.580   6.932 -0.6283  0.4956  0.1231
 4750SOL    HW115093   0.305   0.585   6.837  0.7699  1.1017 -0.0406
 4750SOL    HW215094   0.232   0.550   6.965 -0.8289 -0.7745 -1.4081
 4751SOL     OW15095   7.241   0.554   3.367  0.5874  0.3041 -0.5749
 4751SOL    HW115096   7.212   0.572   3.278  0.7995  0.9982 -0.5035
 4751SOL    HW215097   7.164   0.516   3.410  0.7352 -0.8484 -1.2854
 4752SOL     OW15098   6.283   6.636   0.127  0.1443  0.9216  0.2023
 4752SOL    HW115099   6.209   6.579   0.148 -0.0624  0.8180 -0.7450
 4752SOL    HW215100   6.266   6.666   0.037  0.1324  2.6635  0.7403
 4753SOL     OW15101   3.130   0.867   0.986 -0.2453  0.2199  0.0264
 4753SOL    HW115102   3.179   0.888   0.906  0.3225 -0.1628  0.2597
 4753SOL    HW215103   3.176   0.914   1.055  0.5462 -1.0632  0.4263
 4754SOL     OW15104   3.697   0.729   2.791 -0.1207 -0.1816 -0.0747
 4754SOL    HW115105   3.788   0.712   2.816  0.0534  2.2952  1.2585
 4754SOL    HW215106   3.692   0.700   2.700  2.0082 -0.3067 -0.2186
 4755SOL     OW15107   7.342   3.083   4.438 -0.1402  0.5270 -0.2469
 4755SOL    HW115108   7.423   3.031   4.440  0.2453  1.0702 -1.2571
 4755SOL    HW215109   7.281   3.034   4.493 -0.0995 -1.5255 -1.9117
 4756SOL     OW15110   1.279   1.240   5.663  0.3169 -0.3157  0.0599
 4756SOL    HW115111   1.354   1.299   5.672 -0.4241  0.7494 -0.5967
 4756SOL    HW215112   1.279   1.190   5.745  2.7171 -1.5475 -0.5921
 4757SOL     OW15113   0.987   6.506   8.146 -0.2391 -0.0609 -0.3590
 4757SOL    HW115114   1.054   6.449   8.185 -1.9032 -0.1367  2.7134
 4757SOL    HW215115   1.018   6.595   8.164  0.2752 -0.0536 -1.2685
 4758SOL     OW15116   7.010   4.827   2.970 -0.1800  0.3878  0.0509
 4758SOL    HW115117   7.060   4.761   3.020 -0.2080  0.4875  0.2120
 4758SOL    HW215118   6.976   4.779   2.895 -0.8832  0.0240  0.5936
 4759SOL     OW15119   7.220   4.158   2.639 -0.3969 -0.0562 -0.4339
 4759SOL    HW115120   7.187   4.126   2.555 -2.5848  0.3527  0.2238
 4759SOL    HW215121   7.243   4.249   2.623  0.8998 -0.4489 -0.9916
 4760SOL     OW15122   0.661   2.263   2.865  0.2777 -0.4863 -0.1727
 4760SOL    HW115123   0.568   2.240   2.865  0.5889 -1.8451 -1.2743
 4760SOL    HW215124   0.703   2.195   2.918  0.4584  1.2344  2.0707
 4761SOL     OW15125   5.326   5.236   7.254  0.6733  0.5243 -0.0116
 4761SOL    HW115126   5.340   5.280   7.171 -1.9464 -1.5359 -1.7241
 4761SOL    HW215127   5.366   5.150   7.242 -0.5641 -0.1440  0.4173
 4762SOL     OW15128   6.660   0.735   4.350 -0.9169  0.1617  0.4826
 4762SOL    HW115129   6.723   0.777   4.291 -0.6540  0.1855  0.7729
 4762SOL    HW215130   6.575   0.770   4.324 -1.0352 -1.1357 -1.0300
 4763SOL     OW15131   4.193   0.680   1.715 -0.0559  0.1432  0.2090
 4763SOL    HW115132   4.236   0.595   1.705 -0.8153 -0.3174  0.7709
 4763SOL    HW215133   4.265   0.743   1.716  0.4996 -0.4619 -0.5130
 4764SOL     OW15134   0.995   7.321   1.238  0.1748 -0.0685  0.2325
 4764SOL    HW115135   0.968   7.409   1.215 -1.7290 -0.8508 -0.7095
 4764SOL    HW215136   1.040   7.331   1.322 -0.6264  1.7011  0.4948
 4765SOL     OW15137   7.211   6.515   5.563 -0.5406  0.0813  0.1150
 4765SOL    HW115138   7.303   6.493   5.552 -0.1986  2.0435 -1.5727
 4765SOL    HW215139   7.168   6.431   5.578  1.3203 -1.0547 -0.5622
 4766SOL     OW15140   2.477   2.148   7.404  0.1294  0.5191 -0.9011
 4766SOL    HW115141   2.447   2.236   7.427 -0.0176  0.1769  0.2817
 4766SOL    HW215142   2.407   2.112   7.350 -1.4033 -0.0551  1.3413
 4767SOL     OW15143   5.657   8.147   2.407  0.5218 -0.1217  0.1973
 4767SOL    HW115144   5.693   8.068   2.448 -0.8623 -0.1082  1.5290
 4767SOL    HW215145   5.642   8.122   2.316  1.7772 -0.8068  0.1509
 4768SOL     OW15146   2.978   5.337   5.904  0.4334  0.0828 -0.6003
 4768SOL    HW115147   2.949   5.400   5.838 -1.4210  0.0818  0.1469
 4768SOL    HW215148   2.899   5.287   5.925  0.7183  0.6563  2.2285
 4769SOL     OW15149   7.115   5.306   5.439  0.5187  0.3915 -0.2081
 4769SOL    HW115150   7.127   5.254   5.360  2.0200  1.5250 -0.7761
 4769SOL    HW215151   7.034   5.355   5.423 -2.6476 -3.6261  1.5224
 4770SOL     OW15152   5.549   1.287   6.887 -0.4720 -0.4966  0.4235
 4770SOL    HW115153   5.558   1.306   6.794 -1.2064  0.9736  0.6290
 4770SOL    HW215154   5.491   1.212   6.891 -1.6166  0.3081 -0.2826
 4771SOL     OW15155   7.923   1.316   4.658 -0.0734  0.4252 -0.4971
 4771SOL    HW115156   7.885   1.300   4.572  0.8818 -1.1726 -0.6506
 4771SOL    HW215157   7.995   1.377   4.642 -0.9368  1.4698 -0.5540
 4772SOL     OW15158   6.773   0.291   8.195 -0.2563  0.3554  0.1986
 4772SOL    HW115159   6.811   0.341   8.268 -2.1956  2.7327 -0.2913
 4772SOL    HW215160   6.810   0.331   8.117 -0.9931  0.2941 -0.1891
 4773SOL     OW15161   0.548   3.068   2.524  0.2140 -0.0613 -0.3711
 4773SOL    HW115162   0.493   2.999   2.488 -0.2298 -0.0679  0.3017
 4773SOL    HW215163   0.488   3.141   2.539  0.2811 -0.2397  0.8396
 4774SOL     OW15164   5.165   8.170   0.361 -0.0858  0.6674  0.1506
 4774SOL    HW115165   5.218   8.128   0.429 -1.2881  0.2086  0.8318
 4774SOL    HW215166   5.204   8.257   0.351 -0.3745  1.0580  2.0217
 4775SOL     OW15167   6.110   5.186   5.957 -0.0573  0.0318  0.5055
 4775SOL    HW115168   6.027   5.220   5.990 -0.6412 -0.4867 -0.4257
 4775SOL    HW215169   6.127   5.236   5.877 -0.8784 -1.7399 -0.8391
 4776SOL     OW15170   6.367   0.081   2.249 -0.3945  0.0640 -0.4254
 4776SOL    HW115171   6.456   0.106   2.225 -0.2024  0.2321  0.4521
 4776SOL    HW215172   6.366  -0.015   2.241  0.3829 -0.1136  1.2323
 4777SOL     OW15173   1.662   6.929   5.200 -0.1582  0.2456 -0.4291
 4777SOL    HW115174   1.616   6.964   5.277  0.2972  1.7796 -0.8224
 4777SOL    HW215175   1.609   6.958   5.126  0.8700  1.1656 -0.8276
 4778SOL     OW15176   1.685   7.427   8.101  0.1981 -0.5149 -0.4169
 4778SOL    HW115177   1.648   7.468   8.022 -0.4239 -1.8554 -0.8416
 4778SOL    HW215178   1.670   7.492   8.170 -0.8612 -0.0600 -1.0439
 4779SOL     OW15179   8.065   2.970   7.066 -0.0615  0.2525  0.4545
 4779SOL    HW115180   7.999   2.967   7.135 -1.2621 -0.5873 -0.6854
 4779SOL    HW215181   8.055   3.057   7.027 -2.3308 -0.6865 -1.3456
 4780SOL     OW15182   0.787   0.082   4.651  0.3770  0.1873 -0.8260
 4780SOL    HW115183   0.796   0.017   4.582  0.8892  0.8369 -1.3809
 4780SOL    HW215184   0.698   0.114   4.643 -0.1212 -0.9425 -0.0880
 4781SOL     OW15185   3.770   2.470   7.909 -0.2218  0.6038 -0.0110
 4781SOL    HW115186   3.719   2.390   7.893 -0.9753  0.7941  1.3437
 4781SOL    HW215187   3.706   2.541   7.907  0.3136  1.0845 -0.3487
 4782SOL     OW15188   0.070   1.141   0.762  0.6993 -0.4228 -0.3651
 4782SOL    HW115189  -0.023   1.118   0.758  0.9165 -1.1439 -1.7858
 4782SOL    HW215190   0.075   1.229   0.725  0.5324 -0.1745  0.1879
 4783SOL     OW15191   2.060   2.072   4.528 -0.4195  0.1093 -0.4713
 4783SOL    HW115192   1.978   2.025   4.543  0.1778 -0.3544  1.7610
 4783SOL    HW215193   2.109   2.017   4.467 -0.3847 -1.4531  0.8825
 4784SOL     OW15194   0.257   3.407   5.991 -0.2722 -0.1810 -0.7060
 4784SOL    HW115195   0.267   3.313   6.005 -1.2541  0.0195  1.9551
 4784SOL    HW215196   0.162   3.421   5.990 -0.1437  0.7502 -1.6139
 4785SOL     OW15197   0.616   3.020   4.646 -0.1881  0.0831 -0.3121
 4785SOL    HW115198   0.583   2.990   4.731 -2.1266 -0.0839 -1.0662
 4785SOL    HW215199   0.689   2.962   4.626  2.1142  1.7511  2.3895
 4786SOL     OW15200   8.204   3.889   4.535 -0.7612  0.1023 -0.1913
 4786SOL    HW115201   8.179   3.844   4.454 -2.6142 -1.0504  0.9765
 4786SOL    HW215202   8.199   3.822   4.603  0.3105  1.1665  0.9975
 4787SOL     OW15203   1.324   6.381   1.835 -0.2767  0.4956 -0.7637
 4787SOL    HW115204   1.375   6.322   1.890  0.3714  0.6826 -1.1507
 4787SOL    HW215205   1.293   6.325   1.763 -2.0278  0.0020  0.3131
 4788SOL     OW15206   4.725   3.552   3.083  0.4133  0.6041  0.5386
 4788SOL    HW115207   4.790   3.578   3.148  0.6969  0.5180  0.2913
 4788SOL    HW215208   4.756   3.590   3.001 -0.9410  2.3649  0.7727
 4789SOL     OW15209   4.036   5.748   6.624  0.6655 -0.4868  0.2704
 4789SOL    HW115210   4.048   5.744   6.529 -0.0499  0.9649  0.0870
 4789SOL    HW215211   3.941   5.742   6.636  0.7314 -0.3647  0.8718
 4790SOL     OW15212   5.068   2.507   4.515  0.8249 -0.2347 -0.0496
 4790SOL    HW115213   5.018   2.446   4.569  2.2965 -0.9108  0.6225
 4790SOL    HW215214   5.160   2.482   4.529  1.3042 -0.2042 -2.5954
 4791SOL     OW15215   7.185   0.486   7.506 -0.3509 -0.6937  0.0879
 4791SOL    HW115216   7.128   0.445   7.571 -0.5068 -0.0096  0.3933
 4791SOL    HW215217   7.274   0.473   7.540 -0.3297 -1.5917 -0.2905
 4792SOL     OW15218   7.263   7.270   3.928 -0.6049 -0.9889 -0.3785
 4792SOL    HW115219   7.292   7.239   3.842 -0.7295  0.3748 -0.9537
 4792SOL    HW215220   7.186   7.217   3.948 -0.5566 -1.3450 -1.1073
 4793SOL     OW15221   2.644   3.486   3.471 -0.1688 -0.1540  0.3855
 4793SOL    HW115222   2.675   3.506   3.382  2.8510 -0.1678  1.3253
 4793SOL    HW215223   2.661   3.567   3.520 -4.0222  0.7327  0.5861
 4794SOL     OW15224   6.951   7.160   6.369  0.4905 -0.2609  0.6012
 4794SOL    HW115225   6.946   7.164   6.274 -2.6337  0.3648  0.6851
 4794SOL    HW215226   7.003   7.237   6.394  0.5624  0.0759 -0.5490
 4795SOL     OW15227   6.774   8.107   0.903 -0.0411  0.3219  0.1650
 4795SOL    HW115228   6.764   8.189   0.855  1.5983  1.2030  1.2468
 4795SOL    HW215229   6.718   8.045   0.856  0.6390  1.3804 -2.2143
 4796SOL     OW15230   7.972   0.267   2.046  0.4576  0.4121  0.4296
 4796SOL    HW115231   7.903   0.205   2.025 -0.1494  0.8869  0.9738
 4796SOL    HW215232   8.031   0.264   1.971  0.5283 -0.9275  0.5151
 4797SOL     OW15233   7.992   0.677   3.740 -0.5444  0.2421  0.5524
 4797SOL    HW115234   8.004   0.623   3.818 -0.4011  0.4770  0.6960
 4797SOL    HW215235   7.934   0.626   3.684 -0.6306  0.0610  0.8040
 4798SOL     OW15236   1.906   6.640   5.200 -0.8465 -0.3010 -0.0239
 4798SOL    HW115237   1.849   6.565   5.181 -1.4061  0.3507 -1.0328
 4798SOL    HW215238   1.849   6.704   5.242 -0.1771 -0.7321  1.6428
 4799SOL     OW15239   4.884   1.499   1.617  0.3891  0.5561  0.0124
 4799SOL    HW115240   4.917   1.453   1.540  0.5363  0.2261  0.2687
 4799SOL    HW215241   4.956   1.555   1.645 -0.3838  2.3437 -1.3599
 4800SOL     OW15242   7.212   3.633   1.202 -0.0625  0.1894  0.2898
 4800SOL    HW115243   7.178   3.709   1.248  3.5518  1.5284  1.1096
 4800SOL    HW215244   7.187   3.648   1.110  1.5055  3.1416  0.1944
 4801SOL     OW15245   0.825   6.930   0.548  0.1421 -0.1370  0.1240
 4801SOL    HW115246   0.809   7.022   0.571 -0.7656 -0.2947  0.1575
 4801SOL    HW215247   0.807   6.926   0.454 -0.7595 -0.4710  0.3007
 4802SOL     OW15248   3.355   7.740   3.965  0.2597 -0.1121 -0.0540
 4802SOL    HW115249   3.348   7.769   3.874  1.6512 -0.6977 -0.3719
 4802SOL    HW215250   3.372   7.820   4.014  0.8667  0.0410 -0.4962
 4803SOL     OW15251   7.972   6.120   8.031  0.5758 -0.0495  0.7679
 4803SOL    HW115252   7.881   6.105   8.003  1.0457 -2.2169  0.2233
 4803SOL    HW215253   7.967   6.124   8.127 -0.1495  0.5466  0.7232
 4804SOL     OW15254   2.715   7.943   3.582  0.1755 -0.4604  0.6599
 4804SOL    HW115255   2.702   7.865   3.527 -0.7858  0.7422 -0.8909
 4804SOL    HW215256   2.791   7.987   3.545 -0.6560  0.5144  0.0590
 4805SOL     OW15257   3.844   0.097   2.272 -0.1321  0.6352  0.7568
 4805SOL    HW115258   3.750   0.084   2.258 -0.0552  0.7665  0.0841
 4805SOL    HW215259   3.884   0.014   2.246 -0.0604  0.5898  1.0125
 4806SOL     OW15260   4.641   6.539   0.908  0.4846  0.1189 -0.5842
 4806SOL    HW115261   4.559   6.558   0.864 -0.9537  0.0483  1.8863
 4806SOL    HW215262   4.633   6.448   0.937  1.6627 -0.0659 -0.7695
 4807SOL     OW15263   5.404   0.270   3.196  0.0305 -0.4683  0.1437
 4807SOL    HW115264   5.403   0.251   3.290  0.3147 -0.7090  0.1013
 4807SOL    HW215265   5.360   0.354   3.187  1.0374  0.1267  0.6167
 4808SOL     OW15266   3.225   6.506   6.976 -0.4227  0.6180 -0.1183
 4808SOL    HW115267   3.291   6.501   7.045 -1.3755  0.0337  0.7754
 4808SOL    HW215268   3.207   6.599   6.966 -1.4750  0.6611  1.6397
 4809SOL     OW15269   3.929   7.144   5.187 -0.2631  0.0952 -0.4713
 4809SOL    HW115270   4.024   7.133   5.189 -0.2919 -0.0748  0.1749
 4809SOL    HW215271   3.916   7.228   5.143  0.1751  0.0414 -0.7169
 4810SOL     OW15272   6.868   5.084   0.065  0.0020 -0.0852 -0.2944
 4810SOL    HW115273   6.876   5.052  -0.025  1.0737 -2.4660  0.5394
 4810SOL    HW215274   6.800   5.151   0.061 -0.3966 -0.5250 -2.7641
 4811SOL     OW15275   5.879   0.864   0.672  0.3833  0.2554  0.6393
 4811SOL    HW115276   5.836   0.779   0.682 -1.9060  1.5128  2.6801
 4811SOL    HW215277   5.961   0.854   0.720  1.2643 -1.4441 -1.1115
 4812SOL     OW15278   6.019   0.074   4.136 -0.4212 -0.0626 -0.2510
 4812SOL    HW115279   5.959   0.004   4.109  0.2520 -0.2797 -1.2187
 4812SOL    HW215280   6.062   0.039   4.214  0.1186 -0.8765 -0.8867
 4813SOL     OW15281   6.636   6.020   1.320 -0.1143  0.1346  0.0395
 4813SOL    HW115282   6.679   6.069   1.390 -0.6650  1.7817 -0.7199
 4813SOL    HW215283   6.544   6.017   1.345 -0.4353  1.3258 -0.8875
 4814SOL     OW15284   1.086   6.478   4.505 -0.5308  0.1566  0.1532
 4814SOL    HW115285   1.032   6.475   4.426 -0.6983  0.1334  0.2674
 4814SOL    HW215286   1.091   6.387   4.534 -0.8892  0.2253  0.4475
 4815SOL     OW15287   5.060   5.014   7.725 -0.1509 -0.0784 -0.5416
 4815SOL    HW115288   4.979   4.966   7.708  0.0038  0.1010 -1.9758
 4815SOL    HW215289   5.075   5.063   7.644  1.4936 -0.2865 -0.3936
 4816SOL     OW15290   4.600   5.922   4.415  0.8091  0.3348 -0.2200
 4816SOL    HW115291   4.629   5.993   4.357  1.2747 -0.4861 -1.0230
 4816SOL    HW215292   4.539   5.964   4.475  0.6264  1.3055 -1.0435
 4817SOL     OW15293   3.596   5.124   5.055 -0.9044  0.1628 -0.0789
 4817SOL    HW115294   3.680   5.096   5.090 -1.2403 -0.4543  0.2426
 4817SOL    HW215295   3.618   5.172   4.975 -0.1230  1.6844  1.0043
 4818SOL     OW15296   6.542   5.173   4.634  0.4258 -0.2865 -0.1383
 4818SOL    HW115297   6.628   5.131   4.626  1.3419  1.6838 -1.4423
 4818SOL    HW215298   6.545   5.246   4.572 -2.5677 -0.7094 -0.9302
 4819SOL     OW15299   1.981   6.394   1.666 -0.3349 -0.0397 -0.2523
 4819SOL    HW115300   1.906   6.358   1.714 -0.6914  0.3125 -0.5470
 4819SOL    HW215301   1.960   6.487   1.654 -0.5691 -0.2568 -1.6941
 4820SOL     OW15302   4.972   0.367   1.726  0.3921  0.1608  0.0418
 4820SOL    HW115303   4.932   0.453   1.708 -1.6183 -0.7685 -0.1856
 4820SOL    HW215304   4.971   0.323   1.641  3.8329  0.7612 -0.4608
 4821SOL     OW15305   5.526   1.315   5.303  0.8262 -0.4708  0.2175
 4821SOL    HW115306   5.558   1.372   5.373 -0.3608 -1.9723  2.0680
 4821SOL    HW215307   5.431   1.318   5.312  0.4117  1.2280 -2.9894
 4822SOL     OW15308   2.678   7.911   5.891 -0.7066  0.0301 -0.1239
 4822SOL    HW115309   2.599   7.940   5.936 -0.8526 -0.4145 -0.0848
 4822SOL    HW215310   2.749   7.929   5.953 -1.0541 -1.8284  0.8778
 4823SOL     OW15311   6.474   2.287   3.498  0.0554  0.4226  0.0208
 4823SOL    HW115312   6.413   2.236   3.444 -0.9527  1.2778  0.3128
 4823SOL    HW215313   6.561   2.255   3.473 -0.5215 -1.3809  0.1388
 4824SOL     OW15314   5.654   1.253   4.418  0.3253 -0.0831 -0.0074
 4824SOL    HW115315   5.591   1.288   4.355  0.1064  1.4545  1.0212
 4824SOL    HW215316   5.614   1.270   4.503  0.3472 -2.6131  0.5885
 4825SOL     OW15317   0.339   5.603   4.513  0.3790  0.2869  0.2224
 4825SOL    HW115318   0.271   5.636   4.454 -1.4776 -2.3021  0.6768
 4825SOL    HW215319   0.418   5.599   4.459 -0.7071  0.1192 -1.4635
 4826SOL     OW15320   3.724   6.575   2.014 -0.1261 -0.0200 -0.2150
 4826SOL    HW115321   3.645   6.546   2.058 -0.3546  0.0979 -0.5488
 4826SOL    HW215322   3.786   6.502   2.025  0.1644  0.4070  1.1778
 4827SOL     OW15323   1.196   1.407   6.361  0.0840  0.2804 -0.1713
 4827SOL    HW115324   1.105   1.422   6.336  0.1786  1.0776 -0.0601
 4827SOL    HW215325   1.221   1.485   6.410  0.5869 -0.2816  0.4998
 4828SOL     OW15326   0.541   4.201   8.126 -0.0090  0.5241 -0.0103
 4828SOL    HW115327   0.523   4.279   8.179  1.0350  0.3816  0.5907
 4828SOL    HW215328   0.460   4.151   8.129  0.3471 -0.0528  2.4786
 4829SOL     OW15329   7.813   0.849   0.279  0.2828  0.1493  0.0154
 4829SOL    HW115330   7.799   0.814   0.367  1.3323  0.4918  0.3350
 4829SOL    HW215331   7.771   0.786   0.221  0.6350 -0.7217  0.6870
 4830SOL     OW15332   7.623   4.376   1.707 -0.6598 -0.2774  0.1201
 4830SOL    HW115333   7.618   4.388   1.802  0.6781 -0.9143  0.2810
 4830SOL    HW215334   7.715   4.392   1.685 -0.5721 -1.8935 -0.8166
 4831SOL     OW15335   3.681   2.929   7.184 -0.1330  0.0487 -0.0167
 4831SOL    HW115336   3.640   2.981   7.115 -1.0743 -1.3033 -0.5423
 4831SOL    HW215337   3.643   2.962   7.265  0.3806  1.1254 -0.2071
 4832SOL     OW15338   8.062   4.377   5.731 -0.6835  0.3541  0.2663
 4832SOL    HW115339   8.117   4.332   5.667 -1.3496 -0.1238  0.0180
 4832SOL    HW215340   8.119   4.388   5.807  0.4582  1.9091 -0.7672
 4833SOL     OW15341   6.757   1.503   3.175 -0.0297 -0.1805 -0.7756
 4833SOL    HW115342   6.688   1.555   3.135 -1.8244 -0.8803  1.2213
 4833SOL    HW215343   6.758   1.422   3.125 -0.2379  0.0711 -1.1879
 4834SOL     OW15344   0.565   5.121   3.742  0.4907  0.2835 -0.4358
 4834SOL    HW115345   0.594   5.208   3.771  2.0302  0.4278 -2.1946
 4834SOL    HW215346   0.483   5.138   3.695 -0.6609  0.3660  1.4817
 4835SOL     OW15347   2.260   4.461   1.848  0.0424  0.8054  0.4054
 4835SOL    HW115348   2.223   4.429   1.931  0.2297  1.9568  0.9460
 4835SOL    HW215349   2.235   4.553   1.845  0.6100  0.9331 -0.5059
 4836SOL     OW15350   5.553   3.515   2.401 -0.3323 -0.1269  0.3486
 4836SOL    HW115351   5.603   3.446   2.445 -0.4333  0.5058  1.5071
 4836SOL    HW215352   5.554   3.491   2.309  2.7105  0.2585  0.2056
 4837SOL     OW15353   0.836   8.025   3.335  0.0018  0.3896 -0.0316
 4837SOL    HW115354   0.821   8.119   3.323  0.2713  0.5527  0.8203
 4837SOL    HW215355   0.922   8.020   3.377  0.3704 -0.2876 -0.8314
 4838SOL     OW15356   2.783   4.637   1.391  0.0078  0.8376  0.8437
 4838SOL    HW115357   2.722   4.709   1.408  0.3432  0.8294  2.2226
 4838SOL    HW215358   2.772   4.578   1.465  2.0523  1.1052  1.4375
 4839SOL     OW15359   5.024   1.416   0.862  0.8017  0.5848 -0.0926
 4839SOL    HW115360   5.038   1.511   0.867 -0.4580  0.7447  1.0123
 4839SOL    HW215361   4.964   1.405   0.788  1.8363  0.5160 -0.9406
 4840SOL     OW15362   4.441   7.858   1.724  0.0880  0.2644 -0.2998
 4840SOL    HW115363   4.351   7.855   1.691  0.2093 -1.8565 -0.5686
 4840SOL    HW215364   4.492   7.811   1.658  1.0438 -0.3306  0.8305
 4841SOL     OW15365   7.558   4.257   5.921 -0.2569 -0.1743  0.3914
 4841SOL    HW115366   7.527   4.220   5.838  1.3464 -0.4470 -0.1169
 4841SOL    HW215367   7.642   4.298   5.900  0.6717 -1.0846  2.0545
 4842SOL     OW15368   6.765   4.219   6.990  0.2673 -0.0207 -0.4212
 4842SOL    HW115369   6.759   4.174   7.074  0.7297  1.7102  0.5891
 4842SOL    HW215370   6.772   4.149   6.926 -1.6631 -1.4481  0.8078
 4843SOL     OW15371   3.843   0.272   2.973 -0.2767  0.2605  0.1293
 4843SOL    HW115372   3.910   0.231   3.027 -0.3560  1.8359  1.4899
 4843SOL    HW215373   3.782   0.201   2.952  0.7203 -0.7556  0.5939
 4844SOL     OW15374   4.575   7.707   0.484 -0.2272  0.1176  0.1404
 4844SOL    HW115375   4.512   7.635   0.487 -0.2502  0.1410  0.2444
 4844SOL    HW215376   4.658   7.668   0.508 -0.0461 -0.0750 -0.7753
 4845SOL     OW15377   6.105   4.487   2.293  0.3675  0.3023  0.4642
 4845SOL    HW115378   6.164   4.562   2.300  0.0786  0.4426  1.6362
 4845SOL    HW215379   6.017   4.525   2.296  0.2164 -0.0310  0.3286
 4846SOL     OW15380   6.385   7.606   7.070 -0.0616  0.0271  0.6437
 4846SOL    HW115381   6.374   7.699   7.048 -0.0422 -0.4685 -1.6128
 4846SOL    HW215382   6.318   7.590   7.137 -0.6739  1.4392  0.4183
 4847SOL     OW15383   7.509   1.779   3.552 -0.5948  0.6546 -0.0327
 4847SOL    HW115384   7.484   1.687   3.549  0.6554  0.1801  2.0937
 4847SOL    HW215385   7.605   1.777   3.559 -0.4751  2.1564 -0.8414
 4848SOL     OW15386   3.790   5.806   5.848 -0.2464  0.1303  0.1856
 4848SOL    HW115387   3.797   5.827   5.941  0.1174  0.1250  0.1583
 4848SOL    HW215388   3.875   5.828   5.811 -0.2106 -0.3704 -0.0459
 4849SOL     OW15389   6.323   5.244   4.812  0.5399 -0.2971 -0.0164
 4849SOL    HW115390   6.316   5.179   4.882  0.4833 -0.5937 -0.2958
 4849SOL    HW215391   6.393   5.212   4.755  0.6838  0.0167 -0.0195
 4850SOL     OW15392   4.643   3.348   3.581  0.2586  0.2488  0.3339
 4850SOL    HW115393   4.709   3.292   3.541  0.3628  1.6482 -1.6376
 4850SOL    HW215394   4.684   3.434   3.584 -0.9946  0.8644  0.3071
 4851SOL     OW15395   0.500   1.547   5.778 -0.0111 -0.3671 -0.4940
 4851SOL    HW115396   0.442   1.474   5.801 -4.3135  2.5134 -1.0431
 4851SOL    HW215397   0.475   1.571   5.689  3.0463  0.3231 -1.2828
 4852SOL     OW15398   6.512   3.647   3.811 -0.3754 -0.5612  0.1133
 4852SOL    HW115399   6.607   3.642   3.815 -0.2259  1.0358 -0.7426
 4852SOL    HW215400   6.488   3.711   3.878 -0.8445 -0.8567  0.2327
 4853SOL     OW15401   5.617   0.524   4.792  0.5027 -0.6671 -0.1042
 4853SOL    HW115402   5.613   0.614   4.824  2.0140 -0.1645 -1.2217
 4853SOL    HW215403   5.645   0.472   4.867 -0.0727 -0.1711  0.4657
 4854SOL     OW15404   6.478   3.152   4.069 -0.1788 -0.0318  0.4860
 4854SOL    HW115405   6.462   3.076   4.012  0.1095 -0.2847  0.7398
 4854SOL    HW215406   6.471   3.117   4.158 -0.4016  0.3158  0.6086
 4855SOL     OW15407   8.122   5.599   1.844 -0.4454 -0.0270 -0.0984
 4855SOL    HW115408   8.193   5.611   1.781  0.0621 -0.8446  0.3029
 4855SOL    HW215409   8.087   5.687   1.858  1.9296  0.7818  1.3797
 4856SOL     OW15410   3.421   5.737   1.420 -0.2676 -0.3238 -0.7103
 4856SOL    HW115411   3.386   5.650   1.436 -0.2644 -0.3520 -0.8599
 4856SOL    HW215412   3.476   5.728   1.342  0.7861 -0.4678  0.0285
 4857SOL     OW15413   4.252   5.622   4.417  0.0983 -0.2318  0.5895
 4857SOL    HW115414   4.308   5.565   4.470  1.2358 -1.7196 -2.0226
 4857SOL    HW215415   4.177   5.567   4.394  0.2494 -0.0448 -0.3722
 4858SOL     OW15416   0.399   2.957   5.665 -0.1513 -0.7585  0.5767
 4858SOL    HW115417   0.304   2.949   5.673 -0.2247 -0.7289 -0.1734
 4858SOL    HW215418   0.433   2.874   5.698 -0.5206 -1.3264 -0.4284
 4859SOL     OW15419   1.743   2.823   3.915  0.5205  0.4506  0.6349
 4859SOL    HW115420   1.788   2.846   3.834  0.0232 -0.3141  0.1384
 4859SOL    HW215421   1.652   2.847   3.901 -0.0499 -1.8200  0.0567
 4860SOL     OW15422   0.675   5.979   4.014 -0.4063 -0.2596 -0.0038
 4860SOL    HW115423   0.679   6.007   4.106  2.0757  1.2158 -0.4587
 4860SOL    HW215424   0.749   5.919   4.004  0.1164  0.5608 -1.2876
 4861SOL     OW15425   5.087   3.285   3.229 -0.0700 -0.1934 -0.2669
 4861SOL    HW115426   5.107   3.231   3.153 -0.8648  0.9881 -1.3507
 4861SOL    HW215427   5.092   3.375   3.197 -1.8362  0.2985  0.6838
 4862SOL     OW15428   7.069   0.805   0.312 -0.5014 -0.2756 -0.3281
 4862SOL    HW115429   7.160   0.831   0.327 -0.4605  0.5220 -1.8003
 4862SOL    HW215430   7.020   0.847   0.383 -0.0944  1.8611 -1.2397
 4863SOL     OW15431   7.230   0.215   5.883  0.2556 -0.0624  0.2743
 4863SOL    HW115432   7.193   0.146   5.938  0.2851 -0.4501 -0.1845
 4863SOL    HW215433   7.308   0.245   5.930 -0.6204  0.7623  1.2554
 4864SOL     OW15434   0.860   6.229   1.997  0.0001 -0.1264 -0.1079
 4864SOL    HW115435   0.860   6.277   2.080  0.1177 -1.9595  1.0156
 4864SOL    HW215436   0.768   6.207   1.982  0.1378 -1.0513  0.3318
 4865SOL     OW15437   5.270   0.848   4.075  0.0693  0.4615  0.4578
 4865SOL    HW115438   5.301   0.863   4.165  0.8383 -0.5418  0.3705
 4865SOL    HW215439   5.254   0.936   4.041  0.1167  0.8745  1.4554
 4866SOL     OW15440   2.032   3.927   6.911  0.4685 -0.1966 -0.4544
 4866SOL    HW115441   2.115   3.920   6.958 -0.4120  0.0682  1.2057
 4866SOL    HW215442   1.993   3.840   6.920 -0.4523  0.3307  0.7752
 4867SOL     OW15443   2.843   2.667   1.482 -0.0824  0.0663  0.1220
 4867SOL    HW115444   2.754   2.701   1.480  0.0489  0.6302 -4.0095
 4867SOL    HW215445   2.899   2.745   1.473  0.5448 -0.5516 -1.9150
 4868SOL     OW15446   2.058   1.228   5.200  0.2917  0.0348  0.0242
 4868SOL    HW115447   2.092   1.305   5.154 -1.8745  1.4863  0.6470
 4868SOL    HW215448   2.018   1.264   5.280 -2.7084 -1.3965 -0.6933
 4869SOL     OW15449   2.182   6.570   4.264 -0.6846 -0.3571  0.4973
 4869SOL    HW115450   2.182   6.575   4.359 -0.8853  1.7343  0.4296
 4869SOL    HW215451   2.095   6.537   4.241 -0.3986 -1.5462  1.0177
 4870SOL     OW15452   6.509   6.234   2.648  0.4975  0.2370 -0.5406
 4870SOL    HW115453   6.455   6.288   2.706 -0.9742 -1.2542 -0.4235
 4870SOL    HW215454   6.485   6.262   2.560  2.4364  2.2254 -0.5092
 4871SOL     OW15455   5.991   6.621   8.021 -0.5616 -0.0614 -0.1690
 4871SOL    HW115456   5.988   6.529   7.995  0.6416 -0.1971  0.1271
 4871SOL    HW215457   6.078   6.632   8.060 -1.5686  0.6193  2.0125
 4872SOL     OW15458   6.993   5.422   0.199 -0.2630 -0.1404 -0.7349
 4872SOL    HW115459   7.030   5.461   0.278 -1.1714  0.1875 -0.4545
 4872SOL    HW215460   7.014   5.329   0.207  0.1330 -0.0238 -0.3806
 4873SOL     OW15461   6.199   0.952   3.756  0.1500  0.6214 -0.2358
 4873SOL    HW115462   6.166   0.917   3.673 -1.6803 -0.2946  0.8204
 4873SOL    HW215463   6.289   0.979   3.736 -0.2077  0.3867 -2.4922
 4874SOL     OW15464   7.561   6.104   8.195  0.1301 -0.0552  0.0185
 4874SOL    HW115465   7.476   6.129   8.231  0.3544  1.6581 -0.5459
 4874SOL    HW215466   7.573   6.014   8.224 -0.7040  0.4922  2.3044
 4875SOL     OW15467   7.931   3.453   6.144  0.0761  0.5264  0.3509
 4875SOL    HW115468   7.999   3.386   6.150 -1.0619 -0.6134  0.9140
 4875SOL    HW215469   7.959   3.523   6.203  1.7195  0.9927 -0.9057
 4876SOL     OW15470   7.022   7.820   6.454  0.1336  0.0633 -0.0423
 4876SOL    HW115471   6.973   7.764   6.514 -0.3146  0.0921 -0.3765
 4876SOL    HW215472   7.037   7.900   6.503 -0.5064  0.2058 -0.0776
 4877SOL     OW15473   2.208   3.810   6.189 -0.0608  0.0013 -0.0484
 4877SOL    HW115474   2.257   3.733   6.219 -1.1234 -0.1747  1.3179
 4877SOL    HW215475   2.119   3.778   6.175 -0.6335  1.0830  1.0223
 4878SOL     OW15476   1.314   1.629   0.288 -0.1280  0.2479 -0.0214
 4878SOL    HW115477   1.297   1.545   0.244 -0.4854  1.3226 -2.0656
 4878SOL    HW215478   1.406   1.623   0.316 -0.2358 -0.9257  0.1338
 4879SOL     OW15479   6.958   3.236   1.356  0.3977 -0.3435  0.3393
 4879SOL    HW115480   6.957   3.303   1.424  1.0502 -1.3074  1.3353
 4879SOL    HW215481   6.866   3.218   1.338  0.2150 -0.4018  1.3127
 4880SOL     OW15482   7.487   1.223   2.854 -0.4922  0.1390  0.2194
 4880SOL    HW115483   7.431   1.148   2.874 -1.9442  0.8374 -0.9804
 4880SOL    HW215484   7.575   1.187   2.846 -1.3581 -1.7547 -1.8976
 4881SOL     OW15485   0.040   1.283   1.399 -0.2471  0.0931 -0.4799
 4881SOL    HW115486   0.018   1.191   1.411  0.2916 -0.1950 -1.5270
 4881SOL    HW215487   0.132   1.289   1.423 -0.5126  0.5483  0.4434
 4882SOL     OW15488   1.907   5.463   0.689 -0.1886  0.9430 -0.1605
 4882SOL    HW115489   1.883   5.509   0.609  0.0002 -0.7566 -1.2338
 4882SOL    HW215490   1.824   5.449   0.735 -0.5667  0.1880 -1.0431
 4883SOL     OW15491   7.637   4.004   3.771 -0.4683  0.2003 -0.0189
 4883SOL    HW115492   7.662   3.912   3.772 -0.3711  0.2233 -0.3213
 4883SOL    HW215493   7.677   4.040   3.692  0.4147  0.7676  0.6642
 4884SOL     OW15494   4.732   2.039   5.539  0.1717  0.0680 -0.1920
 4884SOL    HW115495   4.721   1.960   5.486  1.6834 -0.2164 -0.1512
 4884SOL    HW215496   4.757   2.107   5.477  1.5099 -0.1607  0.0507
 4885SOL     OW15497   7.639   6.190   6.821  0.1609  0.0885  0.2202
 4885SOL    HW115498   7.566   6.248   6.800 -0.7216 -1.1991 -0.4122
 4885SOL    HW215499   7.701   6.204   6.750 -0.9557 -1.1741 -1.0789
 4886SOL     OW15500   4.458   1.070   4.146  1.1143  0.4137 -0.2828
 4886SOL    HW115501   4.404   1.010   4.197 -1.0369  0.1244 -2.7107
 4886SOL    HW215502   4.532   1.017   4.117  1.7906  0.2974  1.4996
 4887SOL     OW15503   2.034   4.964   4.373 -0.0537 -0.2081 -0.5160
 4887SOL    HW115504   2.097   4.985   4.304  0.3394  0.9746  0.1683
 4887SOL    HW215505   1.954   5.010   4.348 -0.4614 -1.1770 -1.0460
 4888SOL     OW15506   2.361   2.173   3.391  0.4685 -0.2261 -0.2399
 4888SOL    HW115507   2.453   2.183   3.416  0.0709 -0.4465  1.3881
 4888SOL    HW215508   2.342   2.080   3.402 -0.3545  0.0601  1.0037
 4889SOL     OW15509   4.364   1.995   1.867  0.5341 -0.4285  0.5467
 4889SOL    HW115510   4.454   1.967   1.849  0.2430 -1.0762  0.0400
 4889SOL    HW215511   4.341   2.048   1.791 -0.8582 -3.5423 -1.4083
 4890SOL     OW15512   4.589   4.455   3.657  0.2870  0.4035 -0.3301
 4890SOL    HW115513   4.679   4.485   3.657  0.8068 -1.0812 -0.7407
 4890SOL    HW215514   4.544   4.513   3.719  1.2053  2.0145 -1.1340
 4891SOL     OW15515   5.014   1.552   4.390  0.5292  0.1984 -0.1608
 4891SOL    HW115516   4.941   1.613   4.386  0.4171  0.0401 -0.5509
 4891SOL    HW215517   5.090   1.603   4.362  0.3602  0.0450 -0.9076
 4892SOL     OW15518   1.466   3.692   4.230  0.2499  0.3991 -0.5645
 4892SOL    HW115519   1.523   3.737   4.292  0.9733  0.3338 -1.1611
 4892SOL    HW215520   1.488   3.731   4.145 -1.7022  1.4817 -0.6290
 4893SOL     OW15521   1.538   0.975   4.020 -0.1090  0.0804 -0.1490
 4893SOL    HW115522   1.559   0.881   4.024 -0.7948 -0.2197 -2.2605
 4893SOL    HW215523   1.443   0.978   4.034  0.1025  0.6280  1.3139
 4894SOL     OW15524   5.756   4.295   0.847 -0.5538 -0.5817  0.4674
 4894SOL    HW115525   5.668   4.315   0.879  0.2943  1.8297  1.5241
 4894SOL    HW215526   5.784   4.219   0.899 -1.6038 -0.7355  0.8348
 4895SOL     OW15527   1.314   1.955   7.076 -0.1215 -0.3497  0.3504
 4895SOL    HW115528   1.383   2.010   7.038 -1.0627  2.4283  2.3473
 4895SOL    HW215529   1.308   1.984   7.166 -1.6519 -2.9199  1.1713
 4896SOL     OW15530   6.786   6.033   3.319  0.1891 -0.1618 -0.9790
 4896SOL    HW115531   6.872   6.070   3.339  0.0294  0.3656 -1.2503
 4896SOL    HW215532   6.724   6.091   3.363 -0.0056 -0.9736 -0.1336
 4897SOL     OW15533   0.732   1.776   2.134 -0.0415  0.3468  0.6761
 4897SOL    HW115534   0.660   1.737   2.084  0.5804 -0.1891  0.1854
 4897SOL    HW215535   0.765   1.846   2.078  0.9993 -0.5911  0.0630
 4898SOL     OW15536   6.837   6.628   4.025 -0.8149  0.9318  0.3888
 4898SOL    HW115537   6.772   6.605   4.091 -1.4532  0.4772 -0.3910
 4898SOL    HW215538   6.788   6.636   3.943  0.3171 -1.1809 -0.5850
 4899SOL     OW15539   3.025   0.773   1.464  0.0565  0.4732  0.2422
 4899SOL    HW115540   3.000   0.756   1.373 -0.4992 -0.7206  0.6011
 4899SOL    HW215541   2.978   0.853   1.487  0.8858  1.2722 -0.7801
 4900SOL     OW15542   5.697   6.137   1.953 -0.1429 -0.0202  0.5928
 4900SOL    HW115543   5.635   6.120   2.024  0.6438  0.4121  1.4090
 4900SOL    HW215544   5.726   6.050   1.924 -0.2004 -0.1924  1.0532
 4901SOL     OW15545   4.285   2.654   4.871  0.3128 -0.1906  0.4817
 4901SOL    HW115546   4.347   2.697   4.930  2.0997 -2.1852  0.1580
 4901SOL    HW215547   4.283   2.711   4.794  0.3326  0.8354  1.2124
 4902SOL     OW15548   3.811   4.948   4.504 -0.3774 -0.0604 -0.3090
 4902SOL    HW115549   3.850   4.954   4.416 -1.4189 -2.2883 -1.0009
 4902SOL    HW215550   3.735   5.005   4.500  0.5154  1.1593 -0.2824
 4903SOL     OW15551   1.556   3.385   2.478  0.3769 -0.1570 -0.5455
 4903SOL    HW115552   1.525   3.470   2.449 -1.9614 -0.9103 -0.5297
 4903SOL    HW215553   1.544   3.386   2.573  0.1716 -0.5359 -0.5619
 4904SOL     OW15554   1.999   1.242   5.803  0.0052 -0.1113  0.2251
 4904SOL    HW115555   1.958   1.156   5.808 -1.5595  0.5853 -0.0534
 4904SOL    HW215556   1.938   1.301   5.847 -0.2837  1.3012 -1.9152
 4905SOL     OW15557   3.002   0.016   1.118 -0.2883 -0.4218 -0.2091
 4905SOL    HW115558   2.933   0.006   1.053 -0.0841 -1.8371 -0.2305
 4905SOL    HW215559   2.956   0.013   1.202 -0.4770  0.7855 -0.2447
 4906SOL     OW15560   2.992   4.696   1.230  0.2600  0.1788 -0.8577
 4906SOL    HW115561   2.934   4.771   1.220 -0.1980 -0.3026 -1.9166
 4906SOL    HW215562   2.945   4.636   1.286 -0.1416 -0.0730 -1.4557
 4907SOL     OW15563   5.830   5.701   2.400  0.1790  0.2516  0.3735
 4907SOL    HW115564   5.919   5.685   2.430 -0.2380 -1.4577  0.7941
 4907SOL    HW215565   5.813   5.633   2.335 -0.7261  0.7452  0.0636
 4908SOL     OW15566   3.215   2.567   4.732 -0.1859  0.2058 -0.1563
 4908SOL    HW115567   3.201   2.548   4.640  0.1362  1.1479 -0.4136
 4908SOL    HW215568   3.282   2.636   4.733  1.4983 -1.3514  0.8617
 4909SOL     OW15569   0.250   0.718   7.493  0.0739 -0.2722  0.2093
 4909SOL    HW115570   0.167   0.671   7.489 -0.3953  0.6168 -1.2598
 4909SOL    HW215571   0.303   0.679   7.423  0.5652 -0.2113  0.5382
 4910SOL     OW15572   1.971   7.634   2.992 -0.8515  0.1499  0.3528
 4910SOL    HW115573   1.984   7.553   2.943 -0.1291  0.6967 -0.3872
 4910SOL    HW215574   1.935   7.606   3.076  1.4864 -1.1605  0.9918
 4911SOL     OW15575   5.209   3.067   3.725 -0.1780 -0.0766 -0.0092
 4911SOL    HW115576   5.268   3.102   3.791  0.8206 -1.1790 -0.2801
 4911SOL    HW215577   5.230   3.116   3.645  0.5017 -0.5747 -0.1440
 4912SOL     OW15578   0.158   3.413   4.524 -0.8800  0.0526 -0.0117
 4912SOL    HW115579   0.233   3.353   4.521  0.6478  1.7101  1.9883
 4912SOL    HW215580   0.083   3.356   4.544  0.3780 -1.2952  1.0909
 4913SOL     OW15581   4.311   0.245   2.311  0.6842  0.3749 -0.4147
 4913SOL    HW115582   4.243   0.296   2.355  1.1131  0.5741  0.0240
 4913SOL    HW215583   4.334   0.177   2.375  0.4199 -0.1121 -0.8287
 4914SOL     OW15584   5.439   0.055   3.050  0.4236 -0.6582  1.3028
 4914SOL    HW115585   5.498   0.079   2.978 -2.1704  1.1186 -0.4363
 4914SOL    HW215586   5.435   0.134   3.105 -2.3830  0.4150 -0.2332
 4915SOL     OW15587   5.518   3.991   2.237  0.2062 -0.1364  0.4167
 4915SOL    HW115588   5.596   4.047   2.234 -1.3376  2.1209 -1.9205
 4915SOL    HW215589   5.532   3.926   2.168  0.0765  0.2087  0.0626
 4916SOL     OW15590   4.957   1.537   6.142  0.2534  0.0445 -0.2413
 4916SOL    HW115591   4.967   1.578   6.228 -0.2489  0.1347 -0.2239
 4916SOL    HW215592   5.038   1.487   6.130 -0.1601 -0.9488  0.8245
 4917SOL     OW15593   7.587   4.079   6.267  0.3090 -0.1205  0.2311
 4917SOL    HW115594   7.658   4.058   6.207  0.9483  0.0631  0.9036
 4917SOL    HW215595   7.621   4.153   6.318 -0.0373 -0.5687  1.1263
 4918SOL     OW15596   7.324   6.491   0.497 -0.3403  0.1159  0.0677
 4918SOL    HW115597   7.370   6.428   0.552 -0.4654 -0.0234  0.0137
 4918SOL    HW215598   7.370   6.573   0.511 -0.5149  0.1320  0.5608
 4919SOL     OW15599   1.835   4.545   0.710 -0.2457  0.2032  0.0536
 4919SOL    HW115600   1.918   4.521   0.750 -0.4092  1.1302  1.0055
 4919SOL    HW215601   1.811   4.470   0.657  0.8590 -0.3507  0.3107
 4920SOL     OW15602   6.529   4.325   5.039 -0.4355 -0.0817 -0.2749
 4920SOL    HW115603   6.444   4.344   5.078 -0.4646 -0.8810  0.0631
 4920SOL    HW215604   6.509   4.271   4.962 -0.1989 -0.8776  0.2078
 4921SOL     OW15605   2.815   2.638   1.963 -0.0365  0.0736 -0.0384
 4921SOL    HW115606   2.872   2.706   1.998  0.8938 -0.2980 -0.7593
 4921SOL    HW215607   2.749   2.624   2.031  1.7259 -0.6809  1.6225
 4922SOL     OW15608   7.463   6.353   0.694 -0.0390  0.0123 -0.1370
 4922SOL    HW115609   7.508   6.269   0.704 -1.1847 -0.7923 -1.2946
 4922SOL    HW215610   7.410   6.361   0.773 -0.5983 -0.8064 -0.4171
 4923SOL     OW15611   0.473   3.082   2.928 -0.2333  0.2841 -0.3318
 4923SOL    HW115612   0.465   3.177   2.936 -0.0290  0.2020  1.2336
 4923SOL    HW215613   0.521   3.069   2.846 -0.3553  1.5202 -0.6222
 4924SOL     OW15614   3.252   3.752   2.071  0.1056 -0.2401  0.5560
 4924SOL    HW115615   3.319   3.775   2.007 -0.1525  0.5156  0.5486
 4924SOL    HW215616   3.299   3.704   2.139  0.4810 -0.5460  0.0801
 4925SOL     OW15617   0.175   2.010   0.601 -0.0806 -0.0447  0.4219
 4925SOL    HW115618   0.152   2.001   0.694  1.9022 -1.3258  0.8461
 4925SOL    HW215619   0.199   2.102   0.591  1.6750 -0.3087  1.7273
 4926SOL     OW15620   6.953   4.425   3.875 -0.3750 -0.1302  0.2273
 4926SOL    HW115621   6.873   4.388   3.912 -0.2683 -1.6451 -0.9934
 4926SOL    HW215622   7.014   4.426   3.949 -0.1913 -3.0388  0.2059
 4927SOL     OW15623   6.226   2.494   3.333 -0.6701 -0.6198 -0.9609
 4927SOL    HW115624   6.180   2.520   3.254  1.0673 -0.2897 -1.9165
 4927SOL    HW215625   6.314   2.471   3.304  0.3472  0.4925  0.9809
 4928SOL     OW15626   7.177   6.896   1.589  0.0511 -0.3946  0.1331
 4928SOL    HW115627   7.089   6.922   1.615  0.7785  0.8041  1.5576
 4928SOL    HW215628   7.172   6.800   1.580 -1.3580 -0.3489  0.2403
 4929SOL     OW15629   2.134   4.337   5.611  0.8811  0.2033  0.4214
 4929SOL    HW115630   2.219   4.305   5.640  0.4050 -1.2809  0.2772
 4929SOL    HW215631   2.119   4.293   5.527 -0.6964 -0.8272  1.1850
 4930SOL     OW15632   1.668   6.185   3.489 -0.3476  0.4265 -0.8050
 4930SOL    HW115633   1.625   6.169   3.405 -0.4347  1.3555 -0.9450
 4930SOL    HW215634   1.761   6.188   3.468 -0.3627  0.5617 -0.8526
 4931SOL     OW15635   4.657   1.462   6.741 -0.1066 -0.1590 -0.0986
 4931SOL    HW115636   4.698   1.540   6.778  0.1359 -1.4688  2.7128
 4931SOL    HW215637   4.566   1.467   6.771  0.0430 -1.1767  0.5680
 4932SOL     OW15638   3.126   7.258   5.112 -0.3018 -0.0129  0.3756
 4932SOL    HW115639   3.075   7.178   5.101 -0.8652  0.3091  0.6225
 4932SOL    HW215640   3.123   7.276   5.206 -0.7143  0.6411  0.2454
 4933SOL     OW15641   4.242   6.457   4.674  0.6163 -0.2800 -0.4791
 4933SOL    HW115642   4.172   6.492   4.619  0.7875  2.1729  0.7099
 4933SOL    HW215643   4.277   6.383   4.625 -0.9973  0.1341 -2.3730
 4934SOL     OW15644   1.852   0.802   5.344 -0.2373 -0.1905  0.0652
 4934SOL    HW115645   1.915   0.828   5.410 -0.9744  1.2155  0.2340
 4934SOL    HW215646   1.891   0.831   5.261 -0.5662  0.4963  0.1496
 4935SOL     OW15647   0.439   3.828   8.050 -0.3692 -0.0177 -0.1093
 4935SOL    HW115648   0.420   3.744   8.007 -0.2011  0.5181 -1.2824
 4935SOL    HW215649   0.530   3.846   8.026 -0.3393  0.4009  0.3200
 4936SOL     OW15650   4.209   5.415   6.729  0.1197  0.0344 -0.2197
 4936SOL    HW115651   4.261   5.478   6.680  1.9636 -0.1829  1.3515
 4936SOL    HW215652   4.174   5.355   6.663  0.2024  1.3585 -1.5015
 4937SOL     OW15653   6.993   6.321   5.491 -0.6161  0.1645 -0.3541
 4937SOL    HW115654   6.966   6.230   5.478 -1.3615  0.6025 -2.1875
 4937SOL    HW215655   6.959   6.367   5.414 -0.3655  2.0225  0.6014
 4938SOL     OW15656   4.475   3.390   2.146  1.1047 -0.7165  0.1314
 4938SOL    HW115657   4.489   3.303   2.109 -0.5554  0.2152 -3.0062
 4938SOL    HW215658   4.401   3.378   2.206  0.6201 -1.4191 -0.5804
 4939SOL     OW15659   0.553   6.979   4.048 -0.0471 -0.3035 -0.3045
 4939SOL    HW115660   0.565   6.908   3.984 -0.3568  0.3530 -1.1099
 4939SOL    HW215661   0.487   6.946   4.108  0.1755 -0.8963 -0.3785
 4940SOL     OW15662   6.127   6.715   6.998  0.5179  0.2002 -0.2544
 4940SOL    HW115663   6.151   6.622   7.000  0.0531  0.0108 -2.0620
 4940SOL    HW215664   6.032   6.715   6.987  0.3882  0.9159  0.7183
 4941SOL     OW15665   5.588   4.347   4.336 -0.3200  0.3216 -0.3393
 4941SOL    HW115666   5.676   4.338   4.300 -0.5675  1.5423 -1.2864
 4941SOL    HW215667   5.579   4.272   4.396  1.5117  0.4250  0.1063
 4942SOL     OW15668   8.132   4.112   5.126  0.3259  0.3475 -0.0716
 4942SOL    HW115669   8.214   4.129   5.080 -0.1072 -0.9982 -1.4160
 4942SOL    HW215670   8.066   4.158   5.075 -0.0031 -0.1716 -0.1241
 4943SOL     OW15671   3.180   1.772   1.267  0.5477 -0.3432  0.2240
 4943SOL    HW115672   3.195   1.857   1.226  1.4868 -0.9538 -0.7474
 4943SOL    HW215673   3.101   1.784   1.320 -0.5310  0.5682 -1.5149
 4944SOL     OW15674   6.333   7.035   8.016  0.5223  0.0883 -0.2036
 4944SOL    HW115675   6.335   6.961   7.955  1.0345 -0.5955  0.6249
 4944SOL    HW215676   6.296   6.999   8.097  2.3408  0.2967  0.7680
 4945SOL     OW15677   0.529   2.674   1.582  0.4013  0.0720  0.1150
 4945SOL    HW115678   0.570   2.733   1.645 -1.6690 -0.3635  1.9939
 4945SOL    HW215679   0.521   2.591   1.629  0.5009 -0.8434 -1.4247
 4946SOL     OW15680   6.639   4.654   3.278  0.2489 -0.2374  0.6633
 4946SOL    HW115681   6.676   4.738   3.304  0.1992 -0.0145  0.0321
 4946SOL    HW215682   6.551   4.675   3.246  0.0126 -0.6094  1.0465
 4947SOL     OW15683   3.042   1.680   0.388 -0.3200 -0.0479 -0.5769
 4947SOL    HW115684   3.104   1.734   0.338  0.4352 -1.1362 -0.8351
 4947SOL    HW215685   2.956   1.703   0.351  0.2101 -0.7588 -2.3331
 4948SOL     OW15686   1.064   1.115   1.547  0.6044 -0.2872  0.1174
 4948SOL    HW115687   0.986   1.082   1.501  0.4803  0.8171 -0.4964
 4948SOL    HW215688   1.035   1.125   1.638  0.0544  0.0115 -0.0827
 4949SOL     OW15689   6.077   4.076   1.907 -0.0038  0.1440 -0.3527
 4949SOL    HW115690   6.104   4.136   1.976  0.8781  0.3506 -0.8513
 4949SOL    HW215691   6.068   4.131   1.829 -0.8814 -0.0991 -0.4252
 4950SOL     OW15692   2.678   3.115   7.905 -0.4358 -0.3845 -0.1901
 4950SOL    HW115693   2.772   3.109   7.887 -0.3622 -1.3049  0.4068
 4950SOL    HW215694   2.655   3.029   7.939 -0.9047  0.6546  2.3960
 4951SOL     OW15695   3.518   7.217   5.418 -0.1503  0.1086  0.1672
 4951SOL    HW115696   3.499   7.276   5.491  0.4545 -1.3502  1.5556
 4951SOL    HW215697   3.444   7.157   5.416 -1.5393  1.7513 -2.2293
 4952SOL     OW15698   3.767   5.544   3.416 -0.0295  0.3682  0.0931
 4952SOL    HW115699   3.682   5.584   3.396  0.3348  1.5594  0.8223
 4952SOL    HW215700   3.830   5.596   3.367  0.2267 -1.0740 -1.1626
 4953SOL     OW15701   3.783   2.092   2.948  0.5965  0.2942  0.0737
 4953SOL    HW115702   3.710   2.145   2.980 -0.0074 -0.1298 -0.5644
 4953SOL    HW215703   3.843   2.087   3.022 -0.1736  0.3793  0.7267
 4954SOL     OW15704   5.900   2.874   0.339  0.1275 -0.5132  0.1725
 4954SOL    HW115705   5.858   2.811   0.280 -0.6628 -0.3562  0.5466
 4954SOL    HW215706   5.827   2.911   0.390  0.5254  0.8887 -0.2162
 4955SOL     OW15707   4.536   3.983   5.262  0.5017  0.2627  0.4550
 4955SOL    HW115708   4.475   3.926   5.216  0.6388  2.0436 -2.1164
 4955SOL    HW215709   4.482   4.032   5.324  0.3088 -2.1147  2.3251
 4956SOL     OW15710   8.038   4.375   2.429 -0.0689 -0.4124 -0.4411
 4956SOL    HW115711   7.965   4.317   2.450 -0.8907  1.0484  1.0827
 4956SOL    HW215712   8.091   4.376   2.509  0.7780 -0.2709 -0.9977
 4957SOL     OW15713   0.539   4.398   1.512 -0.0349  0.1921  0.0827
 4957SOL    HW115714   0.606   4.466   1.501 -0.1865  0.5917  1.4376
 4957SOL    HW215715   0.456   4.446   1.508 -0.1377  0.1242  1.1746
 4958SOL     OW15716   2.229   6.776   3.534 -0.0505  0.2717 -0.0856
 4958SOL    HW115717   2.212   6.707   3.470  0.5047  0.6623 -0.6728
 4958SOL    HW215718   2.325   6.786   3.533 -0.1896  1.7776 -0.8055
 4959SOL     OW15719   4.042   6.861   6.487  0.7856 -0.3200 -0.2239
 4959SOL    HW115720   4.088   6.808   6.422 -0.8863 -1.5599 -0.4668
 4959SOL    HW215721   3.993   6.797   6.540  0.3483  0.8412  0.8248
 4960SOL     OW15722   4.231   6.216   1.780  0.0760 -0.0352  0.2168
 4960SOL    HW115723   4.179   6.296   1.790 -0.5770 -0.3329 -0.7070
 4960SOL    HW215724   4.285   6.213   1.859  1.9336  2.6275 -0.8084
 4961SOL     OW15725   2.106   7.895   2.064  0.3674 -0.1679  0.2763
 4961SOL    HW115726   2.100   7.974   2.118  0.5849 -0.3641  0.5981
 4961SOL    HW215727   2.157   7.922   1.988 -0.0406  0.1432  0.1078
 4962SOL     OW15728   6.967   4.085   4.479 -0.3611 -0.3995 -0.4973
 4962SOL    HW115729   7.015   4.015   4.434  0.3164 -0.8195  0.8232
 4962SOL    HW215730   6.881   4.047   4.496  0.0252 -0.9673  0.2758
 4963SOL     OW15731   0.740   4.817   0.122 -0.0206  0.4917 -0.8207
 4963SOL    HW115732   0.739   4.780   0.211 -2.1042  1.9905 -0.1324
 4963SOL    HW215733   0.749   4.741   0.064 -0.3192 -0.6988  0.6249
 4964SOL     OW15734   6.558   3.162   4.614  0.3057  0.3319  0.8812
 4964SOL    HW115735   6.510   3.227   4.561  0.0944  0.3249  1.0594
 4964SOL    HW215736   6.591   3.099   4.551 -0.7551 -0.1981  0.8415
 4965SOL     OW15737   4.284   5.511   6.116 -0.1164 -0.4336  0.1992
 4965SOL    HW115738   4.269   5.486   6.207  1.7253 -0.5164  0.5164
 4965SOL    HW215739   4.207   5.477   6.069 -0.6706 -1.1658  1.5762
 4966SOL     OW15740   1.125   7.173   0.174  0.5730 -0.2938 -0.1656
 4966SOL    HW115741   1.215   7.139   0.169  0.1282 -1.6302  0.3884
 4966SOL    HW215742   1.130   7.260   0.135  2.2732 -0.0234  0.5607
 4967SOL     OW15743   0.885   2.943   7.970 -0.9467  0.0673  0.2729
 4967SOL    HW115744   0.854   2.925   8.058 -1.4597 -1.5360 -0.1966
 4967SOL    HW215745   0.831   3.016   7.940 -0.7504  0.6400  1.2767
 4968SOL     OW15746   5.460   0.713   6.466 -0.2117 -0.1171 -0.3551
 4968SOL    HW115747   5.498   0.715   6.378 -0.9436 -0.7936 -0.6911
 4968SOL    HW215748   5.381   0.661   6.457 -0.2509 -0.2618  0.7270
 4969SOL     OW15749   7.766   0.927   7.627  0.0318  0.4094 -0.0685
 4969SOL    HW115750   7.709   0.988   7.673  0.8753  0.1063  1.4388
 4969SOL    HW215751   7.854   0.963   7.638  0.1860  1.0193 -2.5888
 4970SOL     OW15752   4.608   1.913   1.820  0.1166 -0.6646 -0.1177
 4970SOL    HW115753   4.663   1.991   1.814 -0.5031 -0.0571  1.3372
 4970SOL    HW215754   4.648   1.850   1.761  3.2402 -0.7621  1.8921
 4971SOL     OW15755   5.148   2.202   2.178 -0.0768  0.5917 -0.0454
 4971SOL    HW115756   5.112   2.291   2.174 -1.7173  0.0839  1.6064
 4971SOL    HW215757   5.113   2.158   2.101 -1.0222  0.8206  0.2337
 4972SOL     OW15758   0.133   6.409   5.488 -0.1859 -0.7033  0.1375
 4972SOL    HW115759   0.221   6.406   5.527 -0.9162  0.2979  1.9780
 4972SOL    HW215760   0.090   6.331   5.522 -0.3751 -0.5842  0.1697
 4973SOL     OW15761   6.713   0.617   3.785 -0.0298  0.2606  0.4187
 4973SOL    HW115762   6.697   0.553   3.853  0.1141 -0.5537 -0.2917
 4973SOL    HW215763   6.795   0.659   3.810  0.8189 -1.0896 -0.0183
 4974SOL     OW15764   3.306   0.031   5.178  0.0293 -1.0274  0.3945
 4974SOL    HW115765   3.292   0.018   5.084 -2.9454 -0.3326  0.6234
 4974SOL    HW215766   3.346   0.118   5.185 -2.3927  0.2505 -0.2336
 4975SOL     OW15767   5.012   1.129   3.996 -0.2575  0.0570 -0.5482
 4975SOL    HW115768   4.975   1.063   3.938 -0.4101 -1.6325  1.3580
 4975SOL    HW215769   4.937   1.182   4.023 -0.7823 -1.2703  0.6974
 4976SOL     OW15770   0.622   1.402   7.305 -0.7474 -0.2111 -0.2603
 4976SOL    HW115771   0.574   1.364   7.379  1.3367 -0.3226  1.0967
 4976SOL    HW215772   0.602   1.343   7.232 -1.6636 -0.9569  0.5531
 4977SOL     OW15773   6.131   2.351   6.936  0.9481  0.0614  0.1114
 4977SOL    HW115774   6.085   2.378   6.857  2.0728 -0.5676 -0.7939
 4977SOL    HW215775   6.062   2.326   6.997  0.0347  1.2885 -0.3821
 4978SOL     OW15776   3.319   4.584   3.531 -0.6081 -0.4814 -0.1691
 4978SOL    HW115777   3.289   4.513   3.474  1.1249 -0.0363 -1.7468
 4978SOL    HW215778   3.239   4.632   3.552 -1.2690  0.0214 -3.2880
 4979SOL     OW15779   7.500   2.128   2.036  0.2297 -0.5369  0.7607
 4979SOL    HW115780   7.546   2.045   2.053 -0.8828 -0.9370  1.9806
 4979SOL    HW215781   7.567   2.184   1.997  2.1588 -0.6897  3.5371
 4980SOL     OW15782   3.846   5.432   6.670 -0.2829 -0.7084 -0.0014
 4980SOL    HW115783   3.861   5.512   6.721  1.1049 -0.0619 -1.3449
 4980SOL    HW215784   3.752   5.418   6.675 -0.2556 -0.4874  2.4202
 4981SOL     OW15785   3.638   5.512   7.141  0.1504 -0.2762  0.2287
 4981SOL    HW115786   3.584   5.434   7.158 -1.1260  0.4591 -0.3173
 4981SOL    HW215787   3.659   5.506   7.048  1.4834 -0.8068  0.5276
 4982SOL     OW15788   5.564   7.376   7.444  0.4090 -0.1610  0.0926
 4982SOL    HW115789   5.654   7.362   7.475  0.9151  0.4882 -1.0266
 4982SOL    HW215790   5.575   7.408   7.355 -0.9720 -0.9472 -0.3786
 4983SOL     OW15791   0.100   6.771   8.024  0.3399  0.0852 -0.2050
 4983SOL    HW115792   0.146   6.749   7.943  1.0360  0.4693  0.0750
 4983SOL    HW215793   0.084   6.687   8.066 -2.9737 -0.4672 -2.2490
 4984SOL     OW15794   4.202   0.600   5.611  0.0633  0.3928  0.3524
 4984SOL    HW115795   4.263   0.529   5.630 -0.0351 -0.0377 -0.8267
 4984SOL    HW215796   4.168   0.579   5.524 -0.4052  1.5877  0.2295
 4985SOL     OW15797   7.654   4.458   7.124  0.8441 -0.3678 -0.4637
 4985SOL    HW115798   7.688   4.450   7.213 -1.5900  1.3118  0.7251
 4985SOL    HW215799   7.576   4.401   7.122 -0.0777  0.8624 -0.9450
 4986SOL     OW15800   5.655   3.959   3.924 -0.1706 -0.2513  0.0902
 4986SOL    HW115801   5.695   4.014   3.857 -0.9906  1.2300  0.7662
 4986SOL    HW215802   5.565   3.991   3.931  0.2548  0.6026  2.8241
 4987SOL     OW15803   0.168   6.120   2.818 -0.1136  0.3508 -0.0365
 4987SOL    HW115804   0.261   6.110   2.839  0.0220 -0.0470 -0.7658
 4987SOL    HW215805   0.133   6.031   2.825 -0.3415  0.4282 -0.1807
 4988SOL     OW15806   3.756   7.160   2.527 -0.3301  0.0583  0.1838
 4988SOL    HW115807   3.769   7.091   2.593 -0.2165  0.5674  0.6968
 4988SOL    HW215808   3.843   7.173   2.490  0.0848  1.3261  1.4972
 4989SOL     OW15809   7.555   4.203   3.942  0.1746  0.8065 -0.1846
 4989SOL    HW115810   7.580   4.122   3.897  2.3293  1.0809  0.4418
 4989SOL    HW215811   7.625   4.220   4.004 -0.8486  2.5079  0.5990
 4990SOL     OW15812   7.650   5.410   3.830  0.1635 -0.2354 -0.0604
 4990SOL    HW115813   7.636   5.431   3.738  2.8027  1.0086 -0.2511
 4990SOL    HW215814   7.700   5.484   3.865  0.2328 -1.2178  2.0805
 4991SOL     OW15815   5.403   4.836   1.416  0.4033 -0.2731  0.3654
 4991SOL    HW115816   5.368   4.750   1.440  0.6279 -0.0013  1.7779
 4991SOL    HW215817   5.495   4.819   1.393  0.1954 -0.5375 -0.2906
 4992SOL     OW15818   3.094   6.994   6.031  0.3933 -0.0613 -0.1013
 4992SOL    HW115819   3.020   7.054   6.020  2.5850  2.8780 -0.0075
 4992SOL    HW215820   3.106   6.955   5.945 -0.9914 -0.2981 -0.2131
 4993SOL     OW15821   6.634   5.420   5.921 -0.0386  0.2335 -0.1016
 4993SOL    HW115822   6.545   5.396   5.893  0.2428  0.8968 -1.6795
 4993SOL    HW215823   6.682   5.434   5.839  1.9477 -1.5087  0.6686
 4994SOL     OW15824   5.592   6.468   3.002  0.5399 -0.0459 -0.1503
 4994SOL    HW115825   5.542   6.544   3.031 -0.2589 -0.1727 -1.1208
 4994SOL    HW215826   5.642   6.499   2.927 -1.7956 -1.0366 -2.2489
 4995SOL     OW15827   6.517   0.751   6.595 -0.0261  0.0551 -0.5699
 4995SOL    HW115828   6.458   0.680   6.620 -0.2463 -0.6139 -2.7634
 4995SOL    HW215829   6.461   0.827   6.584  0.0163  0.2508  0.5004
 4996SOL     OW15830   0.197   2.014   4.041  0.0129 -0.1094  0.0204
 4996SOL    HW115831   0.265   1.956   4.076 -1.8428 -1.6067  1.3730
 4996SOL    HW215832   0.115   1.967   4.058 -1.3897  1.7242 -1.3285
 4997SOL     OW15833   6.008   3.029   7.927 -0.3356 -0.2493  0.0967
 4997SOL    HW115834   6.076   2.963   7.914 -0.7333 -0.3379 -1.8713
 4997SOL    HW215835   6.057   3.107   7.954  0.2104 -1.0748  1.6732
 4998SOL     OW15836   5.446   7.998   3.138 -0.3824 -0.3724  0.3483
 4998SOL    HW115837   5.454   8.088   3.107 -0.0445 -0.3080  0.6124
 4998SOL    HW215838   5.430   8.006   3.232  0.0356 -0.5961  0.4391
 4999SOL     OW15839   3.838   6.621   2.920 -0.1598 -0.1836 -0.5863
 4999SOL    HW115840   3.900   6.636   2.991 -0.9121 -0.0608  0.0591
 4999SOL    HW215841   3.862   6.687   2.854  0.9121 -0.6794 -0.7149
 5000SOL     OW15842   4.578   3.371   5.907  0.1266  0.3077  0.3731
 5000SOL    HW115843   4.565   3.317   5.829  0.8573  1.7815 -0.8267
 5000SOL    HW215844   4.491   3.375   5.947 -0.1018 -1.1029  0.0882
 5001SOL     OW15845   2.006   7.415   2.839 -0.3241 -0.2631 -0.0255
 5001SOL    HW115846   2.033   7.384   2.925  0.9015  0.3226 -0.1823
 5001SOL    HW215847   2.021   7.341   2.780 -2.5671 -1.1805  0.4660
 5002SOL     OW15848   0.686   0.218   4.962  0.1363  0.0337 -0.0966
 5002SOL    HW115849   0.644   0.298   4.932 -1.0595 -0.0451  1.2673
 5002SOL    HW215850   0.758   0.247   5.018 -0.9527  0.1819  1.2611
 5003SOL     OW15851   4.468   2.077   7.964  0.1126 -0.6904 -0.1039
 5003SOL    HW115852   4.497   1.990   7.939 -0.0237 -0.6710 -0.3331
 5003SOL    HW215853   4.386   2.062   8.011  1.1152 -0.8564  1.6972
 5004SOL     OW15854   2.481   4.163   3.550 -0.4841 -0.0846  0.7737
 5004SOL    HW115855   2.513   4.074   3.558 -0.1237  0.0909  1.3936
 5004SOL    HW215856   2.512   4.207   3.630  0.8872  1.0863 -0.3539
 5005SOL     OW15857   7.586   5.949   7.605  0.4598 -0.0872 -0.0412
 5005SOL    HW115858   7.556   6.039   7.617 -2.8045 -1.0797  0.0721
 5005SOL    HW215859   7.600   5.916   7.694 -0.6568 -0.3787  0.0335
 5006SOL     OW15860   6.395   6.814   0.294 -0.0219  0.1965  0.4515
 5006SOL    HW115861   6.360   6.788   0.208 -0.0593  2.8329 -0.4193
 5006SOL    HW215862   6.443   6.737   0.324 -0.0792 -0.8603 -1.8895
 5007SOL     OW15863   0.377   3.062   5.405 -0.3629  0.3109  0.1636
 5007SOL    HW115864   0.378   3.049   5.500  0.8502  1.3070  0.3161
 5007SOL    HW215865   0.330   3.144   5.393  0.0792  0.5428 -0.0247
 5008SOL     OW15866   3.127   0.131   5.514  0.4945  0.0390 -0.1154
 5008SOL    HW115867   3.107   0.169   5.600  0.3271 -1.6064  0.6127
 5008SOL    HW215868   3.096   0.041   5.520  1.3172 -0.3718 -1.6032
 5009SOL     OW15869   7.415   4.948   4.954 -0.3359 -0.6524  0.1180
 5009SOL    HW115870   7.459   4.914   4.876 -0.2813 -1.1939  0.3791
 5009SOL    HW215871   7.453   4.898   5.026  1.0244  1.1647  0.7301
 5010SOL     OW15872   3.332   7.802   7.840 -0.3981  0.4033  0.2364
 5010SOL    HW115873   3.393   7.843   7.779 -1.2137  1.5167  0.1415
 5010SOL    HW215874   3.281   7.741   7.786 -0.8573  1.1024 -0.1359
 5011SOL     OW15875   4.616   6.882   3.539 -0.6926  0.0117  0.7423
 5011SOL    HW115876   4.680   6.917   3.601  1.5276 -0.4307 -1.1513
 5011SOL    HW215877   4.657   6.802   3.506 -1.0229  1.0156 -2.3923
 5012SOL     OW15878   2.240   3.219   5.759  0.5342  0.2225  0.1144
 5012SOL    HW115879   2.213   3.227   5.668 -1.6809 -0.7254  0.6461
 5012SOL    HW215880   2.227   3.127   5.781 -1.1084  0.8187  1.9726
 5013SOL     OW15881   1.012   1.885   8.017  0.0897  0.4238 -0.4109
 5013SOL    HW115882   0.976   1.967   8.052  1.4603 -0.0575  2.4166
 5013SOL    HW215883   0.938   1.825   8.015 -0.1652  0.6306  1.3292
 5014SOL     OW15884   4.106   6.152   1.079 -0.5690  0.1749 -0.3015
 5014SOL    HW115885   4.043   6.212   1.039 -1.8179 -0.5079  0.5509
 5014SOL    HW215886   4.126   6.089   1.010 -0.3355  0.7650 -0.7741
 5015SOL     OW15887   4.176   5.950   2.810 -0.1142  0.1291  0.6711
 5015SOL    HW115888   4.108   5.902   2.762 -1.4446  1.0505  1.5568
 5015SOL    HW215889   4.242   5.884   2.831  0.6242 -0.3105 -2.4839
 5016SOL     OW15890   7.459   0.499   4.749 -0.2568  0.0143  0.2001
 5016SOL    HW115891   7.364   0.490   4.743 -0.2882 -0.4322  1.2554
 5016SOL    HW215892   7.493   0.410   4.740  0.1195  0.2336 -0.7798
 5017SOL     OW15893   1.233   6.633   6.847  0.0361  0.9240  0.3103
 5017SOL    HW115894   1.321   6.606   6.824 -0.2974  0.1129 -0.0232
 5017SOL    HW215895   1.224   6.609   6.940 -0.3275 -0.3149 -0.0349
 5018SOL     OW15896   3.101   0.355   2.718  0.9248  0.2845  0.1442
 5018SOL    HW115897   3.043   0.424   2.751  0.9145  0.0586  0.5936
 5018SOL    HW215898   3.134   0.311   2.796 -0.1370 -1.1094 -0.1531
 5019SOL     OW15899   1.451   7.437   5.083  0.0095  0.0115  0.1331
 5019SOL    HW115900   1.368   7.439   5.035 -0.2936  1.8522  0.6341
 5019SOL    HW215901   1.432   7.388   5.163 -0.3410 -0.3515 -0.1675
 5020SOL     OW15902   5.114   5.916   1.888  0.1321 -0.5346 -0.2663
 5020SOL    HW115903   5.028   5.891   1.923 -0.7947  0.5949 -1.6463
 5020SOL    HW215904   5.152   5.833   1.857 -0.3465 -1.0687  0.5202
 5021SOL     OW15905   8.166   3.421   1.055 -0.7592  0.0853  0.1251
 5021SOL    HW115906   8.111   3.434   1.132  0.6380 -1.5916  1.4770
 5021SOL    HW215907   8.163   3.326   1.040  0.1978  0.2142 -0.9696
 5022SOL     OW15908   1.913   5.787   4.804 -0.0211 -0.0803 -0.7246
 5022SOL    HW115909   1.820   5.768   4.816 -0.2315  1.0418 -0.4490
 5022SOL    HW215910   1.955   5.755   4.883  0.0229 -1.6483 -1.3343
 5023SOL     OW15911   4.969   2.372   0.377  0.1283  0.2845  0.2413
 5023SOL    HW115912   4.890   2.417   0.407  0.6392  1.3737 -0.0256
 5023SOL    HW215913   4.961   2.370   0.282  0.8132  1.1548  0.1563
 5024SOL     OW15914   6.867   5.169   2.583 -0.4668  0.4637  0.2534
 5024SOL    HW115915   6.893   5.181   2.674 -0.3902  2.7719 -0.0159
 5024SOL    HW215916   6.950   5.156   2.536 -0.4458  0.1180  0.3773
 5025SOL     OW15917   1.726   0.450   7.047 -0.1852  0.0887  0.0243
 5025SOL    HW115918   1.755   0.401   7.123 -0.2302  1.2123  0.7831
 5025SOL    HW215919   1.666   0.391   7.002 -0.5525 -0.3963  1.1273
 5026SOL     OW15920   1.855   1.994   0.169  0.4072  0.0661 -0.3986
 5026SOL    HW115921   1.773   2.031   0.201  1.0738  0.4559  0.9418
 5026SOL    HW215922   1.844   1.899   0.179 -0.0862  0.0860 -0.7410
 5027SOL     OW15923   3.418   7.890   6.173 -0.0357  0.6746 -0.3012
 5027SOL    HW115924   3.410   7.881   6.078  0.5488  0.4049 -0.3286
 5027SOL    HW215925   3.368   7.969   6.194  1.5782  1.9624 -1.0951
 5028SOL     OW15926   1.031   7.162   7.656  0.2378  0.0215 -0.9555
 5028SOL    HW115927   0.981   7.162   7.738  0.0122  1.7921 -1.0636
 5028SOL    HW215928   0.968   7.133   7.590 -0.5860  1.8217 -1.0185
 5029SOL     OW15929   4.003   6.642   7.166 -0.3019 -0.1365 -0.1723
 5029SOL    HW115930   4.024   6.708   7.099 -3.5071  1.5217  0.2595
 5029SOL    HW215931   4.050   6.672   7.244 -1.1922  1.3630 -0.1590
 5030SOL     OW15932   0.135   0.929   2.944  0.3881  0.3529 -0.0161
 5030SOL    HW115933   0.057   0.942   2.890  0.9893  0.3860 -0.9025
 5030SOL    HW215934   0.101   0.896   3.027 -0.4973 -0.5861 -0.7204
 5031SOL     OW15935   4.707   4.656   5.570  0.4619  0.3019  0.3628
 5031SOL    HW115936   4.744   4.657   5.658  0.2084  0.8575  0.4686
 5031SOL    HW215937   4.781   4.676   5.513  0.3350  1.4621  0.5770
 5032SOL     OW15938   3.710   1.224   2.825 -0.0261 -0.1058  0.2805
 5032SOL    HW115939   3.684   1.209   2.735  0.1109 -0.1138  0.2414
 5032SOL    HW215940   3.681   1.146   2.872  1.1563 -0.7609 -0.0213
 5033SOL     OW15941   7.155   7.716   0.641 -0.5148 -0.3140  0.0751
 5033SOL    HW115942   7.248   7.707   0.661 -0.5618 -0.5740  0.1792
 5033SOL    HW215943   7.147   7.689   0.549 -0.7323 -1.8803  0.5265
 5034SOL     OW15944   1.545   3.143   5.966 -0.3029  0.5748  0.0704
 5034SOL    HW115945   1.575   3.074   6.025 -1.9801 -0.6261 -0.4007
 5034SOL    HW215946   1.562   3.225   6.013  0.4273 -0.2320  1.2483
 5035SOL     OW15947   4.408   3.053   5.931  0.3226 -0.1946 -0.5527
 5035SOL    HW115948   4.370   3.116   5.992  0.8816  1.3783 -1.7470
 5035SOL    HW215949   4.381   3.084   5.844  1.4343 -1.0338 -1.2368
 5036SOL     OW15950   7.172   7.985   3.952  0.0209 -0.1579  0.2277
 5036SOL    HW115951   7.233   8.026   4.013 -1.1420  0.4964  0.9841
 5036SOL    HW215952   7.105   8.051   3.937  0.4067 -0.1910 -2.0141
 5037SOL     OW15953   6.255   0.662   1.260  0.3232 -0.1174 -0.1281
 5037SOL    HW115954   6.291   0.700   1.340 -0.3003 -1.2172  0.7096
 5037SOL    HW215955   6.324   0.602   1.230  1.1516  1.3246 -1.2426
 5038SOL     OW15956   4.973   4.416   7.593 -0.1223  0.3166  0.3799
 5038SOL    HW115957   5.016   4.470   7.526  1.1778  0.7182  1.4803
 5038SOL    HW215958   4.932   4.345   7.544  2.7587 -0.7228 -0.7293
 5039SOL     OW15959   0.335   1.006   7.300 -0.5882  0.3107 -0.4833
 5039SOL    HW115960   0.286   0.983   7.379  0.2352 -1.3022 -0.4043
 5039SOL    HW215961   0.293   0.955   7.230  1.0383 -1.2508 -0.3809
 5040SOL     OW15962   3.827   4.365   0.288  0.1473  0.0520  0.0543
 5040SOL    HW115963   3.908   4.345   0.242  0.8125  1.8271  0.3783
 5040SOL    HW215964   3.797   4.281   0.323  1.2785 -0.7934 -0.9509
 5041SOL     OW15965   5.646   6.522   6.899 -0.1516 -0.0609 -0.3351
 5041SOL    HW115966   5.617   6.551   6.812 -0.3241  1.1732  0.1123
 5041SOL    HW215967   5.591   6.570   6.960  1.0798  0.3632  0.4933
 5042SOL     OW15968   0.826   3.155   7.046  0.1443  0.1612 -0.2060
 5042SOL    HW115969   0.746   3.133   6.998 -0.0984  1.0634 -0.2438
 5042SOL    HW215970   0.843   3.079   7.102 -0.8120  0.0047 -0.1127
 5043SOL     OW15971   3.226   1.804   4.198  0.3335  0.0462 -0.2836
 5043SOL    HW115972   3.133   1.782   4.197  0.2454  0.2146  1.6681
 5043SOL    HW215973   3.230   1.890   4.239  1.3720 -0.0111 -0.2279
 5044SOL     OW15974   8.063   3.558   7.306 -0.0328 -0.1616 -0.5423
 5044SOL    HW115975   7.976   3.520   7.311  0.2218 -0.6091  1.8475
 5044SOL    HW215976   8.122   3.482   7.308  0.4179  0.1926  0.9419
 5045SOL     OW15977   7.984   3.575   4.423 -0.1519  0.5214  0.6363
 5045SOL    HW115978   8.064   3.619   4.393 -0.2928 -0.1150 -0.7603
 5045SOL    HW215979   7.998   3.483   4.401 -0.8707  0.2518  1.2818
 5046SOL     OW15980   4.433   1.017   1.497 -0.6812 -0.1282 -0.3539
 5046SOL    HW115981   4.479   0.964   1.432  0.3078 -0.4144  0.5484
 5046SOL    HW215982   4.377   1.076   1.446 -0.3736 -0.7548 -1.4276
 5047SOL     OW15983   3.564   4.661   2.206 -0.1683 -0.3270 -0.0877
 5047SOL    HW115984   3.588   4.751   2.227 -0.6544 -0.0202 -0.7898
 5047SOL    HW215985   3.615   4.641   2.128 -0.4974 -0.4503 -0.2735
 5048SOL     OW15986   7.944   4.609   5.679  0.4201  0.0413 -0.1473
 5048SOL    HW115987   8.018   4.662   5.710  2.3914 -2.0667 -0.9342
 5048SOL    HW215988   7.976   4.518   5.683 -1.6680 -0.8646 -1.7807
 5049SOL     OW15989   4.600   4.108   2.929 -0.4230  0.0471 -0.4374
 5049SOL    HW115990   4.610   4.128   3.022  0.0842 -1.7174 -0.0742
 5049SOL    HW215991   4.506   4.091   2.919 -0.4527  0.0559 -0.1945
 5050SOL     OW15992   6.917   6.097   3.820  0.0227  0.2662  0.0430
 5050SOL    HW115993   6.914   6.042   3.899 -0.1560 -1.2281 -0.9694
 5050SOL    HW215994   7.009   6.097   3.794 -0.0785 -0.0824 -0.3181
 5051SOL     OW15995   0.357   2.768   8.157  0.3968 -0.0519 -0.4826
 5051SOL    HW115996   0.334   2.836   8.220  3.3743  0.8731 -0.2097
 5051SOL    HW215997   0.368   2.689   8.211 -0.5327 -0.1480 -0.4160
 5052SOL     OW15998   8.087   1.894   5.280  0.2933  0.5175 -0.3599
 5052SOL    HW115999   8.064   1.958   5.212  0.3186  0.8107 -0.0933
 5052SOL    HW216000   8.130   1.823   5.232 -1.1631 -0.0490 -0.8656
 5053SOL     OW16001   3.768   6.884   6.933  0.3056  0.8523 -0.3251
 5053SOL    HW116002   3.734   6.795   6.918  0.0196  0.9661 -0.3508
 5053SOL    HW216003   3.852   6.870   6.977  0.2555  0.5679 -0.3185
 5054SOL     OW16004   1.933   0.860   7.944 -0.6841  1.3274  0.4634
 5054SOL    HW116005   1.924   0.858   7.849  3.2308 -1.0787 -0.0939
 5054SOL    HW216006   1.968   0.947   7.963 -1.8019  1.9421 -0.2145
 5055SOL     OW16007   7.127   1.912   1.956 -0.0822 -0.1815 -0.4385
 5055SOL    HW116008   7.063   1.976   1.926  0.4558 -0.6625 -2.8287
 5055SOL    HW216009   7.189   1.962   2.008 -2.0296  0.3955  1.4609
 5056SOL     OW16010   4.738   1.908   6.564 -0.0170  0.5775 -0.0848
 5056SOL    HW116011   4.678   1.970   6.522 -0.6579  0.6114  0.8482
 5056SOL    HW216012   4.680   1.841   6.601  0.6123 -0.0771 -0.2779
 5057SOL     OW16013   5.884   0.787   0.284 -0.0060  0.2254  0.2145
 5057SOL    HW116014   5.943   0.840   0.231  0.0572  0.2848  0.3435
 5057SOL    HW216015   5.854   0.847   0.352  1.5560 -0.4102  1.5198
 5058SOL     OW16016   2.274   0.740   1.860  0.0156  0.2121  0.2002
 5058SOL    HW116017   2.244   0.673   1.797  0.2153  0.3275 -0.0192
 5058SOL    HW216018   2.342   0.696   1.910 -0.3322  0.0326  0.5232
 5059SOL     OW16019   3.066   1.953   3.480 -0.0238  0.0200 -0.4569
 5059SOL    HW116020   2.991   1.950   3.539 -0.0762 -0.9695 -0.5607
 5059SOL    HW216021   3.064   2.042   3.445 -0.4263  0.3904  0.4599
 5060SOL     OW16022   1.993   4.759   7.726 -0.4728  0.3764  0.0627
 5060SOL    HW116023   2.067   4.754   7.787  0.0394 -0.8076 -0.6131
 5060SOL    HW216024   2.033   4.788   7.644 -0.9605  0.8642 -0.0009
 5061SOL     OW16025   5.533   3.757   1.129 -0.6641  0.4650 -0.5079
 5061SOL    HW116026   5.570   3.775   1.043 -0.8805  1.2557 -0.4388
 5061SOL    HW216027   5.531   3.661   1.134 -0.2235  0.4106 -1.1921
 5062SOL     OW16028   3.015   3.627   7.861 -0.0612  0.3142 -0.1582
 5062SOL    HW116029   2.928   3.645   7.827 -0.5626  2.4214  1.9480
 5062SOL    HW216030   3.065   3.707   7.843  0.3030  0.5940  1.8246
 5063SOL     OW16031   4.598   2.679   1.426 -0.1990  0.1334 -0.0883
 5063SOL    HW116032   4.530   2.692   1.491 -0.7452 -0.3416 -0.5523
 5063SOL    HW216033   4.625   2.587   1.437 -0.0031  0.1702 -0.2506
 5064SOL     OW16034   4.235   2.499   3.154  0.5305 -0.0190 -0.2907
 5064SOL    HW116035   4.305   2.535   3.208  0.3634 -0.7497  0.4397
 5064SOL    HW216036   4.159   2.555   3.171  0.9857  0.9346 -1.2869
 5065SOL     OW16037   3.676   0.161   8.005 -0.9348  0.2559  0.4109
 5065SOL    HW116038   3.587   0.148   7.975 -2.0646 -1.1036  3.8415
 5065SOL    HW216039   3.691   0.090   8.068  2.9100 -0.0985 -0.6146
 5066SOL     OW16040   2.008   7.224   7.032  0.4962  0.2760 -0.2148
 5066SOL    HW116041   1.922   7.250   7.064  0.8837  0.1409  0.9964
 5066SOL    HW216042   2.057   7.202   7.111  1.8409  0.9496 -0.8208
 5067SOL     OW16043   7.038   5.913   4.093 -0.0986 -0.1534 -0.0220
 5067SOL    HW116044   6.993   5.833   4.066  1.4611 -0.5683 -1.5891
 5067SOL    HW216045   7.131   5.887   4.097  0.0983  0.6467  3.0821
 5068SOL     OW16046   2.245   1.473   7.103 -0.0641  0.0100  0.3947
 5068SOL    HW116047   2.284   1.477   7.190 -2.2162 -1.4814  1.5324
 5068SOL    HW216048   2.156   1.505   7.116 -0.3813 -0.1328 -1.2807
 5069SOL     OW16049   0.317   5.745   8.118  0.1126  0.3330 -0.7201
 5069SOL    HW116050   0.341   5.751   8.210  0.3641  3.8487 -0.8861
 5069SOL    HW216051   0.397   5.719   8.073  0.4365  0.2431 -0.0944
 5070SOL     OW16052   2.937   3.652   3.842  0.0187 -0.0414  0.5911
 5070SOL    HW116053   3.017   3.607   3.814 -0.7108 -1.5919  0.9369
 5070SOL    HW216054   2.954   3.676   3.933  1.4530  2.8806 -0.3157
 5071SOL     OW16055   2.370   3.604   6.301  0.0561 -0.1086  0.4831
 5071SOL    HW116056   2.347   3.516   6.333 -3.5466 -1.5519 -4.7374
 5071SOL    HW216057   2.439   3.588   6.236  0.1263  1.1096  0.2326
 5072SOL     OW16058   6.391   7.579   5.647  0.0054  0.0186  0.2504
 5072SOL    HW116059   6.311   7.632   5.639 -0.5770 -0.9975 -0.8821
 5072SOL    HW216060   6.451   7.615   5.582  0.1662  0.2273  0.5095
 5073SOL     OW16061   0.600   1.917   1.013 -0.1891 -0.1755  0.8909
 5073SOL    HW116062   0.548   1.885   1.087 -0.5556  0.1487  0.7791
 5073SOL    HW216063   0.561   2.002   0.993  1.0744  0.5832  1.5109
 5074SOL     OW16064   1.921   4.630   1.348  0.1687  0.0352 -0.1706
 5074SOL    HW116065   1.911   4.559   1.285 -0.0619  0.0569 -0.1584
 5074SOL    HW216066   1.974   4.592   1.418  0.0838 -0.1104 -0.1854
 5075SOL     OW16067   4.522   1.576   0.809  0.7034 -0.1017 -0.1510
 5075SOL    HW116068   4.495   1.507   0.747 -0.8149 -0.9392  1.3475
 5075SOL    HW216069   4.500   1.658   0.764 -0.1133 -0.6782 -0.8490
 5076SOL     OW16070   3.351   0.062   4.736 -0.4209  0.5427 -0.0924
 5076SOL    HW116071   3.335   0.010   4.814  0.6101 -1.7773 -1.3221
 5076SOL    HW216072   3.268   0.064   4.690 -0.3455 -0.4853 -0.2823
 5077SOL     OW16073   5.319   4.165   0.782  0.0166  0.0205  0.4215
 5077SOL    HW116074   5.274   4.245   0.756 -0.6592 -0.3147  0.5385
 5077SOL    HW216075   5.406   4.194   0.810  0.6695  0.4593 -1.8175
 5078SOL     OW16076   0.827   4.192   0.420 -0.0623 -0.7207  0.2085
 5078SOL    HW116077   0.752   4.172   0.476 -0.1510 -1.6046 -0.2127
 5078SOL    HW216078   0.902   4.154   0.466  0.1862  0.4058  0.7701
 5079SOL     OW16079   7.631   2.872   8.180  0.0325 -0.7036 -0.2457
 5079SOL    HW116080   7.660   2.962   8.196  1.5482 -1.2347  0.2716
 5079SOL    HW216081   7.613   2.868   8.086 -1.0690  0.3997 -0.0901
 5080SOL     OW16082   6.655   6.075   5.713  0.3246  0.6371  0.4656
 5080SOL    HW116083   6.585   6.010   5.714  0.0603  0.9189  0.3801
 5080SOL    HW216084   6.714   6.045   5.644 -0.1903  0.8978 -0.0961
 5081SOL     OW16085   4.378   2.959   4.093  0.5492 -1.2143  0.4950
 5081SOL    HW116086   4.422   2.958   4.008  0.1930 -0.4456  0.2962
 5081SOL    HW216087   4.285   2.962   4.072  0.4842  0.3756  0.8943
 5082SOL     OW16088   0.717   0.406   1.637  0.4988  0.6388 -0.0417
 5082SOL    HW116089   0.628   0.372   1.643  0.9456 -0.5403  0.1011
 5082SOL    HW216090   0.764   0.364   1.709  1.3389  0.7261 -0.5218
 5083SOL     OW16091   1.687   2.647   0.860  0.1872 -0.3096  0.3234
 5083SOL    HW116092   1.693   2.741   0.876  0.6868 -0.6361  2.4060
 5083SOL    HW216093   1.593   2.630   0.854  0.0246  0.1531  1.3209
 5084SOL     OW16094   1.787   6.654   7.487  0.7258 -0.0305  0.3281
 5084SOL    HW116095   1.879   6.637   7.467  1.2672  1.6670  1.1306
 5084SOL    HW216096   1.790   6.721   7.556 -1.1098 -0.0601  0.4778
 5085SOL     OW16097   4.542   7.490   2.222 -0.2100  0.5647  0.1142
 5085SOL    HW116098   4.464   7.537   2.190  1.0759  1.9271 -1.1824
 5085SOL    HW216099   4.525   7.398   2.202 -1.6741  0.7703  0.2921
 5086SOL     OW16100   7.495   1.572   7.634 -0.4087 -0.4416 -0.6152
 5086SOL    HW116101   7.470   1.529   7.715 -0.3059  0.2004 -0.2321
 5086SOL    HW216102   7.549   1.509   7.588  0.0372 -0.5843  0.0960
 5087SOL     OW16103   2.555   2.408   1.873 -0.5721 -0.2422 -0.8227
 5087SOL    HW116104   2.559   2.314   1.892 -0.1906 -0.6211 -2.5773
 5087SOL    HW216105   2.581   2.451   1.955 -0.8405 -1.6469  0.0313
 5088SOL     OW16106   5.739   3.137   5.239  0.7256  0.5177  0.7507
 5088SOL    HW116107   5.751   3.223   5.200 -0.6166  0.2743 -0.2472
 5088SOL    HW216108   5.690   3.153   5.320  0.5471  0.6880  0.6061
 5089SOL     OW16109   7.337   2.216   1.821  0.0961  0.3619 -0.0335
 5089SOL    HW116110   7.407   2.197   1.758 -1.0616  1.0816 -1.5737
 5089SOL    HW216111   7.367   2.173   1.902  2.3921  0.7834 -0.5819
 5090SOL     OW16112   5.060   3.009   1.382  0.4044  0.1543 -0.2611
 5090SOL    HW116113   5.033   2.920   1.359 -0.4259  0.8167 -2.0226
 5090SOL    HW216114   5.003   3.034   1.454  0.0994 -0.4530 -0.2849
 5091SOL     OW16115   5.711   6.313   1.085  0.1226  0.4016 -0.0597
 5091SOL    HW116116   5.682   6.268   1.164 -1.5825  0.2326 -0.7571
 5091SOL    HW216117   5.725   6.243   1.021 -0.0935  0.6628 -0.3959
 5092SOL     OW16118   8.126   3.061   4.991  0.0878  0.1990  0.2996
 5092SOL    HW116119   8.122   2.977   4.945 -0.4012 -0.7571  2.0017
 5092SOL    HW216120   8.217   3.067   5.021 -0.2855 -0.6344  1.7109
 5093SOL     OW16121   3.204   4.788   1.892 -0.2441 -0.2896  0.3049
 5093SOL    HW116122   3.270   4.784   1.823 -0.6192 -1.2670 -0.0049
 5093SOL    HW216123   3.155   4.706   1.884 -1.5801  0.4600  0.4481
 5094SOL     OW16124   4.493   1.335   4.328 -0.2311 -0.0500 -0.9266
 5094SOL    HW116125   4.564   1.394   4.303 -0.6400  0.3554 -1.1595
 5094SOL    HW216126   4.441   1.325   4.248 -0.5444 -0.1823 -0.7100
 5095SOL     OW16127   3.099   4.760   2.865  0.0366  0.7948 -0.4482
 5095SOL    HW116128   3.139   4.744   2.780  0.9581 -0.4396  0.1779
 5095SOL    HW216129   3.037   4.831   2.850  0.9256  1.2994 -1.9215
 5096SOL     OW16130   4.245   0.645   4.643  0.1192 -0.4213  0.4573
 5096SOL    HW116131   4.310   0.712   4.665 -0.2066 -0.3585  1.2659
 5096SOL    HW216132   4.279   0.604   4.564  1.4187 -0.7429  1.1508
 5097SOL     OW16133   7.783   6.032   3.646  0.2434  0.0454  0.2910
 5097SOL    HW116134   7.733   6.094   3.700 -1.5919  0.0685 -1.3279
 5097SOL    HW216135   7.739   5.947   3.661  1.1176 -0.3730  0.5227
 5098SOL     OW16136   1.596   6.449   7.225  0.1099  0.2189 -0.0099
 5098SOL    HW116137   1.558   6.369   7.189  1.2674  0.6577 -2.4375
 5098SOL    HW216138   1.652   6.418   7.296 -3.1789 -0.5868  2.4769
 5099SOL     OW16139   4.616   1.744   4.103  0.2209 -0.0273 -0.1185
 5099SOL    HW116140   4.648   1.748   4.193 -0.3674 -1.2698  0.1619
 5099SOL    HW216141   4.682   1.691   4.056  1.5701  2.2103 -0.9268
 5100SOL     OW16142   6.625   0.735   5.835 -0.5865 -0.7126 -0.0608
 5100SOL    HW116143   6.627   0.676   5.760  1.4683 -2.1838  1.0619
 5100SOL    HW216144   6.662   0.817   5.802  0.4230 -1.3907 -0.6367
 5101SOL     OW16145   7.741   5.327   4.570 -0.2121 -0.0699  0.1477
 5101SOL    HW116146   7.822   5.299   4.614  0.1380  0.2608 -0.2782
 5101SOL    HW216147   7.740   5.276   4.488  0.0457  0.6083 -0.2825
 5102SOL     OW16148   8.141   3.362   3.406  0.3675  0.2783 -0.1714
 5102SOL    HW116149   8.192   3.443   3.407  0.0338  0.5176 -1.2461
 5102SOL    HW216150   8.062   3.383   3.455  0.4075  0.5068 -0.2033
 5103SOL     OW16151   1.984   3.242   3.846 -0.4202 -0.2127  0.0472
 5103SOL    HW116152   1.897   3.214   3.875 -1.5159  0.6959 -2.0675
 5103SOL    HW216153   1.970   3.331   3.812  1.1240 -0.4101 -1.2165
 5104SOL     OW16154   4.463   7.315   4.769  0.4685  0.0148 -0.4259
 5104SOL    HW116155   4.475   7.260   4.846 -1.7624 -0.4807 -0.3676
 5104SOL    HW216156   4.535   7.290   4.711  0.9735 -1.1279  0.6332
 5105SOL     OW16157   0.907   5.601   7.169  0.1706 -0.2485 -0.0442
 5105SOL    HW116158   0.879   5.514   7.198  0.9522  0.1576  2.0925
 5105SOL    HW216159   0.837   5.660   7.198  0.4156  0.0403 -0.0397
 5106SOL     OW16160   4.016   4.283   5.206  0.0876 -0.2991  0.1100
 5106SOL    HW116161   4.012   4.318   5.295  1.4187  0.1039  0.0315
 5106SOL    HW216162   4.067   4.347   5.157  3.0168 -2.4617  0.0604
 5107SOL     OW16163   8.086   5.839   7.445  0.4039 -0.6433  0.1715
 5107SOL    HW116164   8.078   5.749   7.415 -2.2333 -0.4629  0.0970
 5107SOL    HW216165   8.014   5.886   7.402  1.3902  1.3946  0.5872
 5108SOL     OW16166   1.613   0.696   2.506  0.0352  0.3028  0.1073
 5108SOL    HW116167   1.689   0.643   2.532 -0.2640 -0.2983 -0.2370
 5108SOL    HW216168   1.564   0.641   2.446 -0.8160  0.5869  0.5185
 5109SOL     OW16169   3.270   2.202   7.787 -0.3766 -0.3621 -0.8737
 5109SOL    HW116170   3.222   2.281   7.761 -0.0963 -0.0111 -0.3428
 5109SOL    HW216171   3.204   2.132   7.785 -1.2801  0.3471  1.1323
 5110SOL     OW16172   1.996   4.216   8.111 -0.4148  0.4094  0.0457
 5110SOL    HW116173   1.948   4.146   8.156 -0.6084 -0.9078 -2.0632
 5110SOL    HW216174   2.088   4.192   8.122 -0.4152  0.6448  0.5748
 5111SOL     OW16175   2.464   1.127   0.565 -0.8584  0.0343 -0.2715
 5111SOL    HW116176   2.384   1.136   0.616 -0.8396  0.5728 -0.3270
 5111SOL    HW216177   2.509   1.210   0.577  0.9618 -1.1511  1.8791
 5112SOL     OW16178   3.682   0.106   6.452  0.8931  0.4782  0.2790
 5112SOL    HW116179   3.714   0.196   6.442  2.2483  0.0265  0.3088
 5112SOL    HW216180   3.627   0.091   6.376  0.4555  1.4071  0.3968
 5113SOL     OW16181   6.067   7.276   3.044  0.2569 -0.1874 -0.0893
 5113SOL    HW116182   6.106   7.217   2.979 -0.8800  0.1830 -1.1476
 5113SOL    HW216183   6.132   7.282   3.113  0.0476 -3.4424  0.5473
 5114SOL     OW16184   5.350   6.206   1.637 -0.2386 -0.0598  0.5843
 5114SOL    HW116185   5.420   6.191   1.573  0.1428 -0.2142  1.0314
 5114SOL    HW216186   5.388   6.266   1.701 -0.8496  0.6493  0.2978
 5115SOL     OW16187   6.627   2.994   4.873 -0.8719 -0.0336  0.2073
 5115SOL    HW116188   6.590   3.023   4.790 -1.1369 -0.0117  0.3340
 5115SOL    HW216189   6.559   2.942   4.914 -1.5419  1.6406  1.3542
 5116SOL     OW16190   4.887   0.991   5.705 -0.2782  0.5238 -0.1224
 5116SOL    HW116191   4.849   1.006   5.619  0.1240  2.7077  0.0330
 5116SOL    HW216192   4.843   0.912   5.737 -1.5827  0.5775 -1.6718
 5117SOL     OW16193   1.543   6.730   4.321 -0.1699  0.8450 -0.0754
 5117SOL    HW116194   1.460   6.684   4.311  0.3880 -0.1888 -0.1035
 5117SOL    HW216195   1.564   6.761   4.233 -0.2354  0.5903 -0.1812
 5118SOL     OW16196   2.043   1.062   2.222 -0.3764  0.0428 -0.0328
 5118SOL    HW116197   2.062   0.993   2.158 -0.1115  0.6406 -0.6139
 5118SOL    HW216198   2.083   1.140   2.185  1.8156 -0.0386  1.9678
 5119SOL     OW16199   4.748   1.295   1.769 -0.1240  0.5890 -0.0738
 5119SOL    HW116200   4.792   1.221   1.727 -1.0312  0.5036 -0.9185
 5119SOL    HW216201   4.791   1.372   1.733  0.7019  0.4950  0.6707
 5120SOL     OW16202   7.109   5.612   3.194 -0.7425 -0.2685  0.8783
 5120SOL    HW116203   7.028   5.580   3.234 -0.6938 -1.6147 -0.0459
 5120SOL    HW216204   7.162   5.642   3.268 -0.1124 -3.9150  2.1196
 5121SOL     OW16205   0.836   4.497   3.981 -0.0328  0.2538 -0.0078
 5121SOL    HW116206   0.844   4.442   4.060  3.7651 -1.1932 -1.1607
 5121SOL    HW216207   0.895   4.456   3.918 -2.8208  1.3814 -3.7019
 5122SOL     OW16208   0.417   3.848   3.108 -0.1059 -0.0507 -0.3656
 5122SOL    HW116209   0.429   3.896   3.025 -0.5969  1.5567  0.4408
 5122SOL    HW216210   0.416   3.917   3.175 -1.2341 -1.1792  0.8271
 5123SOL     OW16211   2.997   2.863   3.998  0.1387 -0.3633 -0.0472
 5123SOL    HW116212   2.957   2.950   4.011 -0.3564 -0.7170  0.9123
 5123SOL    HW216213   2.955   2.830   3.918 -1.0653 -0.4658  0.5939
 5124SOL     OW16214   3.205   3.161   3.889  0.0402  0.1194  0.2572
 5124SOL    HW116215   3.263   3.085   3.886  0.0645 -0.0634  2.9051
 5124SOL    HW216216   3.220   3.206   3.806  1.6772 -1.5616 -0.4307
 5125SOL     OW16217   3.118   3.671   0.824 -0.4904 -0.0378  0.0960
 5125SOL    HW116218   3.068   3.749   0.799  0.0317 -0.4346 -2.3571
 5125SOL    HW216219   3.054   3.617   0.872 -0.6169  2.2101  2.7756
 5126SOL     OW16220   4.960   0.239   5.970  0.4061  0.3261  0.4427
 5126SOL    HW116221   4.904   0.305   5.929  1.7242  0.6675 -0.8991
 5126SOL    HW216222   4.966   0.266   6.062 -0.0602  1.3625  0.1819
 5127SOL     OW16223   2.369   6.393   4.720  0.2270 -0.0390  0.0780
 5127SOL    HW116224   2.407   6.337   4.652  0.7019 -0.4760  0.6952
 5127SOL    HW216225   2.444   6.423   4.771 -0.2552 -1.2049  1.5398
 5128SOL     OW16226   7.414   3.787   4.925 -0.2046  0.1391  0.1050
 5128SOL    HW116227   7.439   3.697   4.943 -0.8904  0.1103  0.9892
 5128SOL    HW216228   7.324   3.794   4.959  0.2786  1.4847  1.2043
 5129SOL     OW16229   4.445   2.686   1.853  0.5172  0.1180 -0.1735
 5129SOL    HW116230   4.414   2.685   1.763  1.5301 -0.9997 -0.5441
 5129SOL    HW216231   4.441   2.595   1.881 -0.1173  0.4981  1.0451
 5130SOL     OW16232   6.071   1.752   5.367 -0.3388 -0.0124 -0.2383
 5130SOL    HW116233   6.033   1.726   5.451 -0.1535 -0.1465 -0.1947
 5130SOL    HW216234   6.006   1.810   5.328 -1.0748 -1.0562 -0.6321
 5131SOL     OW16235   2.633   3.277   7.478 -0.0708  0.9300  0.4808
 5131SOL    HW116236   2.634   3.232   7.394 -2.5294  0.9370  0.3968
 5131SOL    HW216237   2.617   3.209   7.543 -1.6694  1.3310  0.5580
 5132SOL     OW16238   6.050   5.119   0.167 -0.0510  0.0903  0.4917
 5132SOL    HW116239   6.088   5.063   0.235  0.7844  0.5585  0.4307
 5132SOL    HW216240   6.063   5.071   0.086 -2.6668 -1.3164  0.7839
 5133SOL     OW16241   3.994   2.856   1.755  0.1134  0.1282 -0.5761
 5133SOL    HW116242   4.050   2.833   1.680  0.7490 -1.5198  0.3512
 5133SOL    HW216243   3.939   2.778   1.768 -1.5133  1.2204 -0.6373
 5134SOL     OW16244   1.071   0.075   7.296  0.6095 -0.5088  0.5054
 5134SOL    HW116245   0.976   0.065   7.295  0.6822 -1.2223 -0.0463
 5134SOL    HW216246   1.103  -0.006   7.334  1.0336 -0.6491 -0.1412
 5135SOL     OW16247   0.963   5.255   4.149 -0.3485 -0.3880 -0.1870
 5135SOL    HW116248   0.917   5.207   4.218  1.2072  0.2378  1.3655
 5135SOL    HW216249   1.049   5.214   4.144  0.1510  0.6680 -0.5526
 5136SOL     OW16250   4.467   4.479   5.940 -0.1721 -0.2793 -0.3485
 5136SOL    HW116251   4.427   4.534   6.007  0.1229  1.0819 -1.2488
 5136SOL    HW216252   4.550   4.521   5.921  0.3877 -1.4538 -0.5662
 5137SOL     OW16253   2.561   1.300   3.895  0.6389  0.1213 -0.1655
 5137SOL    HW116254   2.571   1.294   3.991  0.0357  1.1157 -0.0306
 5137SOL    HW216255   2.582   1.213   3.864 -1.5033 -0.9244  1.0813
 5138SOL     OW16256   2.178   5.495   0.562 -0.7200  0.0428  0.4503
 5138SOL    HW116257   2.092   5.487   0.604  0.1178 -0.2732  2.1920
 5138SOL    HW216258   2.169   5.569   0.502 -2.1284  0.1820  0.8065
 5139SOL     OW16259   7.890   7.413   4.172 -0.1002  0.2622  0.9401
 5139SOL    HW116260   7.820   7.475   4.156 -1.2583 -0.9925  0.9523
 5139SOL    HW216261   7.912   7.379   4.085  1.2152  1.3643  0.8106
 5140SOL     OW16262   7.421   5.784   0.650 -0.7927 -0.2270 -0.0909
 5140SOL    HW116263   7.450   5.798   0.740  2.3679  1.5145 -1.2413
 5140SOL    HW216264   7.355   5.852   0.635 -1.7008 -0.8359  0.9917
 5141SOL     OW16265   7.420   7.566   7.915 -0.1222  0.2468 -0.5556
 5141SOL    HW116266   7.444   7.650   7.876  4.2510  0.2950  1.6414
 5141SOL    HW216267   7.419   7.504   7.842  2.1120  1.3083 -1.5588
 5142SOL     OW16268   8.209   0.437   1.885 -0.0630 -0.4117 -0.3572
 5142SOL    HW116269   8.258   0.420   1.805  0.3692  0.1220 -0.2145
 5142SOL    HW216270   8.245   0.375   1.949 -0.1984 -0.6312 -0.4927
 5143SOL     OW16271   7.338   2.363   6.326 -0.1579  0.5334 -0.2079
 5143SOL    HW116272   7.310   2.407   6.406  0.1837 -0.0588  0.2466
 5143SOL    HW216273   7.291   2.280   6.327 -0.4511  0.6856 -0.8279
 5144SOL     OW16274   3.717   4.900   2.769 -0.4143 -0.2421  0.0044
 5144SOL    HW116275   3.691   4.942   2.851  0.9905  0.1438  0.2719
 5144SOL    HW216276   3.693   4.808   2.780  0.6512 -0.3975  1.2626
 5145SOL     OW16277   6.924   2.841   6.481  0.0334 -0.0943 -0.2262
 5145SOL    HW116278   6.864   2.776   6.445 -0.5439 -0.1346  0.7627
 5145SOL    HW216279   6.937   2.905   6.411 -0.6175 -0.4558 -0.6789
 5146SOL     OW16280   2.783   1.756   1.175 -0.0939  0.4299 -0.1064
 5146SOL    HW116281   2.830   1.738   1.094 -0.3738  2.4556 -0.7719
 5146SOL    HW216282   2.792   1.676   1.226  0.6088 -0.6785 -1.8756
 5147SOL     OW16283   2.211   0.568   0.536 -0.1064  0.0887  0.0455
 5147SOL    HW116284   2.268   0.582   0.461 -0.1766  2.9143  0.4031
 5147SOL    HW216285   2.123   0.587   0.504 -0.6001 -1.9052  0.0903
 5148SOL     OW16286   8.069   4.156   3.770  0.0208 -0.7132  0.2330
 5148SOL    HW116287   8.024   4.106   3.838 -0.4452  0.8249  1.0950
 5148SOL    HW216288   8.013   4.231   3.754  1.3277  0.2378 -0.0777
 5149SOL     OW16289   0.135   6.480   3.379  0.2580 -0.2558  0.0073
 5149SOL    HW116290   0.223   6.444   3.384  0.6472  0.7769  2.4310
 5149SOL    HW216291   0.122   6.522   3.465 -2.2767  0.3349 -0.5814
 5150SOL     OW16292   3.168   2.896   4.911 -0.0428 -0.0562  0.4287
 5150SOL    HW116293   3.155   2.863   5.000 -0.2596 -1.3503 -0.0589
 5150SOL    HW216294   3.116   2.838   4.856 -0.4392  1.1297 -0.4934
 5151SOL     OW16295   3.090   7.691   3.277  0.4824  0.0966  0.0266
 5151SOL    HW116296   3.028   7.620   3.292  1.2154 -0.4940  0.3395
 5151SOL    HW216297   3.103   7.693   3.182 -1.0974  1.1831 -0.2027
 5152SOL     OW16298   7.660   2.279   3.908  0.0590 -0.6557 -0.3687
 5152SOL    HW116299   7.634   2.191   3.935 -1.6818  0.3501  1.5180
 5152SOL    HW216300   7.599   2.337   3.953 -0.9230  1.4439 -3.9531
 5153SOL     OW16301   6.133   8.150   0.381  0.2347 -0.3319  0.1638
 5153SOL    HW116302   6.083   8.075   0.350  0.4711 -1.0428  1.4320
 5153SOL    HW216303   6.168   8.122   0.465 -0.7742  1.6611  1.3237
 5154SOL     OW16304   4.021   3.809   7.410  0.2964  0.0921  0.0489
 5154SOL    HW116305   4.036   3.753   7.333 -0.6089  0.0907 -0.1355
 5154SOL    HW216306   4.001   3.748   7.481 -0.1196  0.1492 -0.0166
 5155SOL     OW16307   5.239   0.346   6.891 -0.5237  0.4113  0.9289
 5155SOL    HW116308   5.227   0.301   6.974 -1.4838 -2.1272 -0.4523
 5155SOL    HW216309   5.330   0.328   6.866 -0.6716 -0.1346  0.7591
 5156SOL     OW16310   5.731   3.562   4.275 -0.1294 -0.0829 -0.2104
 5156SOL    HW116311   5.654   3.507   4.287 -0.6350  0.7477  0.4953
 5156SOL    HW216312   5.700   3.635   4.221 -0.1493  0.8704  1.0667
 5157SOL     OW16313   3.067   5.502   4.608 -0.6144 -0.4509 -0.0376
 5157SOL    HW116314   3.031   5.486   4.696 -1.6307  1.7135  0.0245
 5157SOL    HW216315   3.149   5.548   4.624 -1.1497  0.5912 -0.1808
 5158SOL     OW16316   6.697   0.337   6.508  0.0886  0.3135 -0.0351
 5158SOL    HW116317   6.635   0.408   6.493  1.5112  1.7084  0.3853
 5158SOL    HW216318   6.683   0.311   6.599 -0.9039 -0.4427 -0.3912
 5159SOL     OW16319   1.656   2.443   4.767  0.6868  0.3608  0.5374
 5159SOL    HW116320   1.611   2.526   4.749  1.3123  0.7420  0.7113
 5159SOL    HW216321   1.741   2.451   4.723 -0.0169 -1.0109 -1.1819
 5160SOL     OW16322   7.220   3.209   2.993  0.1597 -0.7942  0.0095
 5160SOL    HW116323   7.236   3.131   3.046 -1.7888  0.1514  2.1559
 5160SOL    HW216324   7.126   3.226   3.002  0.6670  2.4143  0.5396
 5161SOL     OW16325   2.783   4.043   3.473  0.2287 -0.1245 -0.2883
 5161SOL    HW116326   2.765   4.127   3.515  1.0379 -0.3868  0.6176
 5161SOL    HW216327   2.706   3.990   3.494  1.0777 -0.6088  1.8832
 5162SOL     OW16328   0.354   4.728   6.034 -0.4184 -0.3621 -0.5767
 5162SOL    HW116329   0.438   4.700   6.070  0.1262  0.7312 -0.9242
 5162SOL    HW216330   0.369   4.819   6.007 -1.6474 -0.2250 -0.8694
 5163SOL     OW16331   3.075   6.771   6.664  0.1430  0.3148  0.6321
 5163SOL    HW116332   2.993   6.723   6.679  0.5963 -0.5847  0.3093
 5163SOL    HW216333   3.056   6.828   6.590  0.3311 -1.2318 -0.6596
 5164SOL     OW16334   8.092   3.123   2.369  0.5518 -0.3600  0.4519
 5164SOL    HW116335   8.074   3.072   2.449  0.3036 -1.9780 -0.5884
 5164SOL    HW216336   8.064   3.212   2.391 -1.3399 -1.1448  1.5368
 5165SOL     OW16337   1.102   3.832   5.074 -0.0496  0.3551 -0.2800
 5165SOL    HW116338   1.046   3.817   5.150  0.7728  0.1905  0.3076
 5165SOL    HW216339   1.049   3.887   5.016 -1.0655 -0.3478 -0.0445
 5166SOL     OW16340   5.914   2.605   7.813 -0.2043  0.3127 -0.4947
 5166SOL    HW116341   6.008   2.614   7.799  0.1106 -0.6378  0.8033
 5166SOL    HW216342   5.886   2.688   7.851 -0.2588  1.2639 -2.4824
 5167SOL     OW16343   6.417   5.145   4.365  0.1721  0.4062 -0.4362
 5167SOL    HW116344   6.422   5.083   4.438  0.0824 -0.0105 -0.7754
 5167SOL    HW216345   6.477   5.215   4.389 -0.9512  1.0085  0.7156
 5168SOL     OW16346   1.456   7.646   5.387 -0.5357  0.6059  0.4515
 5168SOL    HW116347   1.533   7.696   5.360 -0.3805 -0.2011 -0.6931
 5168SOL    HW216348   1.482   7.555   5.377 -1.1392  0.3001  1.5456
 5169SOL     OW16349   4.410   2.094   6.080  0.3400 -0.1168  0.4821
 5169SOL    HW116350   4.360   2.174   6.098  1.0271  0.9096 -1.8569
 5169SOL    HW216351   4.362   2.051   6.009  1.1380 -0.6767  0.2681
 5170SOL     OW16352   6.109   1.904   4.187  0.7077 -0.3101  0.1334
 5170SOL    HW116353   6.172   1.925   4.118  1.5502 -0.1814  0.9251
 5170SOL    HW216354   6.118   1.975   4.250  0.7014 -0.9610  0.8774
 5171SOL     OW16355   2.513   3.369   1.000  0.0883  0.1247  0.0601
 5171SOL    HW116356   2.551   3.302   1.056  0.1537 -0.3092 -0.5016
 5171SOL    HW216357   2.430   3.391   1.043  0.5302  0.4122  0.7846
 5172SOL     OW16358   3.301   1.574   1.671 -0.4738 -0.0119  0.2501
 5172SOL    HW116359   3.365   1.570   1.742  1.5758  0.7150 -1.4440
 5172SOL    HW216360   3.236   1.638   1.701 -0.3834 -0.6516  1.9584
 5173SOL     OW16361   6.603   8.161   1.710 -0.1884  0.7977  0.4241
 5173SOL    HW116362   6.554   8.238   1.741  0.8004  1.1661  1.1228
 5173SOL    HW216363   6.622   8.180   1.618 -1.3938  0.6207  0.1221
 5174SOL     OW16364   2.372   4.700   5.561  0.1138 -0.1857  0.1763
 5174SOL    HW116365   2.454   4.668   5.598 -0.3293 -0.4845  0.9138
 5174SOL    HW216366   2.307   4.685   5.629 -0.5002  0.3400 -0.2792
 5175SOL     OW16367   2.299   4.303   6.031 -0.1156  0.0897  0.8190
 5175SOL    HW116368   2.260   4.382   6.068  0.7887  1.1920 -0.4911
 5175SOL    HW216369   2.359   4.335   5.964  0.0590 -1.7302  0.0549
 5176SOL     OW16370   1.716   6.314   5.173 -0.5182  0.1305 -0.1409
 5176SOL    HW116371   1.728   6.279   5.261  2.3554 -1.8056 -1.1468
 5176SOL    HW216372   1.718   6.237   5.116 -1.5434  1.3841 -1.9895
 5177SOL     OW16373   7.388   6.379   5.128  0.2187  0.6375  0.5370
 5177SOL    HW116374   7.442   6.432   5.186  3.1658 -1.4478 -0.1041
 5177SOL    HW216375   7.341   6.319   5.186  1.3663  0.0989  0.9279
 5178SOL     OW16376   0.828   2.014   1.997  0.5933 -0.3974 -0.0651
 5178SOL    HW116377   0.828   2.070   1.919  1.6503 -2.1057 -1.3833
 5178SOL    HW216378   0.900   1.952   1.982  0.8490 -0.7713  2.3161
 5179SOL     OW16379   1.609   2.646   2.979 -0.7792  0.2133  0.2134
 5179SOL    HW116380   1.664   2.668   3.054 -0.3602 -0.7559  0.2085
 5179SOL    HW216381   1.531   2.604   3.017 -0.4364 -0.5425  0.1135
 5180SOL     OW16382   4.556   1.240   3.344  0.6968  0.5938 -0.3228
 5180SOL    HW116383   4.511   1.232   3.428  1.3621  0.1382  0.0077
 5180SOL    HW216384   4.587   1.331   3.342  0.4878  0.6689 -0.1717
 5181SOL     OW16385   1.935   0.284   3.149 -0.1813  0.0444  0.2338
 5181SOL    HW116386   1.980   0.250   3.072  1.1230 -0.6457  1.2728
 5181SOL    HW216387   1.857   0.328   3.114  0.9107  0.6417 -1.5549
 5182SOL     OW16388   3.620   4.108   6.551  0.0657  0.2167 -0.3048
 5182SOL    HW116389   3.542   4.055   6.533  0.1048  0.5215 -1.4773
 5182SOL    HW216390   3.605   4.145   6.638 -1.2691  0.5582 -0.6546
 5183SOL     OW16391   3.043   6.243   7.002 -0.2641 -0.2738  0.3824
 5183SOL    HW116392   2.959   6.254   7.045 -0.4000  1.7823 -0.3139
 5183SOL    HW216393   3.088   6.326   7.014  1.0688 -0.8159 -0.5306
 5184SOL     OW16394   3.985   7.048   1.184 -0.2866 -0.3952 -0.2892
 5184SOL    HW116395   3.964   7.023   1.273 -1.3823 -2.2351 -1.0248
 5184SOL    HW216396   3.906   7.090   1.150 -0.6742 -1.7167 -1.0819
 5185SOL     OW16397   6.254   5.436   3.005 -0.1315 -0.4323  0.0377
 5185SOL    HW116398   6.197   5.457   3.079 -0.4202 -0.4347 -0.1808
 5185SOL    HW216399   6.341   5.424   3.043 -0.0441  0.7113  0.2363
 5186SOL     OW16400   6.923   0.880   6.171 -0.3852  0.2176 -0.4088
 5186SOL    HW116401   6.914   0.791   6.135 -0.0365 -0.5372  1.2866
 5186SOL    HW216402   6.838   0.921   6.153 -0.8556 -0.7500 -0.4828
 5187SOL     OW16403   2.226   1.061   6.363  0.6095  0.1554  0.5104
 5187SOL    HW116404   2.146   1.110   6.345  1.0384  0.8324  0.4234
 5187SOL    HW216405   2.197   0.987   6.416 -0.5334 -1.2205 -1.8303
 5188SOL     OW16406   3.369   2.955   3.849 -0.3436 -0.1100 -0.2072
 5188SOL    HW116407   3.319   2.933   3.771 -1.0972  0.1074  0.2032
 5188SOL    HW216408   3.346   2.887   3.913  0.8855 -0.7545 -0.4182
 5189SOL     OW16409   2.129   3.429   0.900 -0.5962 -0.9826  0.0675
 5189SOL    HW116410   2.046   3.409   0.856 -0.6638 -1.5877  0.4496
 5189SOL    HW216411   2.197   3.399   0.839 -0.6575 -0.6205 -0.1826
 5190SOL     OW16412   1.503   5.084   1.273  0.5963 -1.1017  0.1194
 5190SOL    HW116413   1.588   5.121   1.296  0.5384 -0.6242 -0.4108
 5190SOL    HW216414   1.523   5.013   1.213  0.5955 -0.6402 -0.4351
 5191SOL     OW16415   2.614   0.932   0.696 -0.0950 -0.1485 -0.1358
 5191SOL    HW116416   2.568   0.999   0.645  0.3714  1.1029  1.0165
 5191SOL    HW216417   2.669   0.887   0.632 -0.4139  0.5750 -0.9443
 5192SOL     OW16418   2.116   5.959   2.752  0.6132 -0.0601 -0.1986
 5192SOL    HW116419   2.194   5.996   2.794  0.1092  0.6138  0.1731
 5192SOL    HW216420   2.126   5.865   2.761  1.6523 -0.0070 -0.6413
 5193SOL     OW16421   5.082   3.760   0.951  0.6147  0.0278  0.1309
 5193SOL    HW116422   5.118   3.671   0.950 -1.9792 -1.1133 -1.7793
 5193SOL    HW216423   5.124   3.803   0.876 -1.2149 -1.0456 -1.6036
 5194SOL     OW16424   4.089   7.454   7.297 -0.0121 -0.3318 -0.3170
 5194SOL    HW116425   4.076   7.545   7.271  1.7812  0.2885  0.7868
 5194SOL    HW216426   4.003   7.425   7.327 -1.0075  0.4213 -2.3012
 5195SOL     OW16427   6.270   5.205   7.976 -0.5129  0.4342 -0.6203
 5195SOL    HW116428   6.299   5.115   7.965  1.3712  0.9530 -0.2575
 5195SOL    HW216429   6.219   5.204   8.057  0.3641 -0.1529 -0.0509
 5196SOL     OW16430   3.292   7.728   4.383  0.3103  0.0595  0.1912
 5196SOL    HW116431   3.285   7.663   4.453  0.6090 -1.7778 -1.4259
 5196SOL    HW216432   3.228   7.700   4.317  0.2594  1.5739 -0.4562
 5197SOL     OW16433   5.476   3.621   7.674  0.2220  0.4338  0.2358
 5197SOL    HW116434   5.485   3.672   7.755 -0.2619  1.1589 -0.1542
 5197SOL    HW216435   5.555   3.569   7.670  0.1980  0.2969  1.2453
 5198SOL     OW16436   4.034   3.782   2.379  0.1957  0.0619 -0.2848
 5198SOL    HW116437   3.960   3.837   2.354  0.7317 -0.4590 -3.5612
 5198SOL    HW216438   4.110   3.824   2.338  1.2337 -1.0034  0.4725
 5199SOL     OW16439   7.969   6.214   6.146  0.5472 -0.2597 -0.2058
 5199SOL    HW116440   7.959   6.193   6.239 -0.1715 -0.4098 -0.3158
 5199SOL    HW216441   7.963   6.129   6.102 -0.3337 -0.0633 -0.4825
 5200SOL     OW16442   6.663   3.212   7.012 -0.3819 -0.0276  0.3324
 5200SOL    HW116443   6.627   3.140   6.961  0.6035 -1.4676  1.5414
 5200SOL    HW216444   6.644   3.188   7.103 -1.1363  1.8994  0.7276
 5201SOL     OW16445   4.269   0.479   3.689 -0.2334 -0.7955 -0.5803
 5201SOL    HW116446   4.235   0.412   3.748 -0.7646  0.5739  0.7236
 5201SOL    HW216447   4.312   0.542   3.746 -1.4016  0.9658 -1.5410
 5202SOL     OW16448   1.144   6.134   1.728  0.2395 -0.0882 -0.4030
 5202SOL    HW116449   1.226   6.115   1.682 -0.2022 -1.7736 -0.5975
 5202SOL    HW216450   1.116   6.218   1.693  1.6830  0.3305 -0.6204
 5203SOL     OW16451   1.517   5.404   3.591 -0.1616  0.0705 -0.0986
 5203SOL    HW116452   1.422   5.414   3.596 -0.2348 -0.7862  0.6150
 5203SOL    HW216453   1.530   5.314   3.562  0.4363  0.3901 -0.8335
 5204SOL     OW16454   7.374   7.938   5.772  0.1156 -0.3711  0.1269
 5204SOL    HW116455   7.452   7.891   5.803  0.1359 -1.0126 -0.8389
 5204SOL    HW216456   7.300   7.887   5.805  0.1186 -2.2947 -2.4815
 5205SOL     OW16457   3.696   2.602   0.421  0.0235 -0.7387 -0.3047
 5205SOL    HW116458   3.768   2.663   0.408  0.8896 -1.8090 -0.7000
 5205SOL    HW216459   3.632   2.651   0.472  1.5579 -0.1367  1.1539
 5206SOL     OW16460   4.655   2.959   5.055  0.1576  0.3576  0.2599
 5206SOL    HW116461   4.640   3.027   5.120  0.2120 -0.0399  0.6936
 5206SOL    HW216462   4.655   3.005   4.971 -2.2340  0.5547  0.3231
 5207SOL     OW16463   4.095   2.117   2.875  0.1036  0.0838 -0.2480
 5207SOL    HW116464   4.061   2.122   2.786 -0.0169 -1.0915 -0.2714
 5207SOL    HW216465   4.062   2.197   2.917  0.0765  0.5946 -1.2197
 5208SOL     OW16466   4.682   3.723   7.351  0.0373 -0.2687 -0.3424
 5208SOL    HW116467   4.686   3.706   7.257 -0.0144 -1.2466 -0.1838
 5208SOL    HW216468   4.591   3.705   7.375 -0.3099  1.3765 -0.3389
 5209SOL     OW16469   0.891   5.547   6.872 -0.0993 -0.1961 -0.1087
 5209SOL    HW116470   0.912   5.540   6.965 -1.9892 -0.3875  0.3385
 5209SOL    HW216471   0.823   5.481   6.857  0.3146 -0.3158 -1.6836
 5210SOL     OW16472   7.380   7.812   7.381  0.0762  0.3177  0.2214
 5210SOL    HW116473   7.462   7.784   7.422 -0.5691  0.4920  1.6951
 5210SOL    HW216474   7.312   7.787   7.443 -1.0795 -0.3835 -1.2569
 5211SOL     OW16475   1.727   6.367   7.442  0.0067  0.7261 -0.2013
 5211SOL    HW116476   1.753   6.441   7.498  0.7809  0.6281 -0.4122
 5211SOL    HW216477   1.650   6.330   7.485 -0.2644  1.5266  0.0240
 5212SOL     OW16478   7.756   3.731   4.329  0.4494  0.6189  0.4915
 5212SOL    HW116479   7.700   3.752   4.403 -0.2363 -1.7750  0.7600
 5212SOL    HW216480   7.813   3.661   4.362  0.1827 -0.4466 -1.1700
 5213SOL     OW16481   1.798   3.498   4.288 -0.3672  0.2032 -0.2754
 5213SOL    HW116482   1.881   3.490   4.240 -0.2035  1.5131 -0.2574
 5213SOL    HW216483   1.741   3.434   4.247  1.1106 -1.9551  0.8050
 5214SOL     OW16484   6.618   5.274   1.627  0.3700 -0.0892 -0.1141
 5214SOL    HW116485   6.669   5.285   1.547  1.0328  0.4893  0.3785
 5214SOL    HW216486   6.630   5.356   1.675  0.6469 -0.7379  0.9490
 5215SOL     OW16487   2.222   0.979   1.735 -0.1056  0.1628 -0.2356
 5215SOL    HW116488   2.207   0.892   1.771 -0.3431  0.7508  1.1546
 5215SOL    HW216489   2.245   0.964   1.644  0.0129 -1.3596  0.0267
 5216SOL     OW16490   7.690   4.230   6.888 -0.1063  0.4197  0.3474
 5216SOL    HW116491   7.696   4.154   6.946  0.4674 -0.4271 -0.7942
 5216SOL    HW216492   7.598   4.256   6.893 -0.4025 -0.6008  0.4449
 5217SOL     OW16493   0.759   7.812   4.982  0.1037  0.2023 -0.1487
 5217SOL    HW116494   0.772   7.719   4.960 -0.9421  0.3432 -1.5667
 5217SOL    HW216495   0.720   7.811   5.069  0.0964 -0.7020 -0.1489
 5218SOL     OW16496   6.880   6.461   6.361 -0.3062  0.1669  0.3923
 5218SOL    HW116497   6.829   6.416   6.429  1.1036 -0.0447  1.3531
 5218SOL    HW216498   6.960   6.490   6.406  0.4924  0.3646 -1.0927
 5219SOL     OW16499   2.076   3.799   7.726 -0.5080 -0.0529 -0.2046
 5219SOL    HW116500   2.149   3.802   7.788 -1.1800  0.8216  0.5906
 5219SOL    HW216501   2.102   3.860   7.657  0.0181 -0.6327 -0.5268
 5220SOL     OW16502   3.584   7.297   0.646  0.1007 -0.2763 -0.3378
 5220SOL    HW116503   3.545   7.316   0.731 -1.2652 -0.3005 -0.9381
 5220SOL    HW216504   3.661   7.353   0.642  0.7749 -0.9979  1.3191
 5221SOL     OW16505   2.466   7.365   7.237  0.3369  0.9341  0.4475
 5221SOL    HW116506   2.395   7.430   7.245  0.2670  0.7915  1.0264
 5221SOL    HW216507   2.423   7.281   7.253  0.7446  0.9006  1.4248
 5222SOL     OW16508   5.007   6.767   3.525  0.4231 -0.5036  0.8472
 5222SOL    HW116509   4.922   6.746   3.486  1.0494 -1.4300 -0.0521
 5222SOL    HW216510   5.036   6.845   3.478 -0.5445  0.6808  2.1325
 5223SOL     OW16511   6.111   4.004   4.105  0.0581  0.2340  0.3826
 5223SOL    HW116512   6.148   4.071   4.049  1.2036 -1.2799 -0.7467
 5223SOL    HW216513   6.147   4.023   4.192  1.2732  0.4249 -0.1434
 5224SOL     OW16514   0.241   1.931   1.096 -0.7446  0.0643  0.4246
 5224SOL    HW116515   0.320   1.963   1.139 -0.8969 -0.6928  1.2997
 5224SOL    HW216516   0.268   1.852   1.050 -0.9310 -0.0385  0.4894
 5225SOL     OW16517   1.697   0.582   6.060  0.1890 -0.4576  0.2842
 5225SOL    HW116518   1.629   0.563   6.125  1.1670  1.2662  1.9433
 5225SOL    HW216519   1.649   0.607   5.981 -1.0474 -2.4269  0.3612
 5226SOL     OW16520   5.529   4.603   7.077  0.4267  0.3476 -0.1236
 5226SOL    HW116521   5.439   4.629   7.098  0.4076  0.7609 -0.6834
 5226SOL    HW216522   5.520   4.556   6.993  0.4009 -1.8472  1.0382
 5227SOL     OW16523   2.042   5.527   4.358  0.1314 -0.0901 -0.5400
 5227SOL    HW116524   1.977   5.493   4.297 -1.2752  0.9588  0.3124
 5227SOL    HW216525   2.079   5.450   4.400 -1.4608 -0.6707 -0.1606
 5228SOL     OW16526   2.214   6.922   7.566  0.4062  0.1387  0.0481
 5228SOL    HW116527   2.307   6.902   7.554  1.0974  3.3849 -0.9277
 5228SOL    HW216528   2.172   6.888   7.487  0.6250 -1.5930  0.6132
 5229SOL     OW16529   7.627   1.314   0.081 -0.6398 -0.3538  0.2972
 5229SOL    HW116530   7.722   1.322   0.090 -0.6754 -0.6662  1.0730
 5229SOL    HW216531   7.613   1.294  -0.011  0.1061 -0.9861  0.3104
 5230SOL     OW16532   0.551   1.362   1.381  0.0163 -0.2263 -0.2854
 5230SOL    HW116533   0.608   1.404   1.445  0.1966 -1.2767  0.2651
 5230SOL    HW216534   0.519   1.434   1.327  0.5871  0.5722  0.4079
 5231SOL     OW16535   2.595   3.168   0.648 -0.1081  0.1123  0.2210
 5231SOL    HW116536   2.661   3.150   0.716  1.1084  0.2978 -0.8666
 5231SOL    HW216537   2.545   3.087   0.641  0.6000 -0.3580  0.4359
 5232SOL     OW16538   1.705   5.483   7.569  0.2646 -0.5594 -0.1062
 5232SOL    HW116539   1.706   5.570   7.528 -0.3142  0.2482  1.5014
 5232SOL    HW216540   1.625   5.483   7.621  0.6912 -1.7656  0.5721
 5233SOL     OW16541   5.254   5.336   6.736  0.2964 -0.3762 -0.4323
 5233SOL    HW116542   5.300   5.264   6.778  1.9911  1.7297  1.5498
 5233SOL    HW216543   5.166   5.302   6.720  1.0773 -2.9037  0.2542
 5234SOL     OW16544   5.994   1.313   7.519 -0.4805 -0.5789 -0.2664
 5234SOL    HW116545   5.964   1.366   7.594  0.1233  0.9755 -1.0719
 5234SOL    HW216546   6.086   1.340   7.507  0.6073 -3.5174  0.7055
 5235SOL     OW16547   1.234   0.965   1.395 -0.2517  0.2387 -0.2389
 5235SOL    HW116548   1.203   1.022   1.465 -1.8890 -1.0948  0.1962
 5235SOL    HW216549   1.321   0.998   1.373 -0.4486  1.8010  1.1619
 5236SOL     OW16550   2.521   7.472   5.119  0.3538  0.3050 -0.2734
 5236SOL    HW116551   2.584   7.400   5.116  0.6092  0.5552 -1.1030
 5236SOL    HW216552   2.475   7.467   5.036 -0.1975  0.5961  0.0096
 5237SOL     OW16553   6.120   0.229   7.073 -0.4931  0.5639  0.4950
 5237SOL    HW116554   6.190   0.175   7.037 -2.3418 -1.8261  0.2572
 5237SOL    HW216555   6.136   0.316   7.036  2.4209  0.2012  0.6348
 5238SOL     OW16556   4.551   7.713   5.674 -0.5182  0.6112 -0.8834
 5238SOL    HW116557   4.596   7.648   5.729 -1.9099  0.9031  0.6677
 5238SOL    HW216558   4.621   7.773   5.648  0.2658  0.2394  0.2466
 5239SOL     OW16559   8.071   2.432   0.287 -0.1623  0.1838 -0.2277
 5239SOL    HW116560   8.116   2.405   0.208 -0.9657 -3.4121  0.4033
 5239SOL    HW216561   8.134   2.416   0.358  0.2079  2.4876  0.0756
 5240SOL     OW16562   1.333   6.645   0.688  0.0989  0.4945 -0.2161
 5240SOL    HW116563   1.373   6.675   0.607 -1.8699 -0.2499 -1.5376
 5240SOL    HW216564   1.349   6.550   0.690 -1.0485  0.2849 -0.4634
 5241SOL     OW16565   5.336   6.353   0.607  0.1316  0.0416 -0.2391
 5241SOL    HW116566   5.378   6.303   0.537  0.5458 -0.4095  0.3261
 5241SOL    HW216567   5.358   6.306   0.687  0.3236  0.9988  0.2815
 5242SOL     OW16568   5.750   3.044   3.124  0.5914  0.3797  0.1003
 5242SOL    HW116569   5.793   3.022   3.042  0.7679  1.4528 -0.1076
 5242SOL    HW216570   5.732   3.138   3.118  1.0603  0.5851  1.4894
 5243SOL     OW16571   7.671   0.269   2.949  0.6953 -0.5637 -0.7231
 5243SOL    HW116572   7.624   0.194   2.985 -2.2931  1.3386 -0.3225
 5243SOL    HW216573   7.764   0.248   2.961 -0.0719 -3.0341  1.7003
 5244SOL     OW16574   3.347   0.440   5.624  0.3796 -0.2392 -0.1992
 5244SOL    HW116575   3.414   0.374   5.606  0.4406 -0.2865  0.2035
 5244SOL    HW216576   3.333   0.435   5.718 -0.4989 -0.5235 -0.3344
 5245SOL     OW16577   2.556   3.436   0.380  0.1961  0.1947 -0.2180
 5245SOL    HW116578   2.626   3.372   0.389 -0.4169 -0.4351  0.1953
 5245SOL    HW216579   2.480   3.385   0.354  0.1677  1.0387 -1.9144
 5246SOL     OW16580   2.486   6.552   3.840 -0.0710  0.3392 -0.0083
 5246SOL    HW116581   2.529   6.636   3.829  1.1658 -0.3634 -0.7596
 5246SOL    HW216582   2.554   6.493   3.872 -0.3469 -0.8707 -1.5005
 5247SOL     OW16583   3.649   5.127   5.782 -0.6745  0.0584  0.6921
 5247SOL    HW116584   3.601   5.067   5.725  1.5603 -1.7360  0.5634
 5247SOL    HW216585   3.670   5.201   5.726 -1.7766  0.1023  0.2973
 5248SOL     OW16586   1.662   8.022   4.821 -0.4447 -0.5796 -0.3301
 5248SOL    HW116587   1.726   7.960   4.857  0.6729  0.2173 -0.8888
 5248SOL    HW216588   1.603   8.041   4.894  0.2141 -1.0033  0.3192
 5249SOL     OW16589   2.244   2.209   6.636 -0.1396 -0.2028 -0.0959
 5249SOL    HW116590   2.222   2.229   6.727  0.7327 -2.5821  0.7299
 5249SOL    HW216591   2.296   2.283   6.607  0.2098  0.2702  1.6249
 5250SOL     OW16592   5.120   7.085   6.574  0.0942  0.1243  0.2241
 5250SOL    HW116593   5.179   7.012   6.592  1.0197  1.3270  2.4602
 5250SOL    HW216594   5.167   7.139   6.510 -0.4988 -1.0611 -1.2634
 5251SOL     OW16595   5.326   4.714   5.701  0.5198  0.3642  0.4193
 5251SOL    HW116596   5.386   4.649   5.738  0.2131 -0.6805 -0.8706
 5251SOL    HW216597   5.239   4.676   5.712  0.4809 -0.5075 -2.2751
 5252SOL     OW16598   7.806   7.427   6.212  0.4118  0.0283 -0.0959
 5252SOL    HW116599   7.836   7.480   6.286 -0.4906 -1.2318  1.2250
 5252SOL    HW216600   7.761   7.490   6.155  0.9583  0.9958  0.5003
 5253SOL     OW16601   1.830   0.163   1.315 -0.2147 -0.1121 -0.2167
 5253SOL    HW116602   1.760   0.151   1.380  1.5704 -1.3676  1.6183
 5253SOL    HW216603   1.903   0.111   1.349  2.0923  2.1865 -1.3108
 5254SOL     OW16604   2.212   1.514   1.547 -0.3610  0.2396 -0.0310
 5254SOL    HW116605   2.259   1.435   1.571  1.7070  1.1612 -0.8435
 5254SOL    HW216606   2.126   1.483   1.517 -0.1184 -1.5412  0.9909
 5255SOL     OW16607   3.819   0.051   0.233 -0.1738  0.7080 -0.7137
 5255SOL    HW116608   3.871   0.069   0.154  1.4158  0.6888  0.2907
 5255SOL    HW216609   3.778  -0.033   0.214  1.2862  0.0207 -1.0161
 5256SOL     OW16610   1.199   3.906   7.966  0.1529  0.0899  0.1937
 5256SOL    HW116611   1.236   3.919   7.878 -1.0842  0.3746 -0.3146
 5256SOL    HW216612   1.233   3.822   7.995 -0.4673 -0.6585 -1.1401
 5257SOL     OW16613   4.937   7.949   2.017 -0.6656  0.1059  0.4342
 5257SOL    HW116614   4.921   7.859   2.044  0.4714  0.0317  0.9446
 5257SOL    HW216615   4.901   7.954   1.928  2.0217 -1.8358 -0.9461
 5258SOL     OW16616   3.779   2.750   7.581  0.2865 -0.0014 -0.9357
 5258SOL    HW116617   3.737   2.830   7.610  0.1809  0.0965 -1.3624
 5258SOL    HW216618   3.860   2.746   7.632  0.2982  0.3816 -0.9232
 5259SOL     OW16619   3.785   1.393   5.809  0.1125 -1.0308  0.1859
 5259SOL    HW116620   3.776   1.329   5.879 -1.5526 -0.8181  0.2210
 5259SOL    HW216621   3.773   1.342   5.728  0.2914 -1.0039  0.1429
 5260SOL     OW16622   5.816   4.164   1.607 -0.1210  0.5745 -0.2224
 5260SOL    HW116623   5.750   4.230   1.627 -0.2176  0.1930  0.7596
 5260SOL    HW216624   5.892   4.214   1.579  0.2282  1.1950  1.6998
 5261SOL     OW16625   3.131   6.566   2.683  0.7676 -0.4702  0.7737
 5261SOL    HW116626   3.061   6.612   2.729  0.6364 -0.2818  0.3890
 5261SOL    HW216627   3.205   6.627   2.683  0.6299 -0.2999  0.3626
 5262SOL     OW16628   7.103   7.798   3.166  0.0042 -0.1467 -0.1264
 5262SOL    HW116629   7.022   7.803   3.217 -0.3132  1.4608 -0.7504
 5262SOL    HW216630   7.166   7.850   3.215 -0.0913  0.7702 -0.9402
 5263SOL     OW16631   5.179   6.499   6.610  0.0911  0.0260 -0.4224
 5263SOL    HW116632   5.208   6.491   6.519  1.5326 -0.1571  0.0274
 5263SOL    HW216633   5.189   6.592   6.629  1.0762 -0.1449 -0.0594
 5264SOL     OW16634   4.429   7.864   5.872  0.2229 -0.1624  0.1171
 5264SOL    HW116635   4.523   7.866   5.891  0.4732  1.4713 -1.0453
 5264SOL    HW216636   4.423   7.828   5.784 -0.6305 -4.1652  1.6169
 5265SOL     OW16637   7.499   1.304   3.870 -0.2217 -0.0723 -0.0801
 5265SOL    HW116638   7.527   1.248   3.797 -1.2660  0.6212 -1.0378
 5265SOL    HW216639   7.409   1.275   3.889 -0.8048  1.2973 -0.6372
 5266SOL     OW16640   5.032   4.800   5.425 -0.6669 -0.1218 -0.1125
 5266SOL    HW116641   4.960   4.767   5.373 -1.2349  0.5700  0.2094
 5266SOL    HW216642   5.042   4.891   5.398  1.9440 -0.8973 -2.1733
 5267SOL     OW16643   0.198   3.037   4.443 -0.7113  0.0362 -0.3440
 5267SOL    HW116644   0.133   3.083   4.496  2.9424  0.5540  4.2839
 5267SOL    HW216645   0.240   3.105   4.390 -2.4079 -0.0092 -1.8687
 5268SOL     OW16646   4.615   3.716   1.234  0.1386  0.0670 -0.0974
 5268SOL    HW116647   4.676   3.646   1.214 -0.3318  0.1647 -2.1278
 5268SOL    HW216648   4.664   3.777   1.290  1.6127 -0.2739 -0.9837
 5269SOL     OW16649   3.936   7.304   4.005  0.3588 -0.1678 -0.4698
 5269SOL    HW116650   4.023   7.279   4.035  0.8071  0.1544 -1.4634
 5269SOL    HW216651   3.950   7.339   3.917 -0.8015 -0.2866 -0.7151
 5270SOL     OW16652   1.294   4.013   7.532  0.1811 -0.3141 -0.2986
 5270SOL    HW116653   1.280   4.101   7.496 -0.8656 -0.8122 -1.1644
 5270SOL    HW216654   1.212   3.993   7.577  1.8450  0.8149  3.7019
 5271SOL     OW16655   1.060   3.654   2.754 -0.1131 -0.5085 -0.0168
 5271SOL    HW116656   0.990   3.674   2.691 -0.1155 -0.3906  0.0240
 5271SOL    HW216657   1.040   3.707   2.830  0.7453  0.5264 -0.4860
 5272SOL     OW16658   7.128   1.444   4.741  0.2164  0.5262  0.3162
 5272SOL    HW116659   7.089   1.505   4.678 -1.1972 -0.8173 -0.1715
 5272SOL    HW216660   7.069   1.446   4.816  0.3215  0.0123  0.4181
 5273SOL     OW16661   2.057   3.085   1.557 -0.0034  0.1945  0.3340
 5273SOL    HW116662   2.086   3.086   1.466 -0.4630  1.0521  0.1800
 5273SOL    HW216663   2.084   3.000   1.590 -0.8452 -0.6114 -0.9393
 5274SOL     OW16664   3.645   6.427   4.761 -0.3802 -0.2587  0.2017
 5274SOL    HW116665   3.721   6.447   4.816 -0.2910  0.1815 -0.0754
 5274SOL    HW216666   3.575   6.406   4.823 -0.5244  1.0746  0.5223
 5275SOL     OW16667   3.527   0.890   1.471 -0.1646 -0.0622 -0.5175
 5275SOL    HW116668   3.542   0.806   1.427 -0.8830 -0.2155 -0.4735
 5275SOL    HW216669   3.503   0.866   1.560  2.7384  0.2721  0.4639
 5276SOL     OW16670   7.351   3.163   2.316  0.3519 -0.3660 -0.2492
 5276SOL    HW116671   7.282   3.226   2.294 -0.5115 -0.0783  2.7508
 5276SOL    HW216672   7.304   3.087   2.349  1.2912  0.3380  3.1549
 5277SOL     OW16673   1.169   2.617   3.339  0.4656 -0.4530 -0.3485
 5277SOL    HW116674   1.200   2.679   3.406  0.9536 -0.2485 -0.7545
 5277SOL    HW216675   1.159   2.534   3.387 -3.1335  0.5451  0.9100
 5278SOL     OW16676   1.031   1.507   3.382  0.0333 -0.2759  0.2440
 5278SOL    HW116677   1.068   1.583   3.427  0.0563 -0.3106  0.2837
 5278SOL    HW216678   1.064   1.512   3.293 -0.2878 -0.0160  0.1387
 5279SOL     OW16679   5.821   1.334   1.336 -0.0980 -0.5613  0.3939
 5279SOL    HW116680   5.906   1.327   1.292 -1.5388 -1.8543 -2.4050
 5279SOL    HW216681   5.842   1.372   1.421  3.2057 -0.3045 -0.3913
 5280SOL     OW16682   6.725   7.800   3.572  0.6395 -0.4534  0.2715
 5280SOL    HW116683   6.808   7.847   3.563  0.5314 -0.5273 -1.5045
 5280SOL    HW216684   6.667   7.862   3.618  0.2524  1.6037 -2.6698
 5281SOL     OW16685   3.073   0.572   6.660  0.5124  0.1623 -0.0292
 5281SOL    HW116686   3.165   0.590   6.678  0.9669 -1.1481 -0.8784
 5281SOL    HW216687   3.064   0.584   6.566  0.0898 -0.8142 -0.1212
 5282SOL     OW16688   7.445   2.764   7.663  0.0388 -0.0204  0.1074
 5282SOL    HW116689   7.374   2.828   7.663 -0.5482 -0.6578 -0.6680
 5282SOL    HW216690   7.408   2.686   7.706  0.4773 -0.1355  0.2880
 5283SOL     OW16691   6.490   0.459   3.957  0.2004  0.0355  0.0621
 5283SOL    HW116692   6.438   0.464   4.037  1.3489  0.2298  0.8214
 5283SOL    HW216693   6.580   0.472   3.986  0.4932  1.9100 -1.4719
 5284SOL     OW16694   5.176   7.088   5.041 -0.5657  0.3715  0.4000
 5284SOL    HW116695   5.184   7.050   4.953 -0.7212 -2.1475  1.3921
 5284SOL    HW216696   5.251   7.147   5.048 -0.4164  0.4380 -1.3195
 5285SOL     OW16697   6.547   5.243   7.953 -0.2792 -0.3458  0.1934
 5285SOL    HW116698   6.585   5.174   7.898 -0.0182 -0.1715  0.1516
 5285SOL    HW216699   6.454   5.223   7.956 -0.2358 -0.5826  0.0105
 5286SOL     OW16700   4.942   5.822   4.835 -0.1950  0.0063  0.4125
 5286SOL    HW116701   4.857   5.850   4.868 -0.8370  0.1161 -1.2432
 5286SOL    HW216702   4.941   5.727   4.846 -1.4358 -0.2547 -1.4702
 5287SOL     OW16703   6.806   1.016   0.158  0.1824 -0.1305 -0.0102
 5287SOL    HW116704   6.869   1.087   0.155 -0.3580  0.3230 -1.7108
 5287SOL    HW216705   6.723   1.058   0.179  0.0308 -0.3836 -0.0935
 5288SOL     OW16706   7.215   6.023   2.539 -0.0201  0.7277  0.7352
 5288SOL    HW116707   7.185   5.952   2.595  0.1811 -0.4041 -0.5303
 5288SOL    HW216708   7.310   6.020   2.544 -0.0103  1.0259  0.7960
 5289SOL     OW16709   0.578   7.057   1.155 -0.6436  0.0866  0.3378
 5289SOL    HW116710   0.528   7.024   1.229 -0.1842 -1.7458 -0.1133
 5289SOL    HW216711   0.513   7.094   1.096 -1.3048 -0.7758  0.5090
 5290SOL     OW16712   0.763   1.814   1.701  0.0942  0.1452  0.0054
 5290SOL    HW116713   0.821   1.840   1.773 -0.9963 -0.7414  1.2609
 5290SOL    HW216714   0.762   1.718   1.704 -1.6254  0.1297  0.2123
 5291SOL     OW16715   3.967   7.272   4.732 -0.7673  0.1092 -0.9657
 5291SOL    HW116716   4.052   7.315   4.746 -0.6869 -0.3628  0.0651
 5291SOL    HW216717   3.988   7.192   4.685 -0.5041 -0.5321  0.2169
 5292SOL     OW16718   6.390   6.853   6.193  0.3883 -0.2177  0.2087
 5292SOL    HW116719   6.416   6.941   6.166 -1.9729  0.9090  1.3677
 5292SOL    HW216720   6.338   6.819   6.121 -0.6147  0.2674  0.6937
 5293SOL     OW16721   0.943   5.426   8.095  0.0691 -0.3508  0.2105
 5293SOL    HW116722   0.915   5.428   8.186 -0.7047 -0.1084 -0.0208
 5293SOL    HW216723   0.920   5.513   8.061 -1.5687 -1.1097 -0.7488
 5294SOL     OW16724   7.389   1.933   5.458  0.6498  0.0909 -0.2636
 5294SOL    HW116725   7.351   1.870   5.397 -0.2882  1.6527 -1.3720
 5294SOL    HW216726   7.467   1.966   5.412  1.0995 -0.1996  0.2816
 5295SOL     OW16727   2.876   5.069   0.231 -0.3698  0.0582 -0.2143
 5295SOL    HW116728   2.843   5.130   0.298 -0.2712  0.3178 -0.3981
 5295SOL    HW216729   2.833   4.986   0.251 -0.6467  0.2331 -0.0677
 5296SOL     OW16730   2.435   5.645   4.439 -0.2656  0.3953  0.1360
 5296SOL    HW116731   2.439   5.740   4.448 -0.7650  0.8053 -2.9754
 5296SOL    HW216732   2.368   5.630   4.372 -2.1502 -2.3594  2.3908
 5297SOL     OW16733   2.839   1.007   7.205  0.4751 -0.6221  0.5012
 5297SOL    HW116734   2.914   1.065   7.214 -1.1605  1.4807  1.7062
 5297SOL    HW216735   2.866   0.941   7.141  3.0978  0.3630  0.4888
 5298SOL     OW16736   7.251   4.719   4.734  0.1833 -0.7030 -0.1870
 5298SOL    HW116737   7.304   4.665   4.793 -0.6676 -2.5427 -1.0245
 5298SOL    HW216738   7.198   4.773   4.793  2.3078  0.5782  0.6706
 5299SOL     OW16739   4.244   2.255   5.050 -0.4849 -0.0156 -0.0972
 5299SOL    HW116740   4.329   2.299   5.046 -0.3704 -0.2502 -0.2962
 5299SOL    HW216741   4.204   2.286   5.131 -1.2961  2.0791 -1.2084
 5300SOL     OW16742   5.816   7.379   5.924  0.3317 -0.0138  0.2074
 5300SOL    HW116743   5.774   7.360   5.840 -0.3139 -0.0426  0.5304
 5300SOL    HW216744   5.907   7.400   5.901  0.3546 -0.7576 -0.4201
 5301SOL     OW16745   7.784   5.713   2.642  0.2448 -0.6427  0.6827
 5301SOL    HW116746   7.745   5.626   2.653  0.6242 -0.6061  2.6681
 5301SOL    HW216747   7.873   5.703   2.675  0.4569  0.3833  0.4353
 5302SOL     OW16748   2.417   4.506   2.350 -0.6248 -1.0688  0.3749
 5302SOL    HW116749   2.324   4.531   2.358 -0.4984 -1.0545  2.5305
 5302SOL    HW216750   2.438   4.468   2.436  1.3256 -1.2403 -0.1487
 5303SOL     OW16751   4.739   5.695   3.738 -0.3252 -0.2713 -0.0356
 5303SOL    HW116752   4.651   5.717   3.769 -0.1525  0.6139 -0.1370
 5303SOL    HW216753   4.747   5.601   3.752 -1.8427 -0.6401 -1.4401
 5304SOL     OW16754   5.136   1.759   7.065 -0.0468  0.0827  0.3612
 5304SOL    HW116755   5.110   1.850   7.075  1.8221  0.7532 -0.4769
 5304SOL    HW216756   5.222   1.753   7.107  1.2495 -0.5054 -2.1556
 5305SOL     OW16757   7.650   0.048   3.368  0.0405 -0.1759 -0.4194
 5305SOL    HW116758   7.733   0.002   3.351 -0.2139 -0.3570 -1.1966
 5305SOL    HW216759   7.655   0.127   3.314  0.3015  0.5268  0.6045
 5306SOL     OW16760   2.039   4.799   2.669  0.0983 -0.3318 -0.0044
 5306SOL    HW116761   2.122   4.807   2.716  0.3514 -0.7334 -0.3755
 5306SOL    HW216762   2.060   4.744   2.593  0.2996  2.1385 -1.9005
 5307SOL     OW16763   1.356   4.729   7.880  0.1413 -0.6178 -0.3733
 5307SOL    HW116764   1.443   4.719   7.920  0.3449  1.3792 -0.2060
 5307SOL    HW216765   1.309   4.788   7.940 -1.0587 -1.0481 -0.8655
 5308SOL     OW16766   4.282   7.678   0.348 -0.3854  0.4909 -0.0444
 5308SOL    HW116767   4.339   7.602   0.337 -1.3034 -0.1561 -0.4268
 5308SOL    HW216768   4.195   7.646   0.327 -0.4482  2.3507 -3.3879
 5309SOL     OW16769   7.629   3.138   5.571 -0.4065 -0.4930 -0.0540
 5309SOL    HW116770   7.604   3.228   5.548  3.0282  0.3436 -0.9751
 5309SOL    HW216771   7.588   3.123   5.657 -1.0087  1.9454  0.1616
 5310SOL     OW16772   6.503   2.060   2.655 -0.0592 -0.2847  0.1577
 5310SOL    HW116773   6.573   2.042   2.592  0.3179 -0.7018  0.6921
 5310SOL    HW216774   6.433   2.099   2.602  0.4504 -0.1534 -0.4337
 5311SOL     OW16775   6.285   3.821   0.235  0.3727  0.2455  0.2666
 5311SOL    HW116776   6.216   3.870   0.191  0.4349  2.0173  2.0130
 5311SOL    HW216777   6.279   3.847   0.327  2.2230 -0.9090  0.7781
 5312SOL     OW16778   5.602   4.326   1.718  0.5564  0.3000 -0.0188
 5312SOL    HW116779   5.581   4.408   1.675 -0.3185  0.2447  0.2751
 5312SOL    HW216780   5.517   4.291   1.746  0.9404 -0.5627  0.1062
 5313SOL     OW16781   4.531   2.821   4.281 -0.0602  0.1211 -0.2333
 5313SOL    HW116782   4.476   2.880   4.230  1.4535  2.0572  0.2094
 5313SOL    HW216783   4.481   2.803   4.360 -0.4120  1.2129 -0.1854
 5314SOL     OW16784   3.667   1.368   8.107  0.3001 -0.4407 -0.0970
 5314SOL    HW116785   3.757   1.390   8.082  0.6215 -1.4510  0.1151
 5314SOL    HW216786   3.676   1.314   8.185 -0.5665  0.4744  0.6759
 5315SOL     OW16787   1.926   8.049   4.246  0.1620 -0.0189  0.6819
 5315SOL    HW116788   1.962   7.961   4.239  1.8807  0.7888 -1.4585
 5315SOL    HW216789   1.872   8.059   4.167 -0.2726  0.7489  1.0668
 5316SOL     OW16790   7.237   3.445   5.853 -0.0878 -0.3254  0.5211
 5316SOL    HW116791   7.208   3.359   5.885  0.4384 -0.4496  0.6686
 5316SOL    HW216792   7.333   3.440   5.855  0.0309 -0.7645 -2.0947
 5317SOL     OW16793   1.579   7.987   6.586 -0.2830  0.2572  0.6597
 5317SOL    HW116794   1.577   8.022   6.675 -0.5911  0.5429  0.5451
 5317SOL    HW216795   1.664   7.945   6.578 -1.3075 -2.3296  2.0741
 5318SOL     OW16796   6.402   1.145   1.592  0.1129  0.0560  0.0400
 5318SOL    HW116797   6.482   1.171   1.546  1.0693 -2.2695  0.2707
 5318SOL    HW216798   6.337   1.209   1.563  1.9567  1.9022 -0.3274
 5319SOL     OW16799   6.506   7.426   6.391 -0.1003  0.2027 -0.5053
 5319SOL    HW116800   6.445   7.361   6.425 -0.6518  1.2811  0.6882
 5319SOL    HW216801   6.588   7.409   6.437  0.1081 -0.3619 -1.0665
 5320SOL     OW16802   0.195   6.047   0.065  0.2104 -0.0831  0.0968
 5320SOL    HW116803   0.264   6.047   0.131  0.9187 -0.4266 -0.6228
 5320SOL    HW216804   0.153   5.962   0.073  1.1526 -0.6476 -0.7457
 5321SOL     OW16805   5.188   2.077   4.825  1.2874 -0.0966 -0.6230
 5321SOL    HW116806   5.098   2.086   4.794  0.7211  0.5409  1.0777
 5321SOL    HW216807   5.239   2.136   4.770  0.2991  1.1641 -0.2409
 5322SOL     OW16808   2.580   5.858   5.164 -0.7317  0.3270  0.2985
 5322SOL    HW116809   2.629   5.925   5.211 -0.2718  0.0704  0.1852
 5322SOL    HW216810   2.594   5.877   5.072  2.4141 -1.9965  0.1306
 5323SOL     OW16811   0.515   1.886   3.446 -0.6471  0.1762 -0.0379
 5323SOL    HW116812   0.562   1.942   3.507 -2.2993  0.3417  1.1324
 5323SOL    HW216813   0.531   1.925   3.360  1.9555 -0.2339  0.1867
 5324SOL     OW16814   5.843   1.585   7.274  0.2429 -0.6093  0.0814
 5324SOL    HW116815   5.766   1.602   7.221  0.5258  1.1144  0.1562
 5324SOL    HW216816   5.826   1.631   7.356  0.4962 -1.9052  0.8967
 5325SOL     OW16817   3.665   2.497   0.186  0.1557 -0.4377 -0.1087
 5325SOL    HW116818   3.661   2.522   0.278  3.9920 -0.8171  0.3292
 5325SOL    HW216819   3.602   2.555   0.142  0.1564  1.6243  2.3738
 5326SOL     OW16820   0.084   1.062   5.896 -0.1348 -0.9086 -0.6603
 5326SOL    HW116821   0.179   1.061   5.894 -0.1390 -0.9183 -0.9635
 5326SOL    HW216822   0.061   1.046   5.988  0.1725  2.8710  0.2153
 5327SOL     OW16823   1.597   4.549   5.048 -0.3516 -0.4868 -0.9319
 5327SOL    HW116824   1.536   4.510   5.111 -0.4619  0.2444 -0.5765
 5327SOL    HW216825   1.633   4.474   5.000 -1.7562 -0.9062 -1.3678
 5328SOL     OW16826   6.594   1.084   3.418 -0.0798 -0.1882 -0.1348
 5328SOL    HW116827   6.608   1.008   3.475 -2.0340 -0.1829  0.4132
 5328SOL    HW216828   6.680   1.124   3.411  0.5413 -1.1228  1.4987
 5329SOL     OW16829   6.319   1.476   6.505  0.1619 -0.5149  0.1600
 5329SOL    HW116830   6.270   1.434   6.435 -0.0666  0.3407 -0.2031
 5329SOL    HW216831   6.315   1.570   6.485  1.2421 -0.3586  0.5701
 5330SOL     OW16832   6.489   2.699   0.927  0.6302 -0.3475 -0.5134
 5330SOL    HW116833   6.457   2.656   0.847  0.2102 -1.6523  0.3189
 5330SOL    HW216834   6.564   2.751   0.898 -0.3076  0.2748 -1.9797
 5331SOL     OW16835   0.170   0.315   7.278  0.6484  0.6039 -0.1956
 5331SOL    HW116836   0.108   0.253   7.240 -0.6233  0.9318  1.2226
 5331SOL    HW216837   0.224   0.261   7.337 -1.0182  0.8734  1.7035
 5332SOL     OW16838   3.499   6.612   6.589  0.4031 -0.3405 -0.0674
 5332SOL    HW116839   3.504   6.617   6.685 -0.7896  1.2466 -0.0561
 5332SOL    HW216840   3.415   6.570   6.572  1.5895 -2.7412 -0.4591
 5333SOL     OW16841   3.774   6.268   6.723 -0.2971  0.1166  0.6204
 5333SOL    HW116842   3.808   6.250   6.636 -2.0583  1.4951 -0.4318
 5333SOL    HW216843   3.680   6.251   6.715 -0.5079  0.4148  2.2150
 5334SOL     OW16844   0.925   1.144   7.082  0.3490 -0.1749 -0.2915
 5334SOL    HW116845   0.906   1.149   7.176  0.8128  1.0308 -0.2490
 5334SOL    HW216846   1.020   1.154   7.077  0.1409  1.7419 -1.0059
 5335SOL     OW16847   5.191   5.968   1.179 -0.0423 -0.6448  0.5565
 5335SOL    HW116848   5.138   5.895   1.146  1.4681 -1.9406  0.8852
 5335SOL    HW216849   5.135   6.011   1.243 -1.6800 -0.3090 -0.9982
 5336SOL     OW16850   1.824   2.481   6.385 -0.0564 -0.2427  0.0700
 5336SOL    HW116851   1.855   2.438   6.464  1.9603 -0.5396 -0.8154
 5336SOL    HW216852   1.782   2.561   6.416  3.3243  1.2349  1.4206
 5337SOL     OW16853   1.254   3.801   2.962 -0.2126  0.3879  0.1060
 5337SOL    HW116854   1.168   3.841   2.975 -0.6544 -0.3139 -0.5579
 5337SOL    HW216855   1.312   3.875   2.940 -0.8951  0.7383 -0.5753
 5338SOL     OW16856   0.496   5.063   1.798  0.0814  0.2818  0.0115
 5338SOL    HW116857   0.498   5.042   1.705 -1.7832  3.4243 -0.8820
 5338SOL    HW216858   0.584   5.097   1.817  0.7323 -1.1452 -0.3423
 5339SOL     OW16859   2.745   4.675   7.413  0.2389 -0.4294 -0.0003
 5339SOL    HW116860   2.697   4.604   7.456  0.3822 -1.0447 -0.8235
 5339SOL    HW216861   2.677   4.734   7.380  0.1093 -0.3664  0.3722
 5340SOL     OW16862   3.217   2.041   8.117  0.5557 -0.0488  0.3418
 5340SOL    HW116863   3.264   1.965   8.084 -0.4627 -1.1032  1.2129
 5340SOL    HW216864   3.248   2.050   8.208  1.8100  1.5542 -0.1961
 5341SOL     OW16865   5.140   5.980   2.861  0.2694 -0.0058 -0.2707
 5341SOL    HW116866   5.073   6.019   2.805 -1.6165  0.5903  2.2323
 5341SOL    HW216867   5.184   6.055   2.901 -2.3137 -0.1552  3.3487
 5342SOL     OW16868   7.415   1.419   0.227 -0.3223  0.2066 -0.4633
 5342SOL    HW116869   7.490   1.366   0.201 -1.5293 -1.4794 -0.6922
 5342SOL    HW216870   7.390   1.465   0.147 -0.3015 -0.2269 -0.7277
 5343SOL     OW16871   6.748   2.976   2.104 -0.1850  0.1438  0.2036
 5343SOL    HW116872   6.677   2.925   2.143  0.2464 -0.7245 -0.1295
 5343SOL    HW216873   6.799   3.006   2.179 -0.1793 -0.3040  0.3808
 5344SOL     OW16874   2.923   0.302   4.967  0.2437  0.5901  0.3602
 5344SOL    HW116875   2.958   0.262   5.046  0.9250  1.5418  0.5581
 5344SOL    HW216876   3.000   0.320   4.913 -0.0198  1.7502  0.3452
 5345SOL     OW16877   1.778   6.249   5.443 -0.5414  0.2677  0.6931
 5345SOL    HW116878   1.727   6.328   5.458 -1.6503  0.2905 -2.5233
 5345SOL    HW216879   1.712   6.179   5.436  0.3358 -0.7678  2.2359
 5346SOL     OW16880   7.887   3.552   6.698  0.9323 -0.1941  0.3656
 5346SOL    HW116881   7.934   3.506   6.628  2.6595  1.2480  0.5053
 5346SOL    HW216882   7.874   3.485   6.766  1.6805 -0.9418 -0.2078
 5347SOL     OW16883   4.335   7.332   5.477  0.1835 -0.1660 -0.0010
 5347SOL    HW116884   4.260   7.377   5.517  1.9016  1.1654  1.9233
 5347SOL    HW216885   4.410   7.359   5.529  1.9239 -2.1670 -1.2855
 5348SOL     OW16886   3.036   1.367   4.909 -0.0885 -0.1110  0.2845
 5348SOL    HW116887   3.055   1.461   4.903 -1.5957  0.3999  2.2117
 5348SOL    HW216888   3.063   1.343   4.998  1.5637 -1.8726 -0.6459
 5349SOL     OW16889   2.812   5.312   3.159 -0.1298 -0.0345 -0.4455
 5349SOL    HW116890   2.719   5.332   3.147 -0.0313 -0.5631 -2.6932
 5349SOL    HW216891   2.835   5.350   3.244 -2.2709  0.5278 -0.0619
 5350SOL     OW16892   2.806   2.209   2.809 -0.2880  0.4804 -0.2350
 5350SOL    HW116893   2.748   2.225   2.735 -1.0579 -0.4715  0.1389
 5350SOL    HW216894   2.768   2.261   2.880 -0.2141  0.4818 -0.1970
 5351SOL     OW16895   6.315   7.395   7.516 -0.1501 -0.4229  0.6346
 5351SOL    HW116896   6.407   7.382   7.538  0.4803  0.2267 -1.4078
 5351SOL    HW216897   6.300   7.337   7.441 -0.5697  1.6237 -0.9339
 5352SOL     OW16898   7.122   3.084   3.823 -0.1545  0.4866  0.5947
 5352SOL    HW116899   7.045   3.072   3.767 -0.1919  0.9254  0.5466
 5352SOL    HW216900   7.125   3.178   3.838  1.5134  0.7446 -1.0119
 5353SOL     OW16901   3.305   5.713   0.635 -0.1259 -0.5817 -0.1421
 5353SOL    HW116902   3.264   5.761   0.563  2.4025  0.1503 -1.2249
 5353SOL    HW216903   3.252   5.734   0.711 -1.5575  0.4933 -1.3683
 5354SOL     OW16904   4.292   6.381   0.471  0.3537 -0.4273 -0.5353
 5354SOL    HW116905   4.227   6.311   0.479  0.6169 -0.8383 -1.8382
 5354SOL    HW216906   4.241   6.461   0.479 -0.0380 -0.7480  0.3556
 5355SOL     OW16907   5.795   3.928   4.802  0.2646 -0.2496  0.1010
 5355SOL    HW116908   5.718   3.878   4.829 -0.0679 -0.5421 -1.2992
 5355SOL    HW216909   5.773   4.018   4.825 -0.6170 -0.2973 -0.4743
 5356SOL     OW16910   2.425   6.351   5.712  0.2996 -0.4622 -0.2374
 5356SOL    HW116911   2.409   6.384   5.801  2.0928 -0.9994  0.3262
 5356SOL    HW216912   2.403   6.424   5.655  1.2844  0.6863  0.7959
 5357SOL     OW16913   2.982   7.738   7.996 -0.3926  0.2061  0.2703
 5357SOL    HW116914   2.911   7.674   7.992 -1.0949  0.8341  1.7956
 5357SOL    HW216915   2.941   7.816   8.034  1.0689  0.6335  1.0149
 5358SOL     OW16916   7.229   2.043   1.396 -0.4365  0.5489  0.6295
 5358SOL    HW116917   7.234   1.963   1.448  0.2366  0.1782  0.0038
 5358SOL    HW216918   7.135   2.064   1.393 -1.2444 -2.5646 -2.6797
 5359SOL     OW16919   5.394   1.725   6.758 -0.2652  0.6992 -0.1739
 5359SOL    HW116920   5.486   1.733   6.732 -0.6185 -1.6198 -2.6861
 5359SOL    HW216921   5.396   1.668   6.835  0.4273  0.7677 -0.1345
 5360SOL     OW16922   2.987   7.544   0.546  0.3314 -0.0682  0.0335
 5360SOL    HW116923   2.935   7.483   0.494  0.1823 -1.9582  2.2369
 5360SOL    HW216924   3.077   7.516   0.533  0.2346 -1.0522  1.3388
 5361SOL     OW16925   4.173   3.829   2.828 -0.0411  0.3244  0.7574
 5361SOL    HW116926   4.090   3.819   2.875 -1.7971  0.4005 -2.0890
 5361SOL    HW216927   4.164   3.913   2.783  1.7316  0.4686  0.6255
 5362SOL     OW16928   2.833   6.934   3.422 -0.1962 -0.2482 -0.2798
 5362SOL    HW116929   2.908   6.979   3.382 -1.2313  0.9070 -0.9894
 5362SOL    HW216930   2.809   6.990   3.495 -1.2411  0.1626 -0.9187
 5363SOL     OW16931   3.647   3.237   1.420  0.1568 -0.1680  0.4196
 5363SOL    HW116932   3.592   3.230   1.342 -1.8342 -1.5671  1.8669
 5363SOL    HW216933   3.662   3.147   1.448  0.7526  0.3080  1.7373
 5364SOL     OW16934   6.098   4.090   7.573  0.3058  0.2659 -0.2035
 5364SOL    HW116935   6.108   3.997   7.554 -2.4364 -0.1178 -0.0627
 5364SOL    HW216936   6.168   4.132   7.522  1.2124 -1.7764 -0.7593
 5365SOL     OW16937   1.631   4.500   3.142  0.2577  0.2140  0.0898
 5365SOL    HW116938   1.646   4.421   3.194  0.6076  0.3027  0.1283
 5365SOL    HW216939   1.565   4.549   3.191  0.3036  0.1157  0.2503
 5366SOL     OW16940   1.044   6.363   7.199  0.8851 -0.0790 -0.1391
 5366SOL    HW116941   1.096   6.310   7.260  1.7433  1.0470  0.1379
 5366SOL    HW216942   1.109   6.403   7.141  0.1385 -0.4956 -1.3096
 5367SOL     OW16943   0.839   7.057   1.655  0.5529 -0.3289  0.0210
 5367SOL    HW116944   0.874   7.054   1.744 -1.7275  2.2757  1.1569
 5367SOL    HW216945   0.779   6.982   1.651 -0.3474  0.2736  1.2397
 5368SOL     OW16946   7.210   5.587   6.798  0.1275  0.3931 -0.0769
 5368SOL    HW116947   7.170   5.554   6.878  0.4009  1.1158  0.3640
 5368SOL    HW216948   7.220   5.681   6.813  0.3634  0.5047 -0.8795
 5369SOL     OW16949   2.187   0.592   1.649 -0.5660 -0.3063  0.2403
 5369SOL    HW116950   2.103   0.623   1.614  0.0086 -0.5212 -1.4341
 5369SOL    HW216951   2.171   0.501   1.673 -1.1856  0.0737  1.3021
 5370SOL     OW16952   7.179   5.077   0.094 -0.0244 -0.3381  0.7673
 5370SOL    HW116953   7.121   5.087   0.170  0.0065  0.7939  0.6618
 5370SOL    HW216954   7.199   5.167   0.068  2.4067 -0.6600  1.2620
 5371SOL     OW16955   5.536   1.283   1.690 -0.0760  0.6656 -0.1706
 5371SOL    HW116956   5.595   1.286   1.615  0.2040  0.8738  0.0530
 5371SOL    HW216957   5.511   1.191   1.697  2.4554  0.0014  1.4173
 5372SOL     OW16958   6.197   5.821   8.067 -0.8287 -0.0748  0.1449
 5372SOL    HW116959   6.249   5.900   8.051  0.5027 -1.0665 -0.6344
 5372SOL    HW216960   6.259   5.749   8.057 -1.6967 -1.1921  2.1380
 5373SOL     OW16961   6.740   6.428   2.574  0.4804 -0.1729 -0.2389
 5373SOL    HW116962   6.736   6.349   2.628 -1.2977  0.0459  0.0221
 5373SOL    HW216963   6.689   6.407   2.496  1.3056  0.2128 -0.9014
 5374SOL     OW16964   5.260   4.863   2.279 -0.2553  0.6116  0.6162
 5374SOL    HW116965   5.283   4.905   2.196  1.9579 -0.8199  0.4257
 5374SOL    HW216966   5.329   4.890   2.340 -1.5911  1.2691  1.9121
 5375SOL     OW16967   3.520   2.957   8.039 -0.2449 -0.4991  0.3327
 5375SOL    HW116968   3.556   2.870   8.057  0.4990 -0.1372  0.6425
 5375SOL    HW216969   3.509   2.960   7.944  1.5270 -0.2653  0.0954
 5376SOL     OW16970   6.983   0.682   7.730  0.8047  0.1828 -0.0997
 5376SOL    HW116971   6.923   0.642   7.793 -1.7025  0.9890 -1.7942
 5376SOL    HW216972   7.070   0.667   7.766 -0.4256 -0.4582  2.8682
 5377SOL     OW16973   3.152   0.174   7.925 -0.2882  0.6259 -0.0002
 5377SOL    HW116974   3.167   0.266   7.905 -0.9546  0.9137  0.7754
 5377SOL    HW216975   3.123   0.136   7.842  3.3127  0.2976 -1.2895
 5378SOL     OW16976   5.939   1.390   2.125  0.2669  0.6287 -0.5738
 5378SOL    HW116977   5.945   1.445   2.202  3.0178  1.1859 -1.0640
 5378SOL    HW216978   6.017   1.334   2.129 -0.9603 -1.2755 -1.5464
 5379SOL     OW16979   6.298   5.126   2.199  0.5136  0.0916  0.2130
 5379SOL    HW116980   6.365   5.178   2.155  0.2162  0.1249 -0.2081
 5379SOL    HW216981   6.335   5.107   2.285  1.5216 -0.7905 -0.3862
 5380SOL     OW16982   7.768   4.149   0.765 -0.2116  0.3208  0.4643
 5380SOL    HW116983   7.786   4.081   0.830 -0.2105 -0.2166 -0.0905
 5380SOL    HW216984   7.677   4.175   0.783 -0.3993 -0.2176  0.3387
 5381SOL     OW16985   1.552   8.110   6.174  0.1799  0.2107  0.5854
 5381SOL    HW116986   1.524   8.174   6.239 -1.2097 -0.1852  0.4004
 5381SOL    HW216987   1.518   8.026   6.207 -0.2667 -0.0371 -0.4750
 5382SOL     OW16988   7.872   7.125   3.205 -0.3318 -0.3907  0.7693
 5382SOL    HW116989   7.845   7.043   3.245  0.0326 -0.9384 -0.0777
 5382SOL    HW216990   7.804   7.145   3.141  0.3206 -0.8547 -0.1111
 5383SOL     OW16991   7.893   0.599   7.377 -0.2643  0.3086 -0.1835
 5383SOL    HW116992   7.931   0.519   7.414  1.6186  1.7991  1.3698
 5383SOL    HW216993   7.910   0.592   7.283 -1.3731 -1.6920 -0.2780
 5384SOL     OW16994   2.362   5.281   3.878 -0.2090  0.2256 -0.5813
 5384SOL    HW116995   2.316   5.362   3.900 -0.6606 -0.2968  0.4351
 5384SOL    HW216996   2.439   5.280   3.935 -1.1604 -0.9223  0.7512
 5385SOL     OW16997   4.075   4.073   7.487 -0.0652  0.1776  0.2276
 5385SOL    HW116998   4.069   4.145   7.424 -0.1757  0.5322  0.6333
 5385SOL    HW216999   4.056   3.994   7.436 -0.5338  0.4973 -0.0983
 5386SOL     OW17000   7.420   5.119   3.859 -0.5962  1.2717  0.2343
 5386SOL    HW117001   7.395   5.211   3.854 -0.6383  1.1920 -1.6762
 5386SOL    HW217002   7.515   5.121   3.867 -0.7496  1.4807  3.2873
 5387SOL     OW17003   0.747   6.805   1.987 -0.1504  0.4440 -0.4166
 5387SOL    HW117004   0.731   6.742   2.057  3.1836  0.3406  0.4339
 5387SOL    HW217005   0.772   6.751   1.911 -1.5382  0.6470 -1.0515
 5388SOL     OW17006   5.353   0.545   1.675 -0.0845  0.0378 -0.4726
 5388SOL    HW117007   5.416   0.508   1.737 -0.0771  0.3042 -0.3211
 5388SOL    HW217008   5.318   0.469   1.629  0.6097 -0.0854 -0.8074
 5389SOL     OW17009   5.996   0.373   6.745 -0.1902 -0.6269  0.4716
 5389SOL    HW117010   6.042   0.422   6.813 -0.3341 -1.1174  0.9313
 5389SOL    HW217011   6.060   0.307   6.717  0.5809  0.7612 -1.2548
 5390SOL     OW17012   2.480   3.019   2.335 -0.5002  0.1268  0.2459
 5390SOL    HW117013   2.524   3.072   2.269 -1.1759 -1.4637 -1.5794
 5390SOL    HW217014   2.387   3.029   2.315 -0.6693 -1.1267  0.3446
 5391SOL     OW17015   3.091   2.592   0.419 -0.4605  0.4179  0.3620
 5391SOL    HW117016   3.178   2.598   0.380 -0.6467 -0.4967 -0.2081
 5391SOL    HW217017   3.108   2.579   0.513  0.0080  0.4800  0.2893
 5392SOL     OW17018   1.860   7.920   0.334 -0.1674 -0.7023  0.2773
 5392SOL    HW117019   1.795   7.906   0.403  0.6972 -1.0273  1.0384
 5392SOL    HW217020   1.938   7.951   0.380  0.2092 -0.2669 -0.6331
 5393SOL     OW17021   2.949   3.178   0.645  0.6792 -0.2247 -0.5508
 5393SOL    HW117022   2.916   3.160   0.557 -0.4114 -0.5744 -0.0872
 5393SOL    HW217023   3.026   3.234   0.631  1.2700 -1.2968 -1.7798
 5394SOL     OW17024   2.207   2.424   2.367  0.4650  0.3143  0.3399
 5394SOL    HW117025   2.179   2.429   2.459 -3.2911  1.8338 -0.7416
 5394SOL    HW217026   2.157   2.351   2.331  1.9889 -0.3326 -0.5428
 5395SOL     OW17027   6.521   8.089   2.183  0.6290  0.5070 -0.0661
 5395SOL    HW117028   6.549   8.062   2.271  2.5936  1.5791 -0.3211
 5395SOL    HW217029   6.501   8.007   2.139 -1.2686 -0.0225  1.6142
 5396SOL     OW17030   0.589   8.052   3.429 -0.4490  0.1455  0.1592
 5396SOL    HW117031   0.682   8.052   3.406  0.1868  2.6866  2.3487
 5396SOL    HW217032   0.572   7.963   3.459  1.2520 -0.3676 -0.2961
 5397SOL     OW17033   1.148   8.164   7.868 -0.2344  0.3992  0.2016
 5397SOL    HW117034   1.212   8.182   7.800 -0.2783  2.4273  0.6300
 5397SOL    HW217035   1.076   8.120   7.822  1.2157 -1.4955 -0.3594
 5398SOL     OW17036   2.003   5.962   3.465 -0.1114 -0.0779  0.0221
 5398SOL    HW117037   2.003   6.044   3.415  0.3360  0.4168  0.8076
 5398SOL    HW217038   1.910   5.945   3.483 -0.2867 -0.3567 -1.1170
 5399SOL     OW17039   6.143   4.249   8.103  0.6321 -0.0411  0.0212
 5399SOL    HW117040   6.111   4.253   8.193 -3.4763 -0.3717 -1.2255
 5399SOL    HW217041   6.180   4.162   8.094 -0.7280 -0.7416  0.9025
 5400SOL     OW17042   4.428   1.326   5.349 -1.0546 -0.1719  0.4946
 5400SOL    HW117043   4.438   1.405   5.402 -2.5057 -1.1791  2.3780
 5400SOL    HW217044   4.334   1.316   5.336 -0.9321 -1.7613  0.5694
 5401SOL     OW17045   1.892   2.493   3.591 -0.2919 -0.4730  0.6729
 5401SOL    HW117046   1.984   2.474   3.573 -0.7513 -1.4967 -0.8248
 5401SOL    HW217047   1.873   2.444   3.671  0.3366 -0.6498  0.7198
 5402SOL     OW17048   5.709   1.473   1.055  0.1544 -0.1281  0.0994
 5402SOL    HW117049   5.788   1.422   1.073  0.8399  0.0924 -1.9782
 5402SOL    HW217050   5.642   1.407   1.034 -0.5128 -0.3575  2.6475
 5403SOL     OW17051   7.789   0.393   0.068 -0.1322 -0.6357 -0.0094
 5403SOL    HW117052   7.869   0.348   0.094  1.3355  1.7336 -0.0954
 5403SOL    HW217053   7.771   0.361  -0.021  0.5039 -1.4393  0.1439
 5404SOL     OW17054   7.556   0.744   5.725  0.0426  0.0785 -0.3989
 5404SOL    HW117055   7.572   0.774   5.814  1.5331 -0.8236 -0.3101
 5404SOL    HW217056   7.520   0.820   5.680 -2.6285  0.0182  1.4069
 5405SOL     OW17057   7.502   1.573   3.920  0.1625 -0.2613 -1.3235
 5405SOL    HW117058   7.507   1.479   3.903  2.6355 -0.6198  0.8652
 5405SOL    HW217059   7.583   1.609   3.884 -0.2121  0.8555 -1.0886
 5406SOL     OW17060   4.139   0.254   2.824  0.1128  0.1996 -0.4995
 5406SOL    HW117061   4.070   0.252   2.890  1.2720  1.1561  0.8076
 5406SOL    HW217062   4.101   0.303   2.751 -1.3774 -1.3373 -0.8049
 5407SOL     OW17063   7.348   5.569   7.722  0.2688  0.4443 -0.7975
 5407SOL    HW117064   7.277   5.542   7.780  1.1059  0.4515  0.2621
 5407SOL    HW217065   7.425   5.577   7.780  1.2394 -0.0044 -1.9842
 5408SOL     OW17066   4.105   2.800   7.327  0.4563 -0.1541  0.1121
 5408SOL    HW117067   4.117   2.708   7.352 -1.5297 -1.3293 -2.6610
 5408SOL    HW217068   4.133   2.803   7.235  1.0319  2.2148  0.2978
 5409SOL     OW17069   6.997   3.870   2.385  0.5788 -0.0576 -0.4126
 5409SOL    HW117070   7.089   3.852   2.366  0.9432  1.9764 -0.8840
 5409SOL    HW217071   6.989   3.965   2.377 -1.8536 -0.2768 -1.6653
 5410SOL     OW17072   0.085   3.925   2.267  0.1085 -0.4884 -0.0124
 5410SOL    HW117073   0.015   3.985   2.240 -0.2229 -1.3901 -1.2129
 5410SOL    HW217074   0.090   3.861   2.197  1.2367 -1.2188  0.7139
 5411SOL     OW17075   3.117   3.734   6.938  0.4697 -0.3938 -0.0398
 5411SOL    HW117076   3.116   3.749   6.844 -0.4449 -0.8617 -0.1128
 5411SOL    HW217077   3.209   3.714   6.958  0.5445 -1.0116 -0.9514
 5412SOL     OW17078   1.322   3.421   4.299  0.2148  0.0876 -0.1083
 5412SOL    HW117079   1.368   3.418   4.383  0.6723 -1.0592 -0.3750
 5412SOL    HW217080   1.354   3.501   4.257  0.4478  0.3447  0.5557
 5413SOL     OW17081   0.606   7.196   4.432 -0.3131 -0.4790 -0.1087
 5413SOL    HW117082   0.652   7.133   4.488  2.3691  2.3676  1.2021
 5413SOL    HW217083   0.524   7.152   4.409  0.7144 -3.8157  1.8564
 5414SOL     OW17084   4.327   0.231   0.184 -0.1109  0.0914 -0.5943
 5414SOL    HW117085   4.331   0.210   0.091  0.3422  2.3179 -1.1527
 5414SOL    HW217086   4.374   0.160   0.227  1.4726  0.0358 -2.2933
 5415SOL     OW17087   7.046   4.996   4.411 -0.0345  0.5904 -0.1062
 5415SOL    HW117088   7.053   4.961   4.322 -1.0768  0.6545 -0.2179
 5415SOL    HW217089   6.953   5.010   4.425  0.2285  2.0689  0.4287
 5416SOL     OW17090   4.538   6.552   5.841  0.1278 -0.2007  0.1241
 5416SOL    HW117091   4.616   6.559   5.786 -0.4364  1.2599 -0.5368
 5416SOL    HW217092   4.475   6.504   5.787  0.4354 -1.0997  0.5377
 5417SOL     OW17093   6.085   0.747   3.906  0.2502 -0.1391  0.3579
 5417SOL    HW117094   6.000   0.784   3.881 -0.0800  0.8991  2.7486
 5417SOL    HW217095   6.149   0.797   3.855 -0.4927 -1.0443 -1.6026
 5418SOL     OW17096   0.799   3.636   5.058 -0.2205  0.0801  0.2291
 5418SOL    HW117097   0.743   3.573   5.013 -0.8506 -0.3426  1.5405
 5418SOL    HW217098   0.886   3.624   5.018  0.1776 -3.0952  1.7343
 5419SOL     OW17099   2.403   6.700   4.475 -0.2432  0.1647 -0.0806
 5419SOL    HW117100   2.446   6.764   4.418 -2.0585  0.0511 -1.6658
 5419SOL    HW217101   2.430   6.615   4.440  0.0948  0.0668  0.4060
 5420SOL     OW17102   6.598   5.660   2.299  0.0623 -0.0693 -0.8590
 5420SOL    HW117103   6.568   5.739   2.343 -1.1289 -1.0633  0.2235
 5420SOL    HW217104   6.644   5.611   2.367 -0.2022 -0.8041 -1.1914
 5421SOL     OW17105   6.804   3.900   4.691 -0.3044 -0.1747 -0.2258
 5421SOL    HW117106   6.894   3.906   4.722  0.1666  1.5653 -1.7196
 5421SOL    HW217107   6.775   3.813   4.717  1.8717 -0.8557  0.1415
 5422SOL     OW17108   6.152   7.367   7.805  0.4363 -0.6642  0.2740
 5422SOL    HW117109   6.060   7.381   7.826  0.7805  0.8471  0.8473
 5422SOL    HW217110   6.158   7.383   7.710  0.5661  2.0485  0.6672
 5423SOL     OW17111   2.453   5.630   1.267  0.1754 -0.4445 -0.1017
 5423SOL    HW117112   2.404   5.710   1.285  0.4446 -0.0327 -1.1107
 5423SOL    HW217113   2.521   5.657   1.205  1.7860 -0.9591  1.3417
 5424SOL     OW17114   8.035   5.654   4.630  0.1837  0.0667  0.2751
 5424SOL    HW117115   7.987   5.697   4.559  1.3642 -1.7859 -1.7626
 5424SOL    HW217116   7.969   5.605   4.678 -0.5961  1.1109  0.2944
 5425SOL     OW17117   4.147   4.257   5.627  0.4538  0.1226  0.0679
 5425SOL    HW117118   4.161   4.327   5.691  0.4172  0.0087  0.1999
 5425SOL    HW217119   4.105   4.187   5.677 -1.1182  0.6707 -0.4464
 5426SOL     OW17120   4.512   3.210   7.633  0.5318 -0.0339  0.5526
 5426SOL    HW117121   4.475   3.173   7.713 -1.1187 -1.1384 -0.6663
 5426SOL    HW217122   4.532   3.135   7.578  0.0880  0.7541 -0.7292
 5427SOL     OW17123   3.844   7.525   3.625  0.0624  0.2349  0.1675
 5427SOL    HW117124   3.813   7.616   3.624 -0.6067  0.0423  1.5194
 5427SOL    HW217125   3.782   7.479   3.681 -0.3239 -1.3597 -1.4926
 5428SOL     OW17126   2.343   6.605   7.838 -0.3327  0.4919  0.3068
 5428SOL    HW117127   2.337   6.515   7.870  1.5021  0.5647  0.9646
 5428SOL    HW217128   2.361   6.596   7.744 -0.4520  0.1836  0.3138
 5429SOL     OW17129   3.358   5.337   8.075 -0.4897  0.1189  0.0251
 5429SOL    HW117130   3.426   5.322   8.140 -0.9638 -0.0085  0.4948
 5429SOL    HW217131   3.344   5.432   8.075 -0.4218  0.1285  0.0382
 5430SOL     OW17132   0.797   1.168   3.554 -0.5698  0.2914 -0.0532
 5430SOL    HW117133   0.748   1.138   3.630  0.8071 -2.0307  0.0373
 5430SOL    HW217134   0.830   1.087   3.514 -0.4976  1.4933 -2.6064
 5431SOL     OW17135   1.096   4.004   2.455 -0.3987 -0.0623  0.0739
 5431SOL    HW117136   1.057   3.964   2.533 -0.1602 -1.3378 -0.4332
 5431SOL    HW217137   1.028   4.063   2.422 -0.6335  0.2243  1.0436
 5432SOL     OW17138   3.704   1.449   5.409  0.5618  0.0300 -0.0642
 5432SOL    HW117139   3.747   1.515   5.463  1.6951  0.3577 -1.3086
 5432SOL    HW217140   3.617   1.485   5.392 -0.1216 -0.4257  2.1051
 5433SOL     OW17141   1.257   1.707   4.732  0.2855  0.1497 -0.2382
 5433SOL    HW117142   1.324   1.765   4.770 -0.8280  1.1316  0.2842
 5433SOL    HW217143   1.270   1.623   4.777  0.2247  0.7551  0.9671
 5434SOL     OW17144   8.030   1.180   0.520 -0.6777 -0.3947 -0.2720
 5434SOL    HW117145   8.034   1.216   0.609  1.4709 -0.2754 -0.3719
 5434SOL    HW217146   8.055   1.089   0.530  1.9466  0.1648 -0.9645
 5435SOL     OW17147   4.195   1.523   3.184 -0.3419  0.2657 -0.2293
 5435SOL    HW117148   4.273   1.508   3.130  0.7580 -0.5120  1.4799
 5435SOL    HW217149   4.142   1.445   3.173  0.0564 -0.0519  0.0874
 5436SOL     OW17150   3.257   1.805   0.846 -0.1088  0.2034  0.7117
 5436SOL    HW117151   3.268   1.745   0.920  1.6825 -1.5101 -0.8116
 5436SOL    HW217152   3.178   1.773   0.801 -0.9126  0.9435  1.5383
 5437SOL     OW17153   7.335   4.416   5.453  0.5736  0.3502  0.2461
 5437SOL    HW117154   7.286   4.498   5.455  1.0145  0.6509 -0.7542
 5437SOL    HW217155   7.422   4.440   5.485  0.7320  0.2997 -0.1424
 5438SOL     OW17156   2.644   7.259   5.632 -0.1578  0.1010  0.2478
 5438SOL    HW117157   2.630   7.326   5.699 -1.5607 -1.0765  1.1992
 5438SOL    HW217158   2.723   7.214   5.660  1.2627  1.7874 -0.8287
 5439SOL     OW17159   1.552   2.257   5.461 -0.1187  0.1460  0.3160
 5439SOL    HW117160   1.508   2.338   5.435 -0.0215  0.8336  2.1544
 5439SOL    HW217161   1.498   2.222   5.532  1.5500  0.3576  1.7790
 5440SOL     OW17162   6.272   5.851   3.184 -0.1405  0.7429  0.1165
 5440SOL    HW117163   6.303   5.768   3.219  2.8033  0.8926 -1.7853
 5440SOL    HW217164   6.293   5.847   3.091 -2.1515  2.6935 -0.5039
 5441SOL     OW17165   4.725   6.663   5.038 -0.3515 -0.1543  0.5490
 5441SOL    HW117166   4.696   6.741   5.085 -1.6751 -0.4413  0.2566
 5441SOL    HW217167   4.655   6.599   5.053 -0.7359 -0.3180 -1.6110
 5442SOL     OW17168   5.082   0.094   2.306 -0.1471  0.2585  0.1539
 5442SOL    HW117169   5.120   0.015   2.268  0.5796  1.2029 -1.1791
 5442SOL    HW217170   5.043   0.065   2.389  0.7158 -1.3493  0.0333
 5443SOL     OW17171   6.638   4.033   4.385 -0.8287  0.4961 -0.1227
 5443SOL    HW117172   6.554   3.988   4.387  0.1261 -1.4559  2.2514
 5443SOL    HW217173   6.641   4.082   4.468  0.7449 -0.3686  0.3871
 5444SOL     OW17174   4.936   6.578   7.194 -0.3032 -0.0039  0.2772
 5444SOL    HW117175   4.883   6.567   7.115 -0.0075  1.3865 -0.1376
 5444SOL    HW217176   5.005   6.513   7.186 -0.6330 -0.2939 -0.2957
 5445SOL     OW17177   6.226   6.855   6.774  0.2761 -0.0534 -0.1308
 5445SOL    HW117178   6.176   6.936   6.764 -0.7345 -0.6251  0.1531
 5445SOL    HW217179   6.187   6.812   6.849  1.8631 -0.0700  0.7332
 5446SOL     OW17180   4.896   6.871   5.726 -0.6986 -0.4291  0.3770
 5446SOL    HW117181   4.851   6.953   5.747 -1.0610 -0.3832 -0.5356
 5446SOL    HW217182   4.909   6.874   5.631  2.2947  0.0932  0.7200
 5447SOL     OW17183   4.897   3.514   6.900  0.1145  0.7785 -0.3564
 5447SOL    HW117184   4.920   3.447   6.836 -0.2622  0.2321  0.0667
 5447SOL    HW217185   4.812   3.487   6.934  0.3817  0.9645  0.4951
 5448SOL     OW17186   1.118   1.130   7.976 -0.0478 -0.3723 -0.0842
 5448SOL    HW117187   1.143   1.078   8.052 -0.4813 -1.4948 -0.6873
 5448SOL    HW217188   1.196   1.130   7.921 -0.2483 -0.9336 -0.3747
 5449SOL     OW17189   6.501   7.898   8.161  0.5113 -0.4224  0.0553
 5449SOL    HW117190   6.468   7.950   8.235 -0.9254  0.4885 -1.1577
 5449SOL    HW217191   6.424   7.885   8.105  1.4926 -1.3541 -1.1360
 5450SOL     OW17192   1.293   1.825   1.818 -0.0913 -0.7278  0.2684
 5450SOL    HW117193   1.329   1.831   1.729  1.7076  2.4974  1.0283
 5450SOL    HW217194   1.317   1.738   1.848  2.6997 -0.5561 -1.1474
 5451SOL     OW17195   7.466   4.268   7.181 -0.6330 -0.0630  0.1598
 5451SOL    HW117196   7.541   4.221   7.218 -0.1056 -0.4229 -1.3002
 5451SOL    HW217197   7.409   4.199   7.149 -1.1355  0.2421  0.3950
 5452SOL     OW17198   5.781   1.194   7.016 -0.3200 -0.2921  0.0619
 5452SOL    HW117199   5.698   1.238   7.001 -0.2384 -0.2199 -0.1851
 5452SOL    HW217200   5.845   1.265   7.024 -0.2996 -0.3427  0.3762
 5453SOL     OW17201   0.985   6.668   5.625  0.3618 -0.4390  0.3469
 5453SOL    HW117202   0.975   6.590   5.571  1.9258  0.3865 -1.2339
 5453SOL    HW217203   1.068   6.656   5.671 -0.0084 -0.2616  1.0827
 5454SOL     OW17204   1.597   0.648   4.200 -0.2649  0.3581  0.4595
 5454SOL    HW117205   1.582   0.559   4.232  0.0419  0.4396  0.8344
 5454SOL    HW217206   1.580   0.642   4.106 -0.6811  0.0042  0.5512
 5455SOL     OW17207   4.224   2.431   7.022 -0.0836 -0.8029  0.0049
 5455SOL    HW117208   4.276   2.354   6.999 -0.3303 -0.8770 -0.3026
 5455SOL    HW217209   4.147   2.426   6.966 -0.7226 -1.0139  0.8968
 5456SOL     OW17210   3.055   2.416   4.208  0.2907  0.4933 -0.4843
 5456SOL    HW117211   2.975   2.371   4.234  0.2670  0.3972 -0.7197
 5456SOL    HW217212   3.034   2.509   4.213  0.0381  0.4629 -0.9327
 5457SOL     OW17213   2.323   5.752   5.268 -0.8163 -0.0332  0.5611
 5457SOL    HW117214   2.401   5.728   5.317  0.1153 -1.6028 -1.5201
 5457SOL    HW217215   2.357   5.787   5.186 -2.2693 -0.7831 -0.4049
 5458SOL     OW17216   5.500   5.327   4.413  0.1899 -0.6379 -0.0160
 5458SOL    HW117217   5.591   5.340   4.438 -0.1560  0.8369  0.5968
 5458SOL    HW217218   5.504   5.274   4.333  1.5707 -0.5638 -0.0159
 5459SOL     OW17219   5.592   3.421   3.647 -0.1529  0.0927  0.0522
 5459SOL    HW117220   5.501   3.436   3.672 -0.5341 -0.7620 -0.7776
 5459SOL    HW217221   5.604   3.472   3.567  0.5806  1.4599  0.9779
 5460SOL     OW17222   4.594   4.154   4.315 -0.6825  0.1115  0.1560
 5460SOL    HW117223   4.514   4.104   4.301 -0.3457 -1.2578  2.5238
 5460SOL    HW217224   4.566   4.245   4.323 -1.8916 -0.2600  0.2313
 5461SOL     OW17225   3.093   3.441   6.713 -0.5212 -0.0358 -0.0473
 5461SOL    HW117226   2.999   3.458   6.722 -0.5667 -0.9837  1.6351
 5461SOL    HW217227   3.123   3.425   6.802  1.3511  0.6963 -0.5046
 5462SOL     OW17228   2.179   4.049   2.343 -0.2607  0.1061 -0.2223
 5462SOL    HW117229   2.101   3.997   2.330 -0.5203  0.9074 -2.1273
 5462SOL    HW217230   2.235   4.029   2.268  0.7835  0.5534  0.4086
 5463SOL     OW17231   2.089   7.237   4.238 -0.1933  0.2154  0.1700
 5463SOL    HW117232   2.182   7.252   4.224 -0.3920  0.2944 -1.1858
 5463SOL    HW217233   2.083   7.206   4.329  1.5996 -3.3373 -0.7199
 5464SOL     OW17234   7.828   5.754   4.478  0.5594 -0.4758 -0.0930
 5464SOL    HW117235   7.805   5.673   4.433 -0.1563 -1.4772  1.9449
 5464SOL    HW217236   7.746   5.803   4.481  0.7719 -0.0893 -0.4845
 5465SOL     OW17237   4.195   7.391   4.786 -0.4139 -0.3717  0.5985
 5465SOL    HW117238   4.291   7.385   4.781 -0.5692 -1.8329 -1.3108
 5465SOL    HW217239   4.177   7.483   4.768  0.6183 -0.1163  0.7713
 5466SOL     OW17240   5.571   7.700   0.081  0.2823 -0.0739 -0.3542
 5466SOL    HW117241   5.597   7.733   0.166 -0.5398 -1.3803  0.4394
 5466SOL    HW217242   5.482   7.734   0.068  0.8603  1.1541 -1.2808
 5467SOL     OW17243   6.114   7.395   6.221  0.5769 -0.0110 -0.3484
 5467SOL    HW117244   6.043   7.332   6.229  1.4803 -0.8593  1.7382
 5467SOL    HW217245   6.193   7.341   6.211  1.0396  0.8886 -1.8686
 5468SOL     OW17246   6.179   1.383   6.291  0.3413 -0.0465 -0.4782
 5468SOL    HW117247   6.161   1.309   6.233 -0.7590 -0.0673 -0.1320
 5468SOL    HW217248   6.197   1.456   6.232  2.2304 -0.7358 -0.8323
 5469SOL     OW17249   1.798   2.104   3.510 -0.3181  0.3023 -0.0954
 5469SOL    HW117250   1.790   2.158   3.431  0.0363  1.1235  0.4264
 5469SOL    HW217251   1.728   2.135   3.567 -1.8583 -1.6084 -0.8135
 5470SOL     OW17252   7.379   0.172   3.360  0.0896 -0.1120 -0.4247
 5470SOL    HW117253   7.373   0.223   3.279 -0.0385 -1.2257 -1.1347
 5470SOL    HW217254   7.450   0.110   3.344  0.3875 -0.0174  0.5048
 5471SOL     OW17255   5.651   1.076   0.884  0.2694 -0.5341 -0.0722
 5471SOL    HW117256   5.668   0.996   0.934  0.6465  0.6263  1.7444
 5471SOL    HW217257   5.738   1.108   0.862  0.1614  0.0276  0.3065
 5472SOL     OW17258   6.642   7.499   7.045 -0.2212 -0.5082 -0.2615
 5472SOL    HW117259   6.616   7.464   6.959 -2.0238  0.8854 -0.3245
 5472SOL    HW217260   6.569   7.553   7.072 -0.5175 -2.3022  3.0233
 5473SOL     OW17261   4.385   6.737   0.563 -0.6069 -0.0462 -0.3623
 5473SOL    HW117262   4.302   6.692   0.580 -0.0727 -1.7453 -1.9281
 5473SOL    HW217263   4.449   6.691   0.618 -0.2384 -0.5696 -1.2067
 5474SOL     OW17264   8.218   7.394   0.121  0.0913  0.1399 -0.2851
 5474SOL    HW117265   8.160   7.470   0.113 -1.1693 -0.5518  1.5685
 5474SOL    HW217266   8.232   7.385   0.215  0.8271 -1.4805 -0.5242
 5475SOL     OW17267   2.007   5.272   2.370  0.5554 -0.2139  0.5308
 5475SOL    HW117268   1.998   5.234   2.283  2.2032 -0.1811  0.3152
 5475SOL    HW217269   2.060   5.208   2.419  0.3115  0.1279  1.2603
 5476SOL     OW17270   4.227   0.593   1.097  0.2634  0.1934  0.5715
 5476SOL    HW117271   4.289   0.528   1.065 -0.1793  0.7116 -1.4807
 5476SOL    HW217272   4.145   0.544   1.108  0.4839 -0.0418  1.2316
 5477SOL     OW17273   6.586   3.916   7.009 -0.3339  0.2680 -0.0132
 5477SOL    HW117274   6.667   3.929   6.960 -1.1493  1.6120 -1.0676
 5477SOL    HW217275   6.611   3.857   7.081  0.9990 -1.4112 -1.7353
 5478SOL     OW17276   6.577   6.326   5.844 -0.2454  0.5816 -0.3073
 5478SOL    HW117277   6.579   6.231   5.839 -0.6578  0.6205 -1.6194
 5478SOL    HW217278   6.669   6.352   5.849 -0.1848  0.0641  2.0558
 5479SOL     OW17279   5.150   4.628   1.219  0.0242 -1.0448 -0.6031
 5479SOL    HW117280   5.115   4.706   1.176 -0.2228 -0.9204 -0.1883
 5479SOL    HW217281   5.075   4.570   1.228 -0.2942 -0.4248  1.0704
 5480SOL     OW17282   6.934   1.692   4.883  0.1663 -0.1412  0.2000
 5480SOL    HW117283   6.950   1.735   4.799 -0.0522  0.7734  0.6126
 5480SOL    HW217284   6.839   1.685   4.888  0.2026 -0.9812  0.0051
 5481SOL     OW17285   2.728   3.567   8.149  0.2574  0.1717 -0.2377
 5481SOL    HW117286   2.773   3.649   8.171  0.2023  0.2503 -0.4113
 5481SOL    HW217287   2.636   3.592   8.142  0.3421  0.2889 -1.1917
 5482SOL     OW17288   3.229   6.484   2.198 -0.1237 -0.0988  0.6323
 5482SOL    HW117289   3.195   6.497   2.286 -1.2120  2.9822 -0.1456
 5482SOL    HW217290   3.189   6.402   2.169  0.1054 -1.0721  2.8604
 5483SOL     OW17291   3.339   2.281   1.124  0.1849  0.1997 -0.4135
 5483SOL    HW117292   3.406   2.244   1.068 -1.2434 -1.7192 -0.9784
 5483SOL    HW217293   3.369   2.263   1.213  0.9907  0.4995 -0.6159
 5484SOL     OW17294   7.887   5.209   7.857  0.0705 -0.3667 -0.4537
 5484SOL    HW117295   7.906   5.190   7.765  1.4544  0.2065 -0.3027
 5484SOL    HW217296   7.934   5.290   7.875 -0.0351 -0.5716  0.8077
 5485SOL     OW17297   0.077   4.898   4.357 -0.1019  0.8575  0.6607
 5485SOL    HW117298   0.165   4.902   4.394  0.4149 -0.3636 -0.4024
 5485SOL    HW217299   0.064   4.807   4.332 -0.3634  1.6042 -2.2807
 5486SOL     OW17300   7.821   5.902   2.408 -0.1326 -0.0319  0.0257
 5486SOL    HW117301   7.805   5.866   2.496  0.9252 -0.1477  0.1950
 5486SOL    HW217302   7.902   5.952   2.418  0.1449 -0.2744 -0.9498
 5487SOL     OW17303   4.474   2.838   2.979  0.2239 -0.5977  0.7538
 5487SOL    HW117304   4.499   2.924   3.012  1.4224 -0.4209 -0.5023
 5487SOL    HW217305   4.545   2.814   2.919 -1.3939 -1.2471 -1.0109
 5488SOL     OW17306   7.992   6.628   2.315  0.1443  0.3364 -0.1251
 5488SOL    HW117307   7.949   6.550   2.279 -0.3268 -0.5650  2.2217
 5488SOL    HW217308   7.920   6.681   2.350  0.6824  0.1623  1.3212
 5489SOL     OW17309   2.656   6.156   1.235  0.2795 -0.1755 -0.1653
 5489SOL    HW117310   2.687   6.234   1.189  1.0900 -0.1290  0.4299
 5489SOL    HW217311   2.638   6.093   1.165  2.1497 -0.3482 -0.5514
 5490SOL     OW17312   5.909   5.189   3.394 -0.8311  0.0457  0.1496
 5490SOL    HW117313   5.977   5.177   3.329 -1.6279 -0.6852 -0.5724
 5490SOL    HW217314   5.859   5.265   3.363 -0.3959  0.5500  0.6516
 5491SOL     OW17315   7.844   0.547   4.620 -0.3516  0.1506 -0.1955
 5491SOL    HW117316   7.836   0.547   4.525  1.3704  1.5561 -0.3900
 5491SOL    HW217317   7.857   0.454   4.643 -0.5015 -0.1707 -1.3424
 5492SOL     OW17318   1.265   6.646   3.181 -0.2989 -0.2817 -0.2711
 5492SOL    HW117319   1.311   6.566   3.154 -1.5816 -0.9047 -0.6732
 5492SOL    HW217320   1.183   6.645   3.131 -1.8701 -0.4621  2.1503
 5493SOL     OW17321   5.317   2.763   4.097  0.4128 -0.1121  0.0929
 5493SOL    HW117322   5.370   2.768   4.017 -0.6999  0.2933 -0.6446
 5493SOL    HW217323   5.231   2.733   4.067  0.6772 -2.5334  1.5167
 5494SOL     OW17324   1.745   7.054   7.195  0.4601  0.1447 -0.1830
 5494SOL    HW117325   1.736   7.125   7.132 -0.2641 -0.8845 -1.2653
 5494SOL    HW217326   1.687   6.985   7.163 -0.0725 -0.3456  1.7107
 5495SOL     OW17327   2.554   5.211   6.403  0.1842  0.0983  0.1160
 5495SOL    HW117328   2.599   5.294   6.385  0.0813 -0.1881 -1.6359
 5495SOL    HW217329   2.552   5.206   6.499  1.4834  1.4073  0.2627
 5496SOL     OW17330   7.390   3.470   1.063 -0.2180 -0.0954 -0.0951
 5496SOL    HW117331   7.372   3.521   0.984 -1.7039  0.7574  0.7545
 5496SOL    HW217332   7.334   3.509   1.130  0.3382 -1.3824  1.1652
 5497SOL     OW17333   1.939   3.589   0.020 -0.4928  0.2340  0.2468
 5497SOL    HW117334   2.017   3.619  -0.027  0.5054 -1.6658  0.5909
 5497SOL    HW217335   1.925   3.656   0.088  1.1947  0.3275  0.5435
 5498SOL     OW17336   7.569   5.910   3.361 -0.5819 -0.0556  0.3518
 5498SOL    HW117337   7.521   5.844   3.310 -0.9166  0.0206  0.5647
 5498SOL    HW217338   7.658   5.908   3.326 -0.0359 -2.0447  1.6979
 5499SOL     OW17339   4.310   2.443   0.567 -0.4188 -0.0166  0.4839
 5499SOL    HW117340   4.302   2.524   0.517  0.5840  0.6197  1.3071
 5499SOL    HW217341   4.309   2.373   0.502 -1.0786  0.6674 -0.2543
 5500SOL     OW17342   5.007   4.220   2.045 -0.0445 -0.1553 -0.2522
 5500SOL    HW117343   4.950   4.213   2.122  0.8934  0.6532  0.5477
 5500SOL    HW217344   5.023   4.314   2.036  1.0464 -0.3512 -0.5391
 5501SOL     OW17345   3.264   3.318   3.394 -0.5294 -0.1035 -0.6649
 5501SOL    HW117346   3.231   3.231   3.371 -1.1847 -0.1284  0.3172
 5501SOL    HW217347   3.272   3.364   3.310  0.4105 -1.2984 -1.2669
 5502SOL     OW17348   5.269   6.891   1.809 -0.0850  0.6422 -0.3935
 5502SOL    HW117349   5.302   6.960   1.867  0.6481 -0.3997  0.4710
 5502SOL    HW217350   5.174   6.903   1.808 -0.1720  0.3452  1.5059
 5503SOL     OW17351   7.043   5.098   5.093 -0.7269  0.2550  0.6674
 5503SOL    HW117352   7.075   5.188   5.082  0.1426 -0.2848 -1.9114
 5503SOL    HW217353   7.078   5.071   5.178  2.5037  1.0516 -0.2683
 5504SOL     OW17354   0.123   1.601   6.488 -0.1433 -0.3518  1.0511
 5504SOL    HW117355   0.168   1.546   6.551  1.2101 -0.5575 -0.0436
 5504SOL    HW217356   0.163   1.687   6.497 -0.0030 -0.3597  0.5470
 5505SOL     OW17357   6.435   6.570   3.216  0.2582  0.2341  0.1953
 5505SOL    HW117358   6.356   6.528   3.183 -0.1402 -0.4186  1.8897
 5505SOL    HW217359   6.506   6.509   3.195  0.3804  0.8868 -1.4574
 5506SOL     OW17360   2.766   2.403   4.137  0.6494 -0.0631  0.4927
 5506SOL    HW117361   2.799   2.352   4.063 -0.4682 -1.4647  0.9178
 5506SOL    HW217362   2.747   2.337   4.204 -0.8628  0.9103  1.0593
 5507SOL     OW17363   2.616   0.619   7.753  0.2529  0.3813 -0.7521
 5507SOL    HW117364   2.613   0.708   7.716 -1.1054 -0.0757 -1.8205
 5507SOL    HW217365   2.538   0.576   7.717 -0.3452 -0.5602  1.5253
 5508SOL     OW17366   4.361   2.110   3.582  0.1981 -0.1146 -0.2161
 5508SOL    HW117367   4.293   2.044   3.599 -0.3870 -0.0896 -2.1392
 5508SOL    HW217368   4.381   2.100   3.489  1.2207  1.3915 -0.1990
 5509SOL     OW17369   6.166   3.062   6.603 -0.3885  0.1637  0.0060
 5509SOL    HW117370   6.074   3.059   6.578 -0.1194  0.2165 -1.0552
 5509SOL    HW217371   6.171   3.127   6.673 -1.1578  0.1201  0.1019
 5510SOL     OW17372   7.503   4.437   0.219 -0.3137 -0.0285 -0.0799
 5510SOL    HW117373   7.569   4.493   0.179  1.1290 -1.5586  0.0136
 5510SOL    HW217374   7.518   4.447   0.313 -1.1882  0.7030 -0.0104
 5511SOL     OW17375   0.926   2.161   1.717  0.1403  0.1181  0.3331
 5511SOL    HW117376   0.979   2.241   1.720  0.2718  0.0450  0.0533
 5511SOL    HW217377   0.984   2.096   1.677  0.7719 -0.7031  2.4947
 5512SOL     OW17378   7.483   5.320   7.619 -0.2699 -0.4948  0.0709
 5512SOL    HW117379   7.481   5.397   7.676 -0.9812 -0.1859 -0.3547
 5512SOL    HW217380   7.551   5.340   7.554 -1.6133  0.5562 -1.0752
 5513SOL     OW17381   6.935   5.424   2.918 -0.0816  0.4303 -0.0745
 5513SOL    HW117382   7.018   5.470   2.910  0.6263 -0.8758 -0.5707
 5513SOL    HW217383   6.955   5.334   2.892 -1.6423  0.0789 -0.1526
 5514SOL     OW17384   4.902   0.564   3.384 -0.5461  0.2406  0.3339
 5514SOL    HW117385   4.843   0.639   3.393  0.3052  0.9554  0.1862
 5514SOL    HW217386   4.870   0.517   3.307 -1.5272  0.0373  0.8585
 5515SOL     OW17387   4.383   4.655   7.293  0.1705 -0.4430  0.0610
 5515SOL    HW117388   4.455   4.712   7.265 -0.1440  0.1433  0.4082
 5515SOL    HW217389   4.394   4.649   7.388 -0.9028  0.6181  0.2837
 5516SOL     OW17390   0.360   6.500   5.018 -0.1485 -0.4902 -0.1637
 5516SOL    HW117391   0.289   6.549   5.059 -0.9937 -1.3055 -0.6125
 5516SOL    HW217392   0.316   6.430   4.969  0.7346  0.8502 -3.1051
 5517SOL     OW17393   7.715   1.632   3.766 -0.4546 -0.5822  0.6751
 5517SOL    HW117394   7.773   1.632   3.690  0.1962  2.2961  1.0447
 5517SOL    HW217395   7.774   1.625   3.841 -0.8623 -0.8442  0.9732
 5518SOL     OW17396   3.236   6.139   3.034  0.2119 -0.4062 -0.9125
 5518SOL    HW117397   3.214   6.220   2.988 -1.9845 -0.0853  0.5408
 5518SOL    HW217398   3.151   6.100   3.055  1.2012 -2.1766 -0.0179
 5519SOL     OW17399   0.962   8.070   2.307  0.3105 -0.3521 -0.5044
 5519SOL    HW117400   0.916   7.987   2.292  0.6191 -0.2712 -2.0921
 5519SOL    HW217401   1.042   8.062   2.254 -0.2042  1.3859 -1.6203
 5520SOL     OW17402   4.946   2.875   7.188 -0.2460 -0.0268  0.3150
 5520SOL    HW117403   5.013   2.843   7.249 -1.0744  0.9351  1.7656
 5520SOL    HW217404   4.869   2.821   7.206 -0.2819 -0.2386 -0.4254
 5521SOL     OW17405   5.991   5.264   2.703 -0.4696  0.7390 -0.1817
 5521SOL    HW117406   5.939   5.284   2.625 -0.0629  1.7478 -0.2101
 5521SOL    HW217407   6.046   5.190   2.677 -3.3983 -1.9642  0.5274
 5522SOL     OW17408   5.609   2.646   7.859 -0.0161 -0.0249 -0.4876
 5522SOL    HW117409   5.651   2.564   7.883 -0.2895 -0.0862 -0.2119
 5522SOL    HW217410   5.671   2.714   7.884  0.2279 -0.1497 -0.7534
 5523SOL     OW17411   0.618   7.301   5.397 -0.1875  0.5886  0.3027
 5523SOL    HW117412   0.535   7.339   5.424 -0.3717  0.5011 -0.1339
 5523SOL    HW217413   0.627   7.325   5.305 -0.7769 -1.2130 -0.2744
 5524SOL     OW17414   3.136   7.949   6.994  0.3637 -0.0273  0.5363
 5524SOL    HW117415   3.078   7.901   7.053 -0.0504 -0.0667  0.1018
 5524SOL    HW217416   3.194   7.998   7.052 -0.3864  0.3574  0.9762
 5525SOL     OW17417   2.846   0.491   2.074 -0.7798 -0.1315 -0.9471
 5525SOL    HW117418   2.837   0.421   2.139 -3.0030  0.7177 -0.2546
 5525SOL    HW217419   2.845   0.445   1.990  0.9546 -1.1470 -0.4691
 5526SOL     OW17420   2.403   0.365   1.197  0.3747  0.1120 -0.1270
 5526SOL    HW117421   2.491   0.333   1.214 -0.3495 -1.7742  0.3024
 5526SOL    HW217422   2.397   0.447   1.247  2.1377  0.7278 -0.8706
 5527SOL     OW17423   5.514   4.714   5.984  0.5569  0.4054  0.4084
 5527SOL    HW117424   5.603   4.722   6.019  0.6264 -0.1148  0.3500
 5527SOL    HW217425   5.514   4.632   5.936 -0.3383 -0.2886  1.5390
 5528SOL     OW17426   7.714   0.238   4.366 -0.0435  0.5105  0.2578
 5528SOL    HW117427   7.686   0.247   4.275  1.3507 -1.9841 -0.5121
 5528SOL    HW217428   7.802   0.277   4.367  0.1052  0.1724  0.4222
 5529SOL     OW17429   4.512   5.204   0.369 -0.0060 -0.0142  0.2747
 5529SOL    HW117430   4.591   5.258   0.369  1.0634 -1.4761  1.5803
 5529SOL    HW217431   4.445   5.260   0.331  1.6048  1.3457 -0.7198
 5530SOL     OW17432   7.755   1.169   6.242 -0.3221 -0.2834 -0.3917
 5530SOL    HW117433   7.834   1.214   6.271 -0.5719 -0.8185  1.2195
 5530SOL    HW217434   7.717   1.133   6.322 -0.8383 -2.2126 -1.4382
 5531SOL     OW17435   8.216   7.333   1.815  0.5115  0.1507  0.4213
 5531SOL    HW117436   8.295   7.375   1.848  0.6490 -0.0114  0.2993
 5531SOL    HW217437   8.178   7.398   1.756 -0.1401  0.7502  1.4594
 5532SOL     OW17438   6.612   8.085   5.067  0.2040  0.2379  0.2991
 5532SOL    HW117439   6.702   8.102   5.095  0.2688 -0.1570  0.3406
 5532SOL    HW217440   6.600   8.139   4.989  0.2335  0.8550  0.7157
 5533SOL     OW17441   2.525   0.497   2.622 -0.0051  0.3722 -0.5713
 5533SOL    HW117442   2.520   0.590   2.598  0.0149  0.5534  0.1162
 5533SOL    HW217443   2.615   0.485   2.653 -0.3998  0.4363  0.6174
 5534SOL     OW17444   3.994   5.520   3.571 -0.5577 -0.6926  0.3841
 5534SOL    HW117445   4.033   5.499   3.486 -0.9143 -0.5461  0.1788
 5534SOL    HW217446   3.903   5.541   3.550  0.0074  2.1604  0.4243
 5535SOL     OW17447   3.452   4.984   4.710  0.0276  0.6559  0.3248
 5535SOL    HW117448   3.429   5.050   4.644  0.5400  2.0697  1.4987
 5535SOL    HW217449   3.524   4.935   4.671 -1.6815 -0.6134 -1.4041
 5536SOL     OW17450   1.533   3.573   0.468  0.0660 -0.2804  0.8137
 5536SOL    HW117451   1.474   3.517   0.518 -0.2584 -0.5407  0.1494
 5536SOL    HW217452   1.515   3.662   0.499  0.2245 -0.4837  1.5110
 5537SOL     OW17453   1.257   5.266   5.854  0.2385  0.0755 -0.4345
 5537SOL    HW117454   1.317   5.336   5.827 -1.8841  1.1783 -2.7811
 5537SOL    HW217455   1.294   5.186   5.818  0.4096  0.7166 -1.7342
 5538SOL     OW17456   5.982   1.115   2.266 -0.2987 -0.3600 -0.4752
 5538SOL    HW117457   6.046   1.149   2.203 -0.0942 -1.5442 -0.9379
 5538SOL    HW217458   5.952   1.033   2.227 -1.4480 -0.2621  0.1679
 5539SOL     OW17459   6.310   4.203   7.431  0.9426  0.0792 -0.4180
 5539SOL    HW117460   6.293   4.296   7.416 -1.5553 -0.2909 -0.4177
 5539SOL    HW217461   6.366   4.177   7.358  2.2612  1.6972 -0.0387
 5540SOL     OW17462   5.785   6.943   7.894  0.1441  0.0442  0.1731
 5540SOL    HW117463   5.851   6.878   7.871 -1.3160 -0.7667 -2.0831
 5540SOL    HW217464   5.728   6.898   7.956 -0.4268 -0.5971 -0.7985
 5541SOL     OW17465   3.450   5.309   1.336  0.0870 -0.6290  0.5529
 5541SOL    HW117466   3.491   5.284   1.253  1.1493 -2.0673  1.4851
 5541SOL    HW217467   3.403   5.231   1.364 -1.1170  0.1687  0.8335
 5542SOL     OW17468   3.355   2.829   0.793  0.0713 -0.4151  0.2702
 5542SOL    HW117469   3.286   2.773   0.828 -1.8833  2.3714  1.1971
 5542SOL    HW217470   3.339   2.832   0.699 -3.2475  2.6006  0.7216
 5543SOL     OW17471   3.186   6.502   0.160 -0.2483 -0.7065 -0.1363
 5543SOL    HW117472   3.200   6.412   0.131 -1.9039 -1.0635  0.0515
 5543SOL    HW217473   3.138   6.493   0.242  0.3400  0.3477  0.3398
 5544SOL     OW17474   5.836   5.906   7.289  0.3041  0.3375  0.2510
 5544SOL    HW117475   5.763   5.924   7.349  0.2522  2.8908 -0.4794
 5544SOL    HW217476   5.793   5.883   7.206  0.3803 -2.1922  0.8512
 5545SOL     OW17477   7.896   0.324   4.154  0.6554 -0.0572 -0.2148
 5545SOL    HW117478   7.971   0.271   4.128 -0.3117 -1.3988 -0.3465
 5545SOL    HW217479   7.820   0.280   4.116 -0.2931  0.7531  0.6702
 5546SOL     OW17480   1.995   8.067   3.451 -0.2295 -0.3835  0.2779
 5546SOL    HW117481   2.023   8.130   3.518  0.3539 -1.5492  1.1687
 5546SOL    HW217482   1.903   8.049   3.472 -0.3864  0.1270  0.0442
 5547SOL     OW17483   6.389   4.340   5.598 -0.3613  0.5052  0.7126
 5547SOL    HW117484   6.369   4.406   5.532  1.3610  0.3257 -0.0726
 5547SOL    HW217485   6.373   4.383   5.681 -2.3566  0.8195  0.2138
 5548SOL     OW17486   3.178   3.496   3.875  0.0315 -0.7536 -0.5359
 5548SOL    HW117487   3.235   3.487   3.951  0.7768 -1.6335 -1.1802
 5548SOL    HW217488   3.205   3.425   3.816 -1.5131 -1.0086 -0.9906
 5549SOL     OW17489   5.713   5.144   0.020  1.1116  0.0213 -0.4445
 5549SOL    HW117490   5.678   5.056   0.004 -0.5238  0.5209  0.2066
 5549SOL    HW217491   5.654   5.182   0.085  3.8500  0.3075  2.1230
 5550SOL     OW17492   6.527   1.749   7.556 -0.2315 -0.1335 -0.3375
 5550SOL    HW117493   6.497   1.669   7.600 -1.2327  0.4222  0.0248
 5550SOL    HW217494   6.566   1.718   7.474 -1.5074 -0.9316 -0.6659
 5551SOL     OW17495   7.829   2.528   4.522 -0.0148 -0.4552  0.2156
 5551SOL    HW117496   7.858   2.469   4.452 -0.4071 -0.2509 -0.1289
 5551SOL    HW217497   7.851   2.615   4.490  1.2532 -0.4469  1.0581
 5552SOL     OW17498   7.145   3.084   7.298  0.2752 -0.1813  0.2819
 5552SOL    HW117499   7.181   3.154   7.243 -0.9732  0.4203  0.2037
 5552SOL    HW217500   7.086   3.036   7.239 -2.8780  1.8387  1.5264
 5553SOL     OW17501   7.981   3.998   3.157 -0.0289  0.5188  0.0560
 5553SOL    HW117502   7.989   4.061   3.085  1.9285  0.2507 -0.0126
 5553SOL    HW217503   8.008   4.047   3.235  2.4057 -0.4235 -0.1341
 5554SOL     OW17504   5.027   7.996   1.173 -0.1365  0.0560  0.2027
 5554SOL    HW117505   5.094   7.962   1.115  1.2425  1.0654  1.1306
 5554SOL    HW217506   5.015   7.927   1.239  0.5061  0.1564  0.4277
 5555SOL     OW17507   6.396   3.949   7.674  0.3462  0.2480  0.0399
 5555SOL    HW117508   6.340   3.933   7.598 -1.2934  2.2873  0.7198
 5555SOL    HW217509   6.459   4.015   7.644  0.7779 -0.1614  0.0192
 5556SOL     OW17510   1.260   4.094   6.344  0.1063 -0.2901 -0.1335
 5556SOL    HW117511   1.263   4.001   6.321  2.5155 -0.7299  1.5369
 5556SOL    HW217512   1.302   4.138   6.271 -0.7402 -0.5451 -0.7815
 5557SOL     OW17513   6.925   3.713   0.593 -0.5148  0.2619  0.9868
 5557SOL    HW117514   6.978   3.634   0.575 -2.4722 -0.6197 -1.5539
 5557SOL    HW217515   6.970   3.783   0.546 -0.8919 -0.2193 -0.1194
 5558SOL     OW17516   7.482   2.076   5.980 -0.3712 -0.2226  0.3533
 5558SOL    HW117517   7.571   2.109   5.992 -0.6541  0.6904 -0.0009
 5558SOL    HW217518   7.484   2.031   5.895 -0.8633  2.0191 -0.9033
 5559SOL     OW17519   3.128   7.088   7.366 -0.6322  0.2939  0.0922
 5559SOL    HW117520   3.089   7.100   7.452  0.6448  0.8196  0.6269
 5559SOL    HW217521   3.177   7.168   7.351  0.3823 -0.4060 -0.4545
 5560SOL     OW17522   2.108   3.796   2.871 -0.4842 -0.2713 -0.7488
 5560SOL    HW117523   2.083   3.785   2.963 -0.1201  0.5822 -0.5372
 5560SOL    HW217524   2.146   3.884   2.867  2.1443 -1.3332 -1.1171
 5561SOL     OW17525   1.868   1.099   7.587  0.1315  0.4287 -0.0445
 5561SOL    HW117526   1.836   1.130   7.502  1.5246 -1.1800 -1.2315
 5561SOL    HW217527   1.842   1.007   7.590  0.4825  0.3535  1.0847
 5562SOL     OW17528   5.952   3.313   5.456  0.5386  0.2152  0.3628
 5562SOL    HW117529   6.033   3.267   5.435  0.0662 -0.2407 -0.5401
 5562SOL    HW217530   5.889   3.243   5.476  0.2070  0.5342  0.4535
 5563SOL     OW17531   7.325   2.945   0.133 -0.6106  0.1058 -0.2413
 5563SOL    HW117532   7.376   2.867   0.109 -0.6563 -0.1767  0.5459
 5563SOL    HW217533   7.235   2.915   0.137 -0.4060 -0.3282  2.1052
 5564SOL     OW17534   5.543   7.285   5.465 -0.6131 -0.2796 -0.4829
 5564SOL    HW117535   5.590   7.256   5.387 -0.1558  3.1308 -1.6359
 5564SOL    HW217536   5.454   7.250   5.454 -0.5377  0.0644 -2.5413
 5565SOL     OW17537   0.080   2.565   0.395 -0.1502  0.3634  0.1187
 5565SOL    HW117538   0.171   2.592   0.395 -0.0509  0.0724 -0.8791
 5565SOL    HW217539   0.036   2.627   0.453  0.9833 -0.6201  2.1465
 5566SOL     OW17540   7.128   4.437   6.867 -0.0981 -0.3728  0.3804
 5566SOL    HW117541   7.216   4.401   6.854  0.4286  0.2830  1.8043
 5566SOL    HW217542   7.139   4.531   6.853 -0.6435 -0.3311  0.2409
 5567SOL     OW17543   5.988   0.565   5.711  0.9927  0.2473  0.0074
 5567SOL    HW117544   5.927   0.638   5.697 -0.4211 -0.7877  0.4756
 5567SOL    HW217545   6.026   0.549   5.625  0.7011  1.0033 -0.2767
 5568SOL     OW17546   4.140   7.371   6.064  0.2996 -0.3603 -0.0592
 5568SOL    HW117547   4.085   7.411   6.131 -0.7298 -2.5603  0.5097
 5568SOL    HW217548   4.190   7.305   6.111  0.4958 -1.0771 -1.2403
 5569SOL     OW17549   6.340   5.751   4.342 -0.0921 -0.5690 -0.0270
 5569SOL    HW117550   6.283   5.791   4.409  0.4743 -1.5059  1.0456
 5569SOL    HW217551   6.425   5.791   4.358  0.0776 -0.9040 -0.1067
 5570SOL     OW17552   2.918   3.737   3.140  0.6216 -0.4090 -0.0892
 5570SOL    HW117553   2.923   3.732   3.045 -0.5979 -0.6744 -0.1514
 5570SOL    HW217554   2.911   3.830   3.160 -2.9548 -0.4460 -0.5322
 5571SOL     OW17555   6.704   4.375   3.363 -0.3662  0.2504  0.2236
 5571SOL    HW117556   6.732   4.303   3.419 -0.7294 -0.0974 -0.0330
 5571SOL    HW217557   6.694   4.449   3.422 -0.1151  0.0530  0.5127
 5572SOL     OW17558   5.021   8.063   5.772  0.4951 -0.1040 -0.3622
 5572SOL    HW117559   5.074   8.059   5.692  2.9845  1.7223  1.0437
 5572SOL    HW217560   5.053   8.141   5.817 -3.1209  0.8395  0.9060
 5573SOL     OW17561   5.030   1.962   3.339 -0.9106 -0.4212 -1.1235
 5573SOL    HW117562   5.018   2.013   3.258 -1.9104 -0.0991 -0.7890
 5573SOL    HW217563   5.032   2.028   3.408 -0.6490 -0.7407 -0.8229
 5574SOL     OW17564   3.574   2.286   0.789 -0.0676 -0.0332  0.7166
 5574SOL    HW117565   3.628   2.208   0.805 -2.1196 -1.1797  2.4302
 5574SOL    HW217566   3.588   2.342   0.865  0.3393  0.6861  0.1319
 5575SOL     OW17567   1.777   5.080   4.168  0.6490  0.3481 -0.3734
 5575SOL    HW117568   1.720   5.060   4.243 -0.1848  0.4567 -0.9686
 5575SOL    HW217569   1.753   5.168   4.142 -1.1972 -0.6912 -2.5837
 5576SOL     OW17570   0.684   2.904   0.414 -0.0525 -0.5170 -0.0277
 5576SOL    HW117571   0.707   2.945   0.331 -0.8014  1.0453  0.4977
 5576SOL    HW217572   0.589   2.916   0.421  0.0258 -0.5004  1.1254
 5577SOL     OW17573   7.895   4.502   4.750 -0.9609  0.0929  0.3577
 5577SOL    HW117574   7.891   4.416   4.708  2.3404 -0.4586  0.8410
 5577SOL    HW217575   7.867   4.486   4.840  1.5648 -1.0575  1.0305
 5578SOL     OW17576   5.211   6.344   5.589 -0.4137  0.2493  0.0920
 5578SOL    HW117577   5.261   6.282   5.641 -1.2918 -2.2147 -1.7978
 5578SOL    HW217578   5.136   6.366   5.644  0.1904  0.0665  1.0093
 5579SOL     OW17579   2.586   0.898   4.728  0.0274 -0.3368  0.1708
 5579SOL    HW117580   2.586   0.975   4.672 -1.1341 -0.0127  0.5961
 5579SOL    HW217581   2.599   0.933   4.817  0.4302 -0.7181  0.2680
 5580SOL     OW17582   5.420   5.679   7.233 -0.1217 -0.6107  0.2855
 5580SOL    HW117583   5.403   5.707   7.143  0.3317  1.0683  0.6803
 5580SOL    HW217584   5.502   5.722   7.256 -0.1338 -1.1683  1.4457
 5581SOL     OW17585   3.028   5.619   1.494  0.9549 -0.2162  0.0873
 5581SOL    HW117586   3.105   5.634   1.548  1.1364 -1.5509  0.2292
 5581SOL    HW217587   2.980   5.550   1.539 -0.2217  0.4377 -0.1154
 5582SOL     OW17588   1.401   0.257   5.508 -0.4486 -0.0977 -0.3517
 5582SOL    HW117589   1.314   0.222   5.529 -0.2336 -0.2573  0.2987
 5582SOL    HW217590   1.386   0.348   5.483 -0.6531  0.3180  1.1941
 5583SOL     OW17591   1.681   7.697   4.502 -0.1063 -0.0922  0.5746
 5583SOL    HW117592   1.665   7.784   4.537  1.0620 -0.2848  1.6360
 5583SOL    HW217593   1.633   7.638   4.559 -0.2702 -0.2111  0.3177
 5584SOL     OW17594   6.972   2.114   1.444  0.1988  0.3457  0.1125
 5584SOL    HW117595   6.924   2.066   1.511 -0.0122  2.0555  1.2558
 5584SOL    HW217596   6.917   2.110   1.366 -0.9896  0.8212  0.9067
 5585SOL     OW17597   1.076   6.669   4.942 -0.7271 -0.3045  0.1115
 5585SOL    HW117598   0.993   6.703   4.909 -1.2163 -2.0731 -0.5824
 5585SOL    HW217599   1.092   6.590   4.890  2.1023  0.7238 -0.7857
 5586SOL     OW17600   4.006   2.866   4.687  0.0147  0.2033 -0.2238
 5586SOL    HW117601   4.036   2.954   4.666  0.2922  0.1865  0.0852
 5586SOL    HW217602   4.038   2.850   4.776 -1.0195  0.2249  0.1701
 5587SOL     OW17603   5.030   4.596   4.280  0.1874  0.3821  0.0002
 5587SOL    HW117604   5.116   4.617   4.244 -0.0439  1.5843  0.0881
 5587SOL    HW217605   5.021   4.502   4.268  1.8112  0.1089  0.6517
 5588SOL     OW17606   5.363   5.919   6.086 -0.3339 -0.0261 -0.0926
 5588SOL    HW117607   5.301   5.850   6.109  1.4638 -1.9881 -0.7665
 5588SOL    HW217608   5.318   6.000   6.108 -2.1441 -1.4264  1.7603
 5589SOL     OW17609   1.449   4.211   2.969 -0.1969 -0.3969 -0.2134
 5589SOL    HW117610   1.422   4.303   2.967  0.5781 -0.1577 -0.2281
 5589SOL    HW217611   1.529   4.209   2.917 -0.0974 -1.0410 -0.0413
 5590SOL     OW17612   0.472   7.024   0.118 -0.0863  0.2970 -0.8245
 5590SOL    HW117613   0.487   7.118   0.122 -0.6207  0.3589  2.0108
 5590SOL    HW217614   0.379   7.015   0.097  0.0334  0.3861 -1.3966
 5591SOL     OW17615   8.181   0.127   7.006 -0.2791  0.0467 -0.5014
 5591SOL    HW117616   8.219   0.184   6.940 -1.9424  1.7877 -0.0469
 5591SOL    HW217617   8.163   0.045   6.959 -0.0108  0.7044 -1.8035
 5592SOL     OW17618   7.667   2.001   4.542  0.2748  0.0292  0.4967
 5592SOL    HW117619   7.594   1.998   4.480  0.7437  1.1014 -0.1439
 5592SOL    HW217620   7.636   2.058   4.613  1.1214  2.0688 -0.6959
 5593SOL     OW17621   6.954   7.220   6.107  1.1039  0.0803 -0.3369
 5593SOL    HW117622   6.932   7.313   6.120  1.3609  0.0244  0.5432
 5593SOL    HW217623   6.890   7.189   6.044  0.8178  0.7824 -0.4033
 5594SOL     OW17624   6.623   7.551   7.791 -0.1055 -0.1574  0.3505
 5594SOL    HW117625   6.608   7.525   7.700  1.3403 -0.8269  0.2777
 5594SOL    HW217626   6.537   7.581   7.822 -0.9899 -1.4763 -0.7259
 5595SOL     OW17627   4.845   2.323   3.274 -0.6901  0.5439  0.0148
 5595SOL    HW117628   4.801   2.249   3.232  3.5235 -3.1647  1.2005
 5595SOL    HW217629   4.807   2.327   3.362 -1.3585  0.1885 -0.2525
 5596SOL     OW17630   5.235   0.766   0.339  0.1512 -1.1184  0.4140
 5596SOL    HW117631   5.140   0.772   0.342  0.1837 -0.9251  1.3327
 5596SOL    HW217632   5.263   0.776   0.430  1.1725  0.8649 -0.0554
 5597SOL     OW17633   0.731   2.390   0.802  0.1336 -0.5195 -0.1855
 5597SOL    HW117634   0.792   2.444   0.753  0.1585 -0.4037 -0.0270
 5597SOL    HW217635   0.720   2.435   0.886 -0.0446 -0.6233 -0.1514
 5598SOL     OW17636   2.133   2.691   6.256 -0.3655 -0.5990  0.4266
 5598SOL    HW117637   2.121   2.740   6.337 -0.3673 -0.5598  0.4023
 5598SOL    HW217638   2.215   2.643   6.269  0.6855  0.9113 -0.3126
 5599SOL     OW17639   5.615   3.661   6.804  0.3342 -0.2716 -0.1206
 5599SOL    HW117640   5.617   3.651   6.899  1.7821 -1.0194 -0.1962
 5599SOL    HW217641   5.552   3.731   6.788 -1.4485 -1.4778  1.2565
 5600SOL     OW17642   5.084   4.278   7.115 -0.2383  0.0416 -0.4693
 5600SOL    HW117643   5.113   4.197   7.157  2.7847  1.1500 -0.1598
 5600SOL    HW217644   5.047   4.249   7.031  4.1475 -1.6476 -2.1244
 5601SOL     OW17645   6.524   4.392   2.335  1.1483  0.4775 -0.4555
 5601SOL    HW117646   6.566   4.478   2.334  2.2514 -0.0406  0.1564
 5601SOL    HW217647   6.520   4.366   2.243 -1.3807  2.1833 -0.9418
 5602SOL     OW17648   5.705   6.520   7.828 -0.1644 -0.2926 -0.7353
 5602SOL    HW117649   5.618   6.562   7.826 -0.2542 -0.2784  1.4091
 5602SOL    HW217650   5.701   6.454   7.759 -1.1850  0.9733 -1.9644
 5603SOL     OW17651   0.428   2.381   6.875  0.4097 -0.1864  0.5709
 5603SOL    HW117652   0.336   2.392   6.851  0.3478 -0.0629  0.8581
 5603SOL    HW217653   0.474   2.373   6.792 -0.0888 -2.0528  0.4346
 5604SOL     OW17654   6.415   5.833   0.387  0.0873  0.1320  0.0405
 5604SOL    HW117655   6.421   5.745   0.423  0.9138  0.6447  1.2028
 5604SOL    HW217656   6.394   5.819   0.294 -0.3937 -1.2531  0.3327
 5605SOL     OW17657   5.114   6.141   3.357  0.0244 -0.1108 -0.3525
 5605SOL    HW117658   5.146   6.207   3.296  1.1017  0.0221  0.3260
 5605SOL    HW217659   5.167   6.153   3.436 -1.2440 -0.3589  0.5758
 5606SOL     OW17660   2.695   0.120   5.784  0.4869 -0.6896  0.0059
 5606SOL    HW117661   2.654   0.059   5.723  0.6715  0.1669 -1.0054
 5606SOL    HW217662   2.768   0.071   5.822  0.3452 -1.2494 -0.4374
 5607SOL     OW17663   7.646   6.486   2.854 -0.4109  0.2680 -0.4177
 5607SOL    HW117664   7.562   6.442   2.866  0.2584 -1.0802 -0.5200
 5607SOL    HW217665   7.698   6.425   2.802 -0.2088  2.1862 -2.6216
 5608SOL     OW17666   4.682   2.544   2.272 -0.1222  0.3655  0.2673
 5608SOL    HW117667   4.689   2.588   2.187 -0.4983 -0.0908 -0.0073
 5608SOL    HW217668   4.713   2.455   2.256 -1.1017 -0.0153  0.3618
 5609SOL     OW17669   5.864   0.381   8.184  0.0504  0.7492 -0.3656
 5609SOL    HW117670   5.937   0.354   8.240 -0.4510  0.2761  0.0758
 5609SOL    HW217671   5.787   0.378   8.242  0.0016  3.6131 -0.1524
 5610SOL     OW17672   7.434   6.000   7.126  0.0213 -0.0810 -0.1148
 5610SOL    HW117673   7.429   6.092   7.155  0.8776 -0.0542 -0.0401
 5610SOL    HW217674   7.354   5.960   7.162  1.0768 -0.0891  2.4607
 5611SOL     OW17675   3.544   7.378   5.637 -0.0685 -0.1636 -0.2704
 5611SOL    HW117676   3.632   7.406   5.662 -0.5084  0.0733  1.1199
 5611SOL    HW217677   3.534   7.292   5.678 -0.8844  0.3141  0.5671
 5612SOL     OW17678   2.894   3.242   6.903  0.0095  0.3639  0.1794
 5612SOL    HW117679   2.860   3.162   6.942  0.4669  0.1237  0.0821
 5612SOL    HW217680   2.828   3.266   6.837 -0.0182 -0.0535  0.0511
 5613SOL     OW17681   0.875   3.077   2.337  0.3568 -0.6809 -0.2593
 5613SOL    HW117682   0.920   3.156   2.308 -3.1340  2.1657  1.3008
 5613SOL    HW217683   0.932   3.041   2.406  2.1413  0.2575 -1.1669
 5614SOL     OW17684   5.013   6.148   5.233  0.3174 -0.3917  0.1923
 5614SOL    HW117685   5.045   6.238   5.243 -0.3849 -0.0737 -0.3211
 5614SOL    HW217686   5.032   6.126   5.142 -0.7282 -0.2656 -0.0683
 5615SOL     OW17687   0.491   0.951   2.620  0.1863 -0.4836  0.4056
 5615SOL    HW117688   0.411   1.002   2.632 -0.8814 -1.4892 -1.8704
 5615SOL    HW217689   0.558   1.001   2.666 -1.0552  2.2194 -0.4989
 5616SOL     OW17690   4.239   4.601   4.679  0.8931  0.2061  1.3798
 5616SOL    HW117691   4.330   4.609   4.708  1.0395  0.4954  0.8435
 5616SOL    HW217692   4.206   4.523   4.725  0.6196  1.5530  3.6536
 5617SOL     OW17693   6.217   2.350   8.178  0.5542  0.1092 -0.0746
 5617SOL    HW117694   6.296   2.398   8.155 -0.2842  0.6697 -1.9487
 5617SOL    HW217695   6.206   2.285   8.109  0.9186 -1.9615  1.6915
 5618SOL     OW17696   0.033   1.534   6.984 -0.1560  0.7570  0.3904
 5618SOL    HW117697  -0.037   1.521   7.048  0.2032  0.9453  0.8314
 5618SOL    HW217698   0.104   1.478   7.016  0.4390  1.7211  0.7987
 5619SOL     OW17699   7.552   4.904   5.519  0.0011  0.3671  0.0688
 5619SOL    HW117700   7.488   4.873   5.582  0.4166  0.7990  0.7120
 5619SOL    HW217701   7.616   4.834   5.512 -0.4053  0.0310 -0.4038
 5620SOL     OW17702   4.244   7.970   0.729  0.2106  0.5131 -0.1120
 5620SOL    HW117703   4.189   7.967   0.650  2.2817  0.2093 -1.6261
 5620SOL    HW217704   4.197   7.917   0.793 -1.5498  0.7805 -1.1281
 5621SOL     OW17705   5.728   2.019   1.218 -0.1295 -0.6012 -0.6560
 5621SOL    HW117706   5.766   2.039   1.304 -0.0929 -1.9478 -0.3444
 5621SOL    HW217707   5.788   1.954   1.180 -0.6772 -0.7391 -1.2970
 5622SOL     OW17708   0.567   0.725   1.001  0.0447 -0.5994 -0.9769
 5622SOL    HW117709   0.648   0.776   0.996  1.6065 -2.8094  0.2552
 5622SOL    HW217710   0.530   0.747   1.087  0.9693 -1.8427 -0.2414
 5623SOL     OW17711   3.230   3.348   5.731  0.7233  0.0588  0.7167
 5623SOL    HW117712   3.228   3.266   5.781  1.9155 -0.1185  0.5224
 5623SOL    HW217713   3.319   3.351   5.695  0.3692  0.9416 -0.1220
 5624SOL     OW17714   3.790   4.126   4.356 -0.3647  0.5429 -0.7231
 5624SOL    HW117715   3.709   4.082   4.382  0.3056  0.8898  2.3999
 5624SOL    HW217716   3.802   4.195   4.421  2.1614  0.8702 -1.4045
 5625SOL     OW17717   3.611   0.966   2.290  0.3394  0.4519 -0.0369
 5625SOL    HW117718   3.695   0.938   2.327 -0.0455  0.0797  0.5641
 5625SOL    HW217719   3.633   0.997   2.202  1.4844  2.5353  0.9099
 5626SOL     OW17720   7.345   5.620   2.298 -0.1960 -0.0420  0.0349
 5626SOL    HW117721   7.253   5.595   2.295 -0.6848  1.6819 -0.4069
 5626SOL    HW217722   7.383   5.583   2.218 -0.4042 -1.0343  0.3786
 5627SOL     OW17723   2.081   7.198   2.694  0.1753  0.4982  0.2233
 5627SOL    HW117724   2.003   7.150   2.669  1.2034 -0.9550 -0.3544
 5627SOL    HW217725   2.144   7.130   2.718  0.7964  1.6690  2.1270
 5628SOL     OW17726   3.717   7.903   3.280  0.1353 -0.4545 -0.5571
 5628SOL    HW117727   3.627   7.904   3.313  0.7821 -3.2026  1.6628
 5628SOL    HW217728   3.737   7.811   3.265  3.0201 -0.1139  0.4446
 5629SOL     OW17729   2.101   6.453   2.633 -0.2321  0.3485  0.2193
 5629SOL    HW117730   2.082   6.415   2.719  0.2685  0.6119  0.4472
 5629SOL    HW217731   2.015   6.474   2.597 -0.4165  1.0598  1.0309
 5630SOL     OW17732   2.812   2.559   0.347 -0.7481  0.2265  0.3674
 5630SOL    HW117733   2.907   2.558   0.356 -0.8200 -1.6215  1.3471
 5630SOL    HW217734   2.797   2.576   0.254  0.4899  1.2801  0.3305
 5631SOL     OW17735   3.256   2.290   2.368 -0.3013 -0.0669  0.1370
 5631SOL    HW117736   3.239   2.368   2.421  0.1431 -1.1225  1.9221
 5631SOL    HW217737   3.205   2.221   2.409 -1.1808 -0.6407 -1.7784
 5632SOL     OW17738   4.059   5.774   1.894 -0.1446 -0.3197  0.7317
 5632SOL    HW117739   3.976   5.762   1.940 -1.0079  0.3873 -0.5849
 5632SOL    HW217740   4.114   5.701   1.924 -0.8809 -0.2317  2.3684
 5633SOL     OW17741   3.927   2.107   1.067  0.0285  0.1333  0.2553
 5633SOL    HW117742   4.018   2.080   1.061  0.1071  0.6259 -1.2697
 5633SOL    HW217743   3.877   2.027   1.050  0.2303  0.3108 -1.3668
 5634SOL     OW17744   4.908   1.294   5.068 -0.0445 -0.2053 -0.2392
 5634SOL    HW117745   4.897   1.389   5.057  0.0016 -0.3321 -1.4818
 5634SOL    HW217746   4.956   1.266   4.990  0.7880 -1.1123  0.5755
 5635SOL     OW17747   5.538   6.366   1.863 -0.0899 -0.0679 -0.4773
 5635SOL    HW117748   5.597   6.434   1.896 -1.5252  1.0328 -0.0517
 5635SOL    HW217749   5.574   6.284   1.897  0.8802  0.6237  0.2178
 5636SOL     OW17750   5.782   0.811   5.939  0.6299 -0.0907 -0.3915
 5636SOL    HW117751   5.861   0.762   5.958  0.1465 -1.3718 -1.5215
 5636SOL    HW217752   5.813   0.890   5.895  1.2948 -0.5442 -0.7581
 5637SOL     OW17753   6.045   4.721   7.163 -0.4848  0.3103 -0.0280
 5637SOL    HW117754   5.956   4.684   7.166 -0.7246  0.7749 -0.8332
 5637SOL    HW217755   6.031   4.814   7.145  0.1716  0.3200 -0.5151
 5638SOL     OW17756   1.599   5.652   7.150  0.9179  0.3895  0.0499
 5638SOL    HW117757   1.637   5.736   7.124 -0.0570  1.1792  1.0845
 5638SOL    HW217758   1.509   5.672   7.173  0.9137 -0.7772  1.1804
 5639SOL     OW17759   0.549   7.778   4.753  0.4459 -0.3044 -0.1662
 5639SOL    HW117760   0.545   7.766   4.848 -0.3764  1.6491  0.0790
 5639SOL    HW217761   0.637   7.812   4.736  0.0098  1.0084  0.1289
 5640SOL     OW17762   6.061   1.923   6.924 -0.4692 -0.6783 -0.5101
 5640SOL    HW117763   6.038   1.969   6.843  0.3762 -3.4697 -2.5097
 5640SOL    HW217764   6.134   1.972   6.961 -1.2843  1.0074 -1.0544
 5641SOL     OW17765   3.307   3.301   5.113 -0.0610  0.0049  0.3119
 5641SOL    HW117766   3.321   3.236   5.045 -0.9496 -0.1173  0.2307
 5641SOL    HW217767   3.231   3.351   5.083 -1.7601 -1.3244  2.1188
 5642SOL     OW17768   7.169   1.149   1.391  0.6104 -0.0549  0.0523
 5642SOL    HW117769   7.105   1.214   1.420 -1.1170 -2.1548  1.2899
 5642SOL    HW217770   7.222   1.131   1.468  2.1801  0.9798 -0.7189
 5643SOL     OW17771   5.344   7.985   0.555  0.5455 -0.2093  0.1679
 5643SOL    HW117772   5.265   7.937   0.579  0.6619 -1.5048 -1.8761
 5643SOL    HW217773   5.396   7.987   0.636 -0.3951 -1.6482  0.8492
 5644SOL     OW17774   2.344   4.959   2.199  0.2151  0.4529  0.2335
 5644SOL    HW117775   2.286   5.033   2.184  0.3516  0.2837 -1.2829
 5644SOL    HW217776   2.290   4.895   2.244 -0.6101  0.5385 -0.6170
 5645SOL     OW17777   3.841   6.157   6.488  0.1082  0.2839  0.4353
 5645SOL    HW117778   3.866   6.217   6.418 -0.9791  0.6714  0.3630
 5645SOL    HW217779   3.776   6.099   6.448 -0.4383  0.4327  1.0776
 5646SOL     OW17780   0.104   3.601   7.453 -0.3175 -0.2276  0.2771
 5646SOL    HW117781   0.071   3.526   7.405 -2.2529 -1.0314  2.6707
 5646SOL    HW217782   0.132   3.663   7.385 -0.3315 -2.3512 -1.7662
 5647SOL     OW17783   2.039   4.551   2.807 -0.3523 -0.0150  0.5566
 5647SOL    HW117784   2.037   4.643   2.779  2.0110  0.0229  0.3628
 5647SOL    HW217785   1.986   4.549   2.887  1.1672  1.9376  1.6874
 5648SOL     OW17786   2.736   6.874   6.067 -0.1185  0.0765  0.1276
 5648SOL    HW117787   2.737   6.780   6.051 -0.1757 -0.0159  0.6311
 5648SOL    HW217788   2.682   6.884   6.145  2.0844  0.2190  1.7546
 5649SOL     OW17789   4.885   1.862   8.034  0.1642 -0.0727  0.0914
 5649SOL    HW117790   4.866   1.951   8.006 -1.9154 -0.9731 -1.6257
 5649SOL    HW217791   4.980   1.860   8.048  0.4124  2.0601 -1.0475
 5650SOL     OW17792   5.684   3.132   6.663  0.4972 -0.0673 -0.5282
 5650SOL    HW117793   5.599   3.104   6.697 -0.6006  1.7288 -1.6447
 5650SOL    HW217794   5.732   3.163   6.740 -0.0180 -0.6848  0.0509
 5651SOL     OW17795   1.584   5.444   0.130  0.2812 -0.2482 -0.2583
 5651SOL    HW117796   1.653   5.378   0.120  0.3942 -0.1746  0.0316
 5651SOL    HW217797   1.514   5.399   0.176 -0.6194 -0.8587 -2.1115
 5652SOL     OW17798   2.514   0.474   7.303  0.6014 -0.3963  0.1513
 5652SOL    HW117799   2.578   0.531   7.260  0.3583  1.1941  1.7355
 5652SOL    HW217800   2.431   0.496   7.261  0.6005  0.0123  0.3588
 5653SOL     OW17801   4.964   4.639   3.402  0.5243  0.1388 -0.2087
 5653SOL    HW117802   5.026   4.594   3.461 -1.3716  0.1465  1.9385
 5653SOL    HW217803   4.895   4.671   3.460 -2.4598 -1.4157 -2.5974
 5654SOL     OW17804   0.308   0.020   1.755  0.0710  0.8057 -0.1645
 5654SOL    HW117805   0.341  -0.051   1.701 -0.6755  1.3948 -1.4440
 5654SOL    HW217806   0.292   0.092   1.693 -2.4671  0.9307  0.5261
 5655SOL     OW17807   0.540   7.578   1.934  0.0750 -0.8210 -0.1517
 5655SOL    HW117808   0.501   7.504   1.888  0.9787 -0.0238 -2.3042
 5655SOL    HW217809   0.506   7.655   1.889 -0.2470  0.0940  1.5559
 5656SOL     OW17810   4.759   6.662   2.132 -0.1336  0.6088 -1.0580
 5656SOL    HW117811   4.804   6.698   2.055 -1.0009  0.6118 -1.5792
 5656SOL    HW217812   4.722   6.738   2.176  1.9759  0.8415  0.4860
 5657SOL     OW17813   1.686   6.228   6.898 -0.3510 -0.0533  0.2482
 5657SOL    HW117814   1.612   6.208   6.956 -1.2897  1.0207 -0.5208
 5657SOL    HW217815   1.677   6.165   6.826  0.1290 -0.6297  0.6887
 5658SOL     OW17816   7.659   1.355   5.029  0.6751  0.1288  0.1235
 5658SOL    HW117817   7.592   1.422   5.044  0.7352 -0.2489  2.4603
 5658SOL    HW217818   7.610   1.272   5.033  0.8375 -0.0492 -1.2389
 5659SOL     OW17819   6.009   1.573   3.158  0.1728 -0.1337 -0.1550
 5659SOL    HW117820   5.929   1.577   3.210  1.1205  0.9285  1.2891
 5659SOL    HW217821   6.072   1.529   3.214  1.0036  0.2940 -0.7310
 5660SOL     OW17822   7.002   2.018   4.437 -0.1673 -0.1760 -0.0032
 5660SOL    HW117823   7.075   2.036   4.497 -0.5153  2.4776 -0.2709
 5660SOL    HW217824   7.043   2.005   4.352  0.0547  0.5816 -0.0171
 5661SOL     OW17825   3.714   2.058   2.243 -0.1528 -0.0013 -0.2680
 5661SOL    HW117826   3.762   2.019   2.170 -0.2028  0.1636 -0.3891
 5661SOL    HW217827   3.640   2.104   2.202  0.0498  0.4375 -0.1494
 5662SOL     OW17828   1.819   2.884   0.482  0.1748 -0.0527 -0.3450
 5662SOL    HW117829   1.789   2.837   0.405 -1.2838 -0.9952  0.7610
 5662SOL    HW217830   1.746   2.942   0.505  1.1858  1.3696 -0.5279
 5663SOL     OW17831   6.955   3.244   7.884  0.3428  0.2678 -0.4945
 5663SOL    HW117832   7.022   3.208   7.942 -0.1109  0.9909  0.5150
 5663SOL    HW217833   6.976   3.337   7.879  0.4162  0.2064 -1.5739
 5664SOL     OW17834   7.161   2.812   8.070 -0.2170  0.4799  0.1415
 5664SOL    HW117835   7.110   2.753   8.014 -0.2681 -0.5895  1.2918
 5664SOL    HW217836   7.209   2.755   8.129 -0.9325  1.5792  1.8909
 5665SOL     OW17837   4.737   4.158   1.509  0.5614 -0.1484 -0.0020
 5665SOL    HW117838   4.819   4.193   1.544 -0.1339 -0.7289  2.4318
 5665SOL    HW217839   4.669   4.210   1.552 -0.3752  0.5562 -2.2405
 5666SOL     OW17840   2.249   3.265   6.057  0.5109 -0.3488  0.0258
 5666SOL    HW117841   2.316   3.199   6.039  0.6960 -0.0232 -0.5231
 5666SOL    HW217842   2.235   3.308   5.973 -0.0878 -0.1313  0.2327
 5667SOL     OW17843   0.947   1.022   5.783 -0.5905  0.1088  0.2915
 5667SOL    HW117844   1.006   1.063   5.846 -1.9656  0.7831  1.1924
 5667SOL    HW217845   0.861   1.022   5.826 -1.1062 -1.5963 -0.6432
 5668SOL     OW17846   2.621   1.424   1.047 -0.4033  0.6697 -0.2395
 5668SOL    HW117847   2.701   1.430   1.100 -0.8705  2.8402  0.3467
 5668SOL    HW217848   2.626   1.338   1.005  1.4655  0.1124  0.9858
 5669SOL     OW17849   6.646   3.276   7.903  0.2692 -0.7502  0.8116
 5669SOL    HW117850   6.730   3.260   7.946  0.2454 -0.9156  0.7949
 5669SOL    HW217851   6.660   3.356   7.853  0.5942 -1.1116  0.3242
 5670SOL     OW17852   4.984   0.400   2.951 -0.2416  0.2688 -0.0568
 5670SOL    HW117853   5.030   0.438   3.026 -0.5035 -2.1305  1.4614
 5670SOL    HW217854   5.053   0.358   2.900 -0.3205 -0.2183  0.2284
 5671SOL     OW17855   2.661   2.890   4.987 -0.2070  0.7440 -0.0292
 5671SOL    HW117856   2.711   2.877   4.907  0.9906  0.8040  0.6848
 5671SOL    HW217857   2.726   2.885   5.057 -1.4642 -0.9096  1.0745
 5672SOL     OW17858   1.701   4.440   4.642  0.0875 -0.4080 -0.1064
 5672SOL    HW117859   1.745   4.518   4.676 -1.9539  0.5797  0.4046
 5672SOL    HW217860   1.644   4.411   4.713 -2.3735  0.2054 -1.6983
 5673SOL     OW17861   7.526   2.376   7.582 -0.2301 -0.3525 -0.0388
 5673SOL    HW117862   7.509   2.392   7.489  1.9120  0.1010 -0.4099
 5673SOL    HW217863   7.611   2.417   7.598 -1.5462  1.6249  2.7180
 5674SOL     OW17864   1.876   5.090   4.831 -0.0012 -0.5945  0.4571
 5674SOL    HW117865   1.847   5.007   4.794  1.6147 -0.4801 -1.1778
 5674SOL    HW217866   1.804   5.151   4.813 -0.2752 -1.1242 -0.2847
 5675SOL     OW17867   3.466   1.739   2.255  0.2562 -0.2272  0.2233
 5675SOL    HW117868   3.543   1.748   2.312  0.4944  1.2429 -0.2751
 5675SOL    HW217869   3.439   1.648   2.264  2.4795 -0.9714 -0.1249
 5676SOL     OW17870   0.884   0.855   0.662 -0.5728  0.0814 -0.0906
 5676SOL    HW117871   0.909   0.947   0.662 -0.7774  0.1551 -1.0591
 5676SOL    HW217872   0.793   0.854   0.691 -0.5732  0.1830 -0.0891
 5677SOL     OW17873   7.133   4.074   7.793  0.1272  0.5483 -0.7473
 5677SOL    HW117874   7.125   3.990   7.838  0.6211 -0.4974 -2.4833
 5677SOL    HW217875   7.219   4.107   7.818 -0.3118  0.8485  0.4115
 5678SOL     OW17876   0.116   2.764   1.238 -0.3647  0.2747 -0.4071
 5678SOL    HW117877   0.186   2.773   1.172  1.7714 -0.3235  1.6356
 5678SOL    HW217878   0.111   2.849   1.280  1.7342 -0.5609  1.7794
 5679SOL     OW17879   3.264   6.264   4.754 -0.2649  0.0645 -0.1699
 5679SOL    HW117880   3.302   6.278   4.840 -1.0906 -0.3453  0.2659
 5679SOL    HW217881   3.185   6.317   4.753 -1.2294 -1.3246 -0.0039
 5680SOL     OW17882   3.283   7.091   8.069 -0.2376  0.1597  0.1007
 5680SOL    HW117883   3.284   7.016   8.128  1.0885  1.8657  2.4340
 5680SOL    HW217884   3.373   7.098   8.036 -0.8618 -0.5097 -1.8712
 5681SOL     OW17885   5.889   0.971   7.849  0.1119  0.0672  0.1431
 5681SOL    HW117886   5.934   0.888   7.833 -0.2093 -0.0992  0.0976
 5681SOL    HW217887   5.801   0.958   7.814  0.0245  0.3889  0.2383
 5682SOL     OW17888   2.615   0.958   4.079  0.9050 -0.0980 -0.0846
 5682SOL    HW117889   2.693   0.907   4.058  0.2978 -0.6341 -1.1122
 5682SOL    HW217890   2.561   0.900   4.133 -0.3788 -1.1179 -2.3165
 5683SOL     OW17891   7.548   0.522   2.558  0.4719 -0.7241 -0.6947
 5683SOL    HW117892   7.610   0.587   2.591  0.7739 -1.1420 -0.4381
 5683SOL    HW217893   7.587   0.490   2.476  0.2688 -0.5045 -0.8789
 5684SOL     OW17894   8.079   7.002   3.811 -0.4926 -0.0129 -0.3722
 5684SOL    HW117895   7.984   7.006   3.808 -0.4440  1.6026 -1.6768
 5684SOL    HW217896   8.104   6.952   3.734 -0.2859 -1.0116  0.3304
 5685SOL     OW17897   4.201   7.319   4.081  0.8476 -0.6219 -0.1486
 5685SOL    HW117898   4.213   7.320   3.986  0.7625 -3.4717 -0.2695
 5685SOL    HW217899   4.252   7.394   4.112  1.8668 -0.3361 -2.3392
 5686SOL     OW17900   7.299   2.323   5.769 -0.5571  0.3568 -0.3339
 5686SOL    HW117901   7.363   2.373   5.719 -0.6601  1.4024  0.5284
 5686SOL    HW217902   7.321   2.341   5.861  0.1071 -2.1157  0.0532
 5687SOL     OW17903   1.637   1.668   6.680 -0.5609 -0.3596  0.6987
 5687SOL    HW117904   1.559   1.722   6.666 -1.3227 -1.4965  0.4621
 5687SOL    HW217905   1.643   1.613   6.602 -0.4596 -1.4130  1.4312
 5688SOL     OW17906   1.183   2.377   5.251 -0.2178  0.3650 -0.4577
 5688SOL    HW117907   1.276   2.402   5.246 -0.2583  0.5087 -0.4959
 5688SOL    HW217908   1.154   2.379   5.160 -0.6603  1.8403 -0.3052
 5689SOL     OW17909   4.247   6.633   7.342  0.1412  0.2050  0.4068
 5689SOL    HW117910   4.317   6.626   7.277 -0.1395  0.1856  0.1081
 5689SOL    HW217911   4.243   6.547   7.383 -0.0153  0.0716  0.1091
 5690SOL     OW17912   5.217   2.397   3.469  0.5965 -0.2606  0.0168
 5690SOL    HW117913   5.216   2.317   3.521  1.0793 -0.8032 -0.7906
 5690SOL    HW217914   5.262   2.461   3.526 -0.5730 -0.2919  1.0106
 5691SOL     OW17915   0.595   5.634   5.929  0.0739  0.2094 -0.2760
 5691SOL    HW117916   0.591   5.540   5.946  0.3685  0.2659  0.1267
 5691SOL    HW217917   0.688   5.653   5.919  0.1062  0.6375  0.7272
 5692SOL     OW17918   5.444   7.679   5.735  0.3712  0.2759 -0.7138
 5692SOL    HW117919   5.452   7.770   5.764  0.0180  0.4966 -1.2815
 5692SOL    HW217920   5.458   7.682   5.641 -2.4736  0.2007 -1.2354
 5693SOL     OW17921   7.950   3.866   0.309  0.0901  0.4036  0.0039
 5693SOL    HW117922   7.949   3.798   0.242 -0.3974 -2.6021  2.7929
 5693SOL    HW217923   8.034   3.856   0.353 -0.8221  0.0725  1.7903
 5694SOL     OW17924   1.476   1.710   4.236  0.4793  0.4973  0.5938
 5694SOL    HW117925   1.457   1.800   4.259 -1.6096  0.6780 -1.4892
 5694SOL    HW217926   1.437   1.658   4.306 -2.1894  1.1374 -0.3124
 5695SOL     OW17927   7.896   5.221   4.051  0.0099  0.0550 -0.0082
 5695SOL    HW117928   7.985   5.250   4.029  0.5634 -0.5154  1.3423
 5695SOL    HW217929   7.908   5.132   4.084 -1.3864 -0.9381 -2.0483
 5696SOL     OW17930   7.195   2.604   1.475  0.3537 -0.2584 -0.5085
 5696SOL    HW117931   7.168   2.517   1.447 -0.0614 -0.4837  0.5493
 5696SOL    HW217932   7.135   2.664   1.431  0.7607 -0.4817 -1.3888
 5697SOL     OW17933   2.182   7.803   4.581 -0.2508 -0.4469 -0.7748
 5697SOL    HW117934   2.107   7.760   4.541 -1.1327 -1.0813  1.4146
 5697SOL    HW217935   2.218   7.737   4.642  0.4654  0.7446  0.1379
 5698SOL     OW17936   2.843   0.691   5.934  0.5864  0.3836  0.4145
 5698SOL    HW117937   2.860   0.708   5.841 -1.1166  0.8834  0.1641
 5698SOL    HW217938   2.811   0.775   5.968 -3.1611 -0.8273  0.3360
 5699SOL     OW17939   1.755   3.110   6.779 -0.2802 -0.2045  0.2561
 5699SOL    HW117940   1.831   3.120   6.722 -0.9953  0.8245 -0.5551
 5699SOL    HW217941   1.684   3.152   6.731 -1.5541 -1.8491  0.6282
 5700SOL     OW17942   1.534   1.340   7.497 -0.1152  0.1750 -0.2537
 5700SOL    HW117943   1.581   1.303   7.572  0.2573 -0.8876 -0.9926
 5700SOL    HW217944   1.596   1.402   7.458 -0.1940  0.4986  0.1330
 5701SOL     OW17945   7.186   3.183   6.639  0.2927  0.2258 -0.1755
 5701SOL    HW117946   7.103   3.201   6.597 -0.5034  3.7671  2.4230
 5701SOL    HW217947   7.179   3.092   6.669 -2.4425  0.2628 -0.4659
 5702SOL     OW17948   1.658   1.876   1.379  0.6731 -0.2234  0.0778
 5702SOL    HW117949   1.631   1.950   1.433  2.5705 -1.5652  3.2060
 5702SOL    HW217950   1.715   1.914   1.313  0.6024  1.2581  0.8206
 5703SOL     OW17951   1.138   1.875   4.578  0.4089  0.3138 -0.1202
 5703SOL    HW117952   1.200   1.874   4.505  0.7746 -2.5208  0.1212
 5703SOL    HW217953   1.171   1.810   4.639 -2.1563 -0.4805  0.5697
 5704SOL     OW17954   3.195   6.556   6.037 -0.2650  0.0968 -0.4028
 5704SOL    HW117955   3.235   6.506   6.108 -2.4958 -1.0936  0.1402
 5704SOL    HW217956   3.235   6.643   6.043 -0.2230 -0.0152  2.2102
 5705SOL     OW17957   7.144   0.242   2.651  0.3595  0.0293 -0.2674
 5705SOL    HW117958   7.160   0.158   2.694  0.8884  0.1736 -0.1750
 5705SOL    HW217959   7.136   0.304   2.724  1.7513  0.3619 -0.3748
 5706SOL     OW17960   6.851   2.529   7.671  0.2080 -0.3641  0.1499
 5706SOL    HW117961   6.775   2.561   7.624  0.9641  1.5594  0.1682
 5706SOL    HW217962   6.854   2.435   7.651 -2.6407 -0.6876  0.8789
 5707SOL     OW17963   6.447   7.010   3.976 -0.5596  0.3480  0.2790
 5707SOL    HW117964   6.472   7.085   3.922 -1.3494  0.1638 -0.3801
 5707SOL    HW217965   6.472   6.933   3.923  1.0210  0.1125  1.3141
 5708SOL     OW17966   3.760   3.694   2.239 -0.5109  0.0154  0.3853
 5708SOL    HW117967   3.831   3.713   2.178 -1.3436  1.2064 -0.2610
 5708SOL    HW217968   3.762   3.768   2.301  0.3120 -1.1597  1.8209
 5709SOL     OW17969   4.351   6.323   0.857  0.1100  0.2632  0.5388
 5709SOL    HW117970   4.416   6.313   0.926 -0.2795 -0.1165  0.8545
 5709SOL    HW217971   4.386   6.271   0.784  0.6877  0.9398  0.3173
 5710SOL     OW17972   7.843   5.232   3.483 -0.1986 -0.5013 -0.2091
 5710SOL    HW117973   7.867   5.215   3.391 -2.0414  1.2090 -1.0765
 5710SOL    HW217974   7.747   5.234   3.483 -0.2626 -0.9602  1.8980
 5711SOL     OW17975   0.376   2.358   7.126  0.0455 -0.4308  0.0922
 5711SOL    HW117976   0.404   2.274   7.163  0.8861 -0.0847  0.2453
 5711SOL    HW217977   0.414   2.359   7.038 -1.2593 -0.8858 -0.5009
 5712SOL     OW17978   0.383   0.246   4.798  0.0176 -0.3022 -0.0521
 5712SOL    HW117979   0.454   0.242   4.734 -1.0544 -1.1223 -1.2490
 5712SOL    HW217980   0.381   0.158   4.836 -0.5873 -0.4097 -0.3164
 5713SOL     OW17981   5.166   3.538   4.735  0.6744  0.0038 -0.0462
 5713SOL    HW117982   5.129   3.589   4.663  1.2448 -2.6164 -2.3582
 5713SOL    HW217983   5.114   3.563   4.811  0.0502  2.9105 -1.2796
 5714SOL     OW17984   6.114   4.995   2.982  0.0291 -0.2035 -0.4359
 5714SOL    HW117985   6.193   5.028   2.938 -0.7978 -0.5287 -2.2666
 5714SOL    HW217986   6.086   4.921   2.928 -1.6757  0.0710  0.0171
 5715SOL     OW17987   5.850   7.620   1.636  0.3962 -0.0369  0.2552
 5715SOL    HW117988   5.885   7.550   1.690  1.9210  0.2094 -0.3510
 5715SOL    HW217989   5.761   7.593   1.615  1.0761 -2.0010 -0.2947
 5716SOL     OW17990   1.891   0.139   3.377  0.5862  0.2951  0.0853
 5716SOL    HW117991   1.924   0.201   3.312 -0.3062  0.5725 -0.1226
 5716SOL    HW217992   1.797   0.135   3.360  0.5349 -0.6181  0.5245
 5717SOL     OW17993   1.611   0.855   3.157 -0.2775 -0.6837 -0.4103
 5717SOL    HW117994   1.588   0.768   3.191  2.7461 -0.5905  2.4869
 5717SOL    HW217995   1.555   0.916   3.205  0.9243 -0.8373  1.2715
 5718SOL     OW17996   6.170   5.962   0.146 -0.4125  0.5740  0.2913
 5718SOL    HW117997   6.211   5.898   0.088 -0.5362 -0.4037  1.2513
 5718SOL    HW217998   6.225   6.040   0.138  0.5055 -0.0795  0.0742
 5719SOL     OW17999   3.955   7.360   3.442  0.4042 -0.0607 -0.2977
 5719SOL    HW118000   3.905   7.405   3.510  1.6118  1.0375 -0.1025
 5719SOL    HW218001   4.014   7.426   3.407  0.4857 -0.8588 -1.7677
 5720SOL     OW18002   0.158   1.429   8.173 -0.3901 -0.1010 -0.4721
 5720SOL    HW118003   0.241   1.454   8.214 -0.4454 -0.4158 -0.1650
 5720SOL    HW218004   0.184   1.372   8.100 -0.2889  0.5005 -0.9189
 5721SOL     OW18005   1.755   0.101   2.544 -0.2409  0.5643  0.1509
 5721SOL    HW118006   1.722   0.061   2.624 -1.1345  0.5923 -0.1954
 5721SOL    HW218007   1.790   0.027   2.493 -3.0464 -0.0455 -1.0555
 5722SOL     OW18008   0.393   7.062   6.573 -0.1655 -0.3583 -0.1921
 5722SOL    HW118009   0.471   7.018   6.607 -0.3072  0.7836  1.7163
 5722SOL    HW218010   0.320   7.005   6.598 -0.2845  0.5364  1.7092
 5723SOL     OW18011   2.462   3.191   1.396  0.7237 -0.8030  0.1065
 5723SOL    HW118012   2.531   3.233   1.345  0.5776 -0.3644  0.2610
 5723SOL    HW218013   2.455   3.103   1.360 -0.1063 -0.1754 -1.3480
 5724SOL     OW18014   1.886   8.125   5.696  0.0950  0.4820 -0.6396
 5724SOL    HW118015   1.894   8.184   5.620 -0.0463 -0.4753 -1.4185
 5724SOL    HW218016   1.792   8.113   5.708 -0.0777  3.1481  1.7380
 5725SOL     OW18017   4.227   6.286   7.577  0.0295 -0.0220  0.1527
 5725SOL    HW118018   4.133   6.270   7.568 -0.3873  1.1612  1.9216
 5725SOL    HW218019   4.234   6.381   7.584  1.2154 -0.1741  1.3239
 5726SOL     OW18020   4.386   0.017   0.696 -0.1529 -0.0410  0.3968
 5726SOL    HW118021   4.335  -0.063   0.709  0.9094 -0.8224 -0.1057
 5726SOL    HW218022   4.333   0.070   0.637 -1.2711  0.0342  1.4203
 5727SOL     OW18023   3.464   1.651   1.882  0.6651  0.0645  0.1158
 5727SOL    HW118024   3.542   1.704   1.899  0.5776 -0.5074  2.9254
 5727SOL    HW218025   3.396   1.693   1.935 -0.9062  0.3376 -1.9898
 5728SOL     OW18026   5.550   8.043   3.428  0.2276  0.0277 -0.0875
 5728SOL    HW118027   5.568   8.023   3.520  0.3910  2.2218  0.4164
 5728SOL    HW218028   5.460   8.075   3.428  0.6410  1.2475 -0.4553
 5729SOL     OW18029   0.377   1.645   6.881  0.0184  0.5030 -0.1053
 5729SOL    HW118030   0.382   1.734   6.917 -1.8748  0.0852  1.3170
 5729SOL    HW218031   0.324   1.655   6.802  1.5990  0.9254 -1.1665
 5730SOL     OW18032   4.626   4.763   4.062 -0.1520 -0.6066 -0.1487
 5730SOL    HW118033   4.661   4.769   4.151  0.9753 -2.5941 -0.4048
 5730SOL    HW218034   4.582   4.678   4.060 -0.5334 -0.3926 -1.3636
 5731SOL     OW18035   3.113   4.611   1.024  0.1855  0.0058  0.7189
 5731SOL    HW118036   3.094   4.675   0.955 -0.6140 -0.8518  0.1090
 5731SOL    HW218037   3.068   4.644   1.101 -2.7324 -1.1980 -0.3076
 5732SOL     OW18038   3.659   5.353   6.188 -0.3154  0.5119 -0.0084
 5732SOL    HW118039   3.564   5.356   6.180 -0.3487  0.1809  0.2512
 5732SOL    HW218040   3.679   5.411   6.262 -0.1314  2.3222 -1.4027
 5733SOL     OW18041   3.756   4.447   6.731  0.0131 -0.5222 -0.5676
 5733SOL    HW118042   3.693   4.511   6.765 -1.1597 -0.1377 -3.1926
 5733SOL    HW218043   3.719   4.362   6.755  0.1319 -0.2727  0.5545
 5734SOL     OW18044   2.119   5.887   0.682 -0.3789 -0.2827 -0.0332
 5734SOL    HW118045   2.094   5.909   0.772 -0.2570  2.2530 -0.5360
 5734SOL    HW218046   2.193   5.945   0.663 -0.8997 -0.1736 -1.9984
 5735SOL     OW18047   4.120   5.367   7.158  0.1171  0.1036  0.1587
 5735SOL    HW118048   4.030   5.343   7.181  0.0976  0.7775  0.8045
 5735SOL    HW218049   4.142   5.438   7.218  0.8783  0.3364 -0.3861
 5736SOL     OW18050   6.594   2.271   6.808  0.3882 -0.4795 -0.2060
 5736SOL    HW118051   6.522   2.325   6.776  1.4541  0.8230 -0.4994
 5736SOL    HW218052   6.601   2.199   6.745 -1.1968 -1.1418  0.3141
 5737SOL     OW18053   1.895   1.808   5.102  0.5128  0.1783  0.3692
 5737SOL    HW118054   1.906   1.846   5.014 -0.4084  1.1395  0.6428
 5737SOL    HW218055   1.819   1.751   5.093  1.1783 -0.6947  0.2471
 5738SOL     OW18056   1.677   2.423   7.295  0.6699  0.3589 -0.3960
 5738SOL    HW118057   1.587   2.415   7.264  1.3055  0.6615 -2.4530
 5738SOL    HW218058   1.699   2.336   7.329  0.1927 -0.2589 -1.6283
 5739SOL     OW18059   4.166   4.184   3.106  0.3257 -0.3498  0.4812
 5739SOL    HW118060   4.176   4.191   3.201 -0.3277 -0.7544  0.5859
 5739SOL    HW218061   4.089   4.237   3.087 -0.4983 -1.5408  0.3916
 5740SOL     OW18062   8.141   5.352   4.072  0.1867 -0.4427  0.7085
 5740SOL    HW118063   8.225   5.327   4.036  0.6286  0.7491  0.8636
 5740SOL    HW218064   8.153   5.443   4.100 -0.9229 -0.4964  1.4218
 5741SOL     OW18065   7.295   1.564   2.560 -0.6790  0.3906  0.8806
 5741SOL    HW118066   7.257   1.607   2.637  1.4163  0.1644  2.1155
 5741SOL    HW218067   7.222   1.517   2.520 -1.6093 -0.6366  3.5437
 5742SOL     OW18068   7.683   2.245   3.656 -0.1174 -0.4795 -0.3732
 5742SOL    HW118069   7.664   2.252   3.750 -0.0682 -1.8517 -0.2315
 5742SOL    HW218070   7.597   2.244   3.614 -0.4542 -4.2787  0.0709
 5743SOL     OW18071   6.260   3.149   0.079 -0.0293  0.1094 -0.4512
 5743SOL    HW118072   6.200   3.138   0.005  1.6719 -0.3651 -1.8020
 5743SOL    HW218073   6.244   3.072   0.134 -1.4767  0.5855 -0.1447
 5744SOL     OW18074   0.016   1.379   6.101  0.0124 -0.2906 -0.3831
 5744SOL    HW118075   0.018   1.424   6.186 -0.4390 -0.7046 -0.1462
 5744SOL    HW218076  -0.041   1.433   6.046  0.9814  0.4357 -0.6969
 5745SOL     OW18077   3.052   7.791   2.096 -0.4171  0.1137 -0.1178
 5745SOL    HW118078   3.146   7.772   2.100 -0.4644 -0.0767  0.1178
 5745SOL    HW218079   3.031   7.825   2.183 -0.3885  1.0055 -0.4460
 5746SOL     OW18080   0.877   7.108   7.912 -0.1792  0.1226 -0.0835
 5746SOL    HW118081   0.919   7.084   7.995 -0.6620  0.2869  0.2188
 5746SOL    HW218082   0.809   7.171   7.938  0.7626  1.4770 -0.7953
 5747SOL     OW18083   5.164   7.522   2.359 -0.5014 -0.3202  0.6443
 5747SOL    HW118084   5.080   7.516   2.314  0.4591  0.1315 -1.3334
 5747SOL    HW218085   5.227   7.545   2.290  1.5831 -2.4638  1.6605
 5748SOL     OW18086   4.674   1.236   6.567  0.0592 -0.2542  0.0313
 5748SOL    HW118087   4.655   1.329   6.577  0.5016 -0.2710  1.1656
 5748SOL    HW218088   4.611   1.193   6.626  0.4500 -0.6065  0.1927
 5749SOL     OW18089   4.315   1.116   2.902 -0.4786 -0.0706  0.2124
 5749SOL    HW118090   4.363   1.055   2.846  0.9333  1.3558 -0.2135
 5749SOL    HW218091   4.304   1.069   2.984 -0.2961 -1.2551 -0.4210
 5750SOL     OW18092   6.786   7.886   6.888  0.0694 -0.1155  0.0901
 5750SOL    HW118093   6.728   7.953   6.923  1.0206  1.2465 -0.8133
 5750SOL    HW218094   6.731   7.834   6.830 -0.6735 -0.0947  0.7591
 5751SOL     OW18095   0.120   5.198   2.800 -0.4473 -0.0229 -0.1463
 5751SOL    HW118096   0.197   5.160   2.843 -0.4292 -0.9222 -0.9386
 5751SOL    HW218097   0.154   5.277   2.756  0.4648 -1.3765 -2.0221
 5752SOL     OW18098   0.284   1.732   2.822 -0.0072 -0.2417  0.5700
 5752SOL    HW118099   0.319   1.704   2.907 -0.6111  0.7514  1.1586
 5752SOL    HW218100   0.190   1.718   2.829 -0.0018 -0.6647 -0.1416
 5753SOL     OW18101   5.315   7.501   2.975  0.3415  0.4426 -0.4542
 5753SOL    HW118102   5.327   7.536   2.886 -0.4518 -0.2271 -0.8331
 5753SOL    HW218103   5.224   7.521   2.996  0.7310  1.2802  0.5250
 5754SOL     OW18104   3.992   0.026   6.024 -0.1323 -0.3285 -0.1072
 5754SOL    HW118105   4.021  -0.065   6.014  0.8943  0.1017 -1.2281
 5754SOL    HW218106   3.966   0.053   5.936  0.9360  0.8924 -0.0831
 5755SOL     OW18107   1.067   7.825   4.807  0.1503  0.1950  0.0261
 5755SOL    HW118108   1.072   7.778   4.890  1.8291 -1.1209 -0.7627
 5755SOL    HW218109   0.975   7.851   4.800  0.1425  1.3065  2.7721
 5756SOL     OW18110   0.839   5.760   2.383 -0.3008 -0.5307 -0.5958
 5756SOL    HW118111   0.803   5.820   2.449  0.5117 -0.3603 -0.2894
 5756SOL    HW218112   0.896   5.702   2.433  2.9160  1.6106 -1.4669
 5757SOL     OW18113   0.672   3.053   0.171  0.0314 -0.4457  0.0114
 5757SOL    HW118114   0.615   3.081   0.099  1.3204 -0.1715 -0.9487
 5757SOL    HW218115   0.686   3.132   0.222  1.5257  0.1050 -1.1829
 5758SOL     OW18116   5.289   2.160   5.085  0.1936  0.0916  0.2117
 5758SOL    HW118117   5.359   2.225   5.071 -0.7087  0.8463 -0.9907
 5758SOL    HW218118   5.245   2.154   5.000 -0.8391 -0.8040  0.7917
 5759SOL     OW18119   0.076   5.721   4.585  0.5939 -0.2017 -0.1753
 5759SOL    HW118120   0.127   5.693   4.661  1.4156 -1.1698 -1.0535
 5759SOL    HW218121  -0.006   5.673   4.592 -0.7780  2.1961  1.8553
 5760SOL     OW18122   6.390   2.834   6.255 -0.4967 -0.4114  0.0403
 5760SOL    HW118123   6.314   2.888   6.272 -1.8323 -1.6716 -1.6255
 5760SOL    HW218124   6.462   2.896   6.241 -0.7487  0.7863  3.1761
 5761SOL     OW18125   7.464   4.814   0.963 -0.3678 -0.1499 -0.3610
 5761SOL    HW118126   7.482   4.824   1.057  1.7200  2.0523 -0.8879
 5761SOL    HW218127   7.447   4.721   0.951 -0.7135 -0.4849  2.2001
 5762SOL     OW18128   6.561   1.549   5.368  0.2917  0.3888  0.1590
 5762SOL    HW118129   6.556   1.644   5.366  2.3019  0.5277  0.0618
 5762SOL    HW218130   6.484   1.520   5.319 -1.4680  1.8689  1.8888
 5763SOL     OW18131   0.593   2.060   3.220 -0.2447 -0.5943 -0.0574
 5763SOL    HW118132   0.616   2.148   3.192  3.6899 -1.8545 -1.4665
 5763SOL    HW218133   0.525   2.032   3.159 -0.4739  0.9598 -0.5421
 5764SOL     OW18134   3.844   0.182   3.449 -0.1135 -0.2162  0.1763
 5764SOL    HW118135   3.754   0.156   3.467  0.2898 -0.0137  2.7692
 5764SOL    HW218136   3.835   0.265   3.401 -1.2744 -0.8414 -0.7587
 5765SOL     OW18137   6.814   5.416   4.846 -0.2884 -0.4647  0.2463
 5765SOL    HW118138   6.773   5.353   4.906  1.4772 -1.2042  0.7256
 5765SOL    HW218139   6.904   5.386   4.837 -0.2927  0.0543 -2.2291
 5766SOL     OW18140   5.395   6.732   7.305  0.0507 -0.0402  0.1900
 5766SOL    HW118141   5.316   6.754   7.256 -0.3295  0.1166  0.8521
 5766SOL    HW218142   5.368   6.664   7.366  0.5656 -0.3864  0.0435
 5767SOL     OW18143   3.140   6.840   3.965  0.4488  0.4208  0.4244
 5767SOL    HW118144   3.105   6.896   3.896  0.7451 -0.2229 -0.2659
 5767SOL    HW218145   3.074   6.844   4.035  0.2818  1.3050  0.2282
 5768SOL     OW18146   1.368   4.106   5.938 -0.4554 -0.1585 -0.1045
 5768SOL    HW118147   1.444   4.155   5.907 -0.2347  0.1738  0.9495
 5768SOL    HW218148   1.316   4.091   5.859  0.0180  0.8084 -0.6118
 5769SOL     OW18149   3.251   7.226   3.641  0.2314 -0.0687  0.8862
 5769SOL    HW118150   3.177   7.225   3.702  0.0633 -1.6892  0.6931
 5769SOL    HW218151   3.229   7.295   3.578 -1.5190 -1.0232  0.3754
 5770SOL     OW18152   1.405   6.825   6.503 -0.3317 -0.3245  0.0808
 5770SOL    HW118153   1.353   6.901   6.527  0.1828  0.2152 -0.4856
 5770SOL    HW218154   1.483   6.861   6.461 -1.7400 -1.1540 -3.6725
 5771SOL     OW18155   5.808   3.541   4.881 -0.3179 -0.1658  0.3501
 5771SOL    HW118156   5.817   3.575   4.792  0.6911 -1.5939 -0.1259
 5771SOL    HW218157   5.747   3.601   4.923 -0.4381  0.8242 -1.1527
 5772SOL     OW18158   4.385   4.071   7.563  0.5272  0.5165  0.2699
 5772SOL    HW118159   4.378   4.103   7.473 -0.0927 -0.1763  0.0654
 5772SOL    HW218160   4.402   4.149   7.615  1.1445  0.8898 -0.4784
 5773SOL     OW18161   3.589   2.607   7.430  0.5896 -0.0357  0.0177
 5773SOL    HW118162   3.614   2.619   7.339  1.6750  0.6237  0.3775
 5773SOL    HW218163   3.655   2.657   7.479  0.1201 -0.5148  1.1620
 5774SOL     OW18164   5.970   0.645   1.551  0.1585 -0.4140 -0.3003
 5774SOL    HW118165   6.036   0.710   1.572  0.2588 -0.1967 -1.2365
 5774SOL    HW218166   5.999   0.565   1.595 -1.0978  0.6531  2.7353
 5775SOL     OW18167   4.955   2.081   4.059 -0.0605 -0.2235 -0.1160
 5775SOL    HW118168   4.867   2.047   4.039 -0.1343 -2.4867  3.1628
 5775SOL    HW218169   5.012   2.004   4.055  1.0621  0.4858  1.2678
 5776SOL     OW18170   6.931   6.407   0.662 -0.1445  0.0137  0.5563
 5776SOL    HW118171   6.838   6.403   0.642  0.0147  1.6420 -0.7659
 5776SOL    HW218172   6.960   6.490   0.624  2.1379 -1.1115 -0.3738
 5777SOL     OW18173   3.124   5.501   2.650 -0.0526  0.5087  0.3875
 5777SOL    HW118174   3.161   5.429   2.599 -0.3768  0.1983  0.5890
 5777SOL    HW218175   3.193   5.524   2.713 -0.5300 -0.6749  1.3701
 5778SOL     OW18176   3.401   2.656   2.039  0.1831  0.6779 -0.1803
 5778SOL    HW118177   3.384   2.608   1.958 -2.5220  1.1153  0.0434
 5778SOL    HW218178   3.381   2.747   2.018  1.3325  1.1186  0.5020
 5779SOL     OW18179   8.219   2.813   0.548  0.2689  0.3316 -0.1372
 5779SOL    HW118180   8.252   2.747   0.610  0.3523  1.2354  0.7979
 5779SOL    HW218181   8.124   2.798   0.546  0.3033  0.0856 -0.0505
 5780SOL     OW18182   0.731   0.397   8.133 -0.4067 -0.3718  0.6985
 5780SOL    HW118183   0.781   0.348   8.069  0.8315 -1.5312  2.4595
 5780SOL    HW218184   0.761   0.364   8.218 -2.5974  0.4460  1.8914
 5781SOL     OW18185   4.702   5.104   4.271 -0.1039  0.0728 -0.1320
 5781SOL    HW118186   4.687   5.095   4.365  0.2872  0.1794 -0.0612
 5781SOL    HW218187   4.770   5.040   4.251  0.0132  0.2504 -0.2953
 5782SOL     OW18188   3.060   4.080   6.499 -0.1732  0.5672 -0.3082
 5782SOL    HW118189   3.042   4.149   6.563  0.5934  1.3748 -0.9387
 5782SOL    HW218190   3.154   4.064   6.506 -0.6412 -2.0431  1.4037
 5783SOL     OW18191   0.090   7.242   4.544  0.2972  0.1985  0.1453
 5783SOL    HW118192   0.071   7.244   4.450  1.3544  3.2030 -0.0929
 5783SOL    HW218193   0.025   7.300   4.583  0.3470 -0.4331  1.2173
 5784SOL     OW18194   0.152   4.502   2.204 -0.4202  0.0107  0.2439
 5784SOL    HW118195   0.162   4.466   2.292 -1.0955 -0.8756 -0.0309
 5784SOL    HW218196   0.075   4.459   2.168 -0.7625  1.1183 -0.4188
 5785SOL     OW18197   2.741   7.882   5.624 -0.0088  0.0437  0.0856
 5785SOL    HW118198   2.731   7.884   5.719 -0.7755  0.6581 -0.0050
 5785SOL    HW218199   2.740   7.973   5.597  1.0282 -0.0824 -0.4442
 5786SOL     OW18200   5.763   1.313   1.921  0.0413 -0.2713  0.1018
 5786SOL    HW118201   5.677   1.299   1.962 -0.0816  0.0336 -0.0481
 5786SOL    HW218202   5.822   1.327   1.995 -0.0816 -0.2512  0.1968
 5787SOL     OW18203   1.647   0.190   5.530 -0.1779 -0.1486 -0.4388
 5787SOL    HW118204   1.668   0.276   5.568 -1.0390 -0.8706  1.8708
 5787SOL    HW218205   1.551   0.186   5.534 -0.1088 -1.4916  0.1930
 5788SOL     OW18206   6.763   3.669   3.461  0.2450 -0.1843  0.0126
 5788SOL    HW118207   6.677   3.641   3.490  0.7669 -1.6424  0.2217
 5788SOL    HW218208   6.777   3.754   3.504 -0.9067 -0.1243  0.2821
 5789SOL     OW18209   1.269   6.872   0.336 -0.2202  0.0609  0.0459
 5789SOL    HW118210   1.330   6.799   0.335  1.2830  1.2859  0.1012
 5789SOL    HW218211   1.261   6.896   0.428 -1.5385 -0.6419  0.1568
 5790SOL     OW18212   0.346   3.733   6.741  0.0619 -0.0240 -0.1792
 5790SOL    HW118213   0.353   3.754   6.648 -0.8800 -0.1487 -0.2877
 5790SOL    HW218214   0.292   3.654   6.744  0.0375  0.0082  0.4795
 5791SOL     OW18215   2.160   7.930   0.635 -0.2943 -0.3379  0.8156
 5791SOL    HW118216   2.125   7.988   0.568 -1.1079 -1.4056  0.2836
 5791SOL    HW218217   2.197   7.856   0.586 -0.2644 -0.7958  1.5194
 5792SOL     OW18218   2.740   1.667   5.323 -0.1530 -0.0218  0.6246
 5792SOL    HW118219   2.771   1.756   5.309  2.4269 -0.7712  0.9884
 5792SOL    HW218220   2.776   1.642   5.408 -1.3535 -1.2069  0.8249
 5793SOL     OW18221   3.262   8.126   7.568  0.0453 -0.0086 -0.1563
 5793SOL    HW118222   3.333   8.184   7.598 -1.2479  2.0890 -0.9141
 5793SOL    HW218223   3.182   8.178   7.581 -0.9978 -0.8381 -2.7104
 5794SOL     OW18224   5.095   0.526   0.244 -0.2112 -0.5522  0.5381
 5794SOL    HW118225   5.071   0.491   0.330 -2.0158  3.3469  1.8650
 5794SOL    HW218226   5.173   0.579   0.261 -1.0161  0.8585  0.0188
 5795SOL     OW18227   2.430   7.302   6.218 -0.0678 -0.1468 -0.1302
 5795SOL    HW118228   2.462   7.382   6.260  1.1574  0.0640 -1.3697
 5795SOL    HW218229   2.510   7.253   6.196 -0.7883 -1.8754  0.8532
 5796SOL     OW18230   2.348   0.864   7.214 -0.5263  0.1279 -0.2428
 5796SOL    HW118231   2.333   0.958   7.224 -0.4588 -0.0205  1.6374
 5796SOL    HW218232   2.438   0.857   7.183  0.3568  0.6817  1.9627
 5797SOL     OW18233   2.991   7.801   3.576 -0.3420  0.4599 -0.1671
 5797SOL    HW118234   2.907   7.755   3.567 -1.7435  1.9880  3.1401
 5797SOL    HW218235   3.009   7.799   3.670  2.9955  0.9095 -0.6814
 5798SOL     OW18236   6.502   7.198   1.504 -0.0162  0.3357  0.3535
 5798SOL    HW118237   6.583   7.205   1.555  1.1044  0.3972 -1.3441
 5798SOL    HW218238   6.472   7.108   1.518  0.4403  0.2642  0.8737
 5799SOL     OW18239   3.767   7.692   7.310  0.3132 -0.3891 -0.3592
 5799SOL    HW118240   3.713   7.770   7.301  0.6617 -0.1654 -0.5456
 5799SOL    HW218241   3.779   7.661   7.220  2.1069  0.6786 -0.5350
 5800SOL     OW18242   1.757   6.702   7.216  0.3944  0.4831  0.1392
 5800SOL    HW118243   1.746   6.708   7.311  0.4623  0.9539  0.1220
 5800SOL    HW218244   1.719   6.618   7.192  1.6149 -0.2832  0.7705
 5801SOL     OW18245   4.150   6.409   6.209  0.2190 -0.1778 -0.0848
 5801SOL    HW118246   4.206   6.335   6.186  0.8142  0.1961  0.1403
 5801SOL    HW218247   4.075   6.402   6.150  1.0252 -0.0670 -1.1540
 5802SOL     OW18248   2.602   8.079   1.289  0.3885  0.2635  0.3533
 5802SOL    HW118249   2.560   8.009   1.338 -0.4432  0.5237  0.0292
 5802SOL    HW218250   2.609   8.045   1.200  0.6369  0.3256  0.3465
 5803SOL     OW18251   2.450   3.925   4.973 -0.3880 -0.3478  0.3705
 5803SOL    HW118252   2.360   3.913   5.003 -0.4248 -1.1244 -0.0268
 5803SOL    HW218253   2.456   3.872   4.894 -0.3987  1.9111 -1.2576
 5804SOL     OW18254   6.971   0.119   0.370  0.3551  0.4155 -0.1454
 5804SOL    HW118255   6.892   0.101   0.320  0.1378  0.2648  0.2487
 5804SOL    HW218256   7.042   0.115   0.306  0.1362 -0.2539 -0.3477
 5805SOL     OW18257   6.429   2.954   0.304 -0.7412  0.1573 -0.1435
 5805SOL    HW118258   6.383   2.884   0.257 -2.0351  1.0763 -0.2800
 5805SOL    HW218259   6.377   2.968   0.383  0.4299 -0.1343  0.7233
 5806SOL     OW18260   4.753   1.611   7.165  0.7981 -0.1029  0.6328
 5806SOL    HW118261   4.732   1.684   7.223  1.8998  1.9567 -1.4083
 5806SOL    HW218262   4.849   1.605   7.166  0.7805 -0.7647 -0.1162
 5807SOL     OW18263   4.718   1.193   0.789  0.3481  0.0130  0.0731
 5807SOL    HW118264   4.799   1.237   0.761  1.3233 -0.3001  2.2224
 5807SOL    HW218265   4.743   1.102   0.801 -0.1199  0.0336  1.3942
 5808SOL     OW18266   4.487   6.171   5.052  0.2611 -0.0052  0.6167
 5808SOL    HW118267   4.533   6.240   5.003  0.8373 -0.3137  0.7057
 5808SOL    HW218268   4.557   6.111   5.078 -0.3963 -1.4455 -0.7597
 5809SOL     OW18269   7.812   1.035   1.216 -0.5532  0.3928  0.3865
 5809SOL    HW118270   7.769   1.109   1.259 -0.6571 -0.0711  1.0856
 5809SOL    HW218271   7.862   0.992   1.285 -2.2283 -1.4826  0.4988
 5810SOL     OW18272   1.733   6.040   5.076  0.2069 -0.7618  0.2727
 5810SOL    HW118273   1.762   6.057   4.986  1.1642 -0.2971  0.6512
 5810SOL    HW218274   1.814   6.042   5.128 -0.4549  0.2726  1.3284
 5811SOL     OW18275   5.202   0.315   7.359 -0.4763  0.3086  0.4330
 5811SOL    HW118276   5.139   0.386   7.344 -0.9439  0.5185  2.9240
 5811SOL    HW218277   5.174   0.275   7.441 -0.2680 -2.8817 -0.9015
 5812SOL     OW18278   2.259   0.826   5.242 -0.2208 -0.0834  0.0263
 5812SOL    HW118279   2.316   0.890   5.285  0.4842  0.4524 -1.6196
 5812SOL    HW218280   2.318   0.758   5.211 -0.6096 -0.1173 -0.6646
 5813SOL     OW18281   2.847   8.198   1.328  0.0515  0.3282  0.8503
 5813SOL    HW118282   2.763   8.153   1.320 -0.1405  0.8380 -0.1861
 5813SOL    HW218283   2.852   8.225   1.420 -0.1858 -1.0791  1.3110
 5814SOL     OW18284   5.139   1.971   6.398  0.2490  0.0107 -0.0940
 5814SOL    HW118285   5.222   1.977   6.350  1.4647 -0.8460  1.8114
 5814SOL    HW218286   5.140   2.044   6.459 -1.3912  1.2180 -1.3878
 5815SOL     OW18287   7.410   6.241   0.999  0.1392 -0.0835  0.3536
 5815SOL    HW118288   7.480   6.192   0.956  0.6251  0.0325  1.0061
 5815SOL    HW218289   7.365   6.176   1.053 -0.7159 -0.3175 -0.5874
 5816SOL     OW18290   5.770   4.619   7.189 -0.1170  0.7949 -0.1521
 5816SOL    HW118291   5.766   4.602   7.283 -0.9417 -0.1191 -0.3369
 5816SOL    HW218292   5.679   4.608   7.159  0.1145  1.2155 -1.0326
 5817SOL     OW18293   6.033   5.674   7.008 -0.0003  0.3295 -0.0604
 5817SOL    HW118294   6.025   5.604   7.072 -0.8623 -1.2842 -1.8093
 5817SOL    HW218295   6.110   5.724   7.036  0.5009 -1.1660  1.3917
 5818SOL     OW18296   3.712   3.817   7.705 -0.4636  0.2168  0.2787
 5818SOL    HW118297   3.693   3.864   7.624  0.8572  2.0835  0.9657
 5818SOL    HW218298   3.801   3.845   7.728 -0.3811 -1.1351  1.8057
 5819SOL     OW18299   6.420   5.558   7.017 -0.3998 -0.0330  0.4696
 5819SOL    HW118300   6.363   5.516   7.081  0.5796 -0.5126  1.0577
 5819SOL    HW218301   6.508   5.550   7.054  0.2765 -0.8288 -1.1974
 5820SOL     OW18302   3.434   4.401   1.749  0.4785 -0.4908  0.4599
 5820SOL    HW118303   3.511   4.456   1.737 -0.9421  1.5539  0.0166
 5820SOL    HW218304   3.432   4.344   1.672  0.6495  0.6408 -0.4149
 5821SOL     OW18305   6.453   1.579   3.351  0.4538 -0.0258  0.1714
 5821SOL    HW118306   6.508   1.634   3.406  1.1675 -0.3033 -0.2352
 5821SOL    HW218307   6.474   1.606   3.261 -1.5971  1.2770  0.0195
 5822SOL     OW18308   3.011   4.017   1.887  0.3491 -0.1273  0.2368
 5822SOL    HW118309   2.942   3.992   1.949  0.8233 -0.3611  0.6805
 5822SOL    HW218310   3.044   3.934   1.853 -0.2933  0.0109 -0.7799
 5823SOL     OW18311   2.425   0.774   5.853 -0.4341 -0.0678 -0.3128
 5823SOL    HW118312   2.369   0.832   5.801  0.0147  0.1112 -0.6030
 5823SOL    HW218313   2.418   0.809   5.942 -1.3632 -0.4986 -0.2023
 5824SOL     OW18314   2.655   2.610   5.556 -0.5001  0.2545  0.2930
 5824SOL    HW118315   2.595   2.566   5.617 -0.2141 -1.2397 -0.4449
 5824SOL    HW218316   2.734   2.627   5.607 -0.5638 -0.2316  0.5575
 5825SOL     OW18317   3.952   5.791   4.443 -0.4082 -0.0111 -0.7963
 5825SOL    HW118318   4.033   5.746   4.418  0.0340  0.4139 -0.1773
 5825SOL    HW218319   3.979   5.882   4.455 -0.4945 -0.2421  1.5620
 5826SOL     OW18320   2.607   4.897   4.624 -0.0616  0.1140 -0.1246
 5826SOL    HW118321   2.522   4.934   4.646  0.0085  0.7569 -0.8806
 5826SOL    HW218322   2.588   4.826   4.562 -0.0179  0.6764 -0.7979
 5827SOL     OW18323   0.926   6.097   2.917 -0.3105 -0.1568 -0.6816
 5827SOL    HW118324   0.850   6.091   2.974  0.1609 -0.1783 -0.0493
 5827SOL    HW218325   0.928   6.188   2.889  0.9699  0.5512  1.4777
 5828SOL     OW18326   2.544   3.608   0.584  0.3014  0.2925  0.5652
 5828SOL    HW118327   2.570   3.549   0.654 -0.7812  1.6667  2.2130
 5828SOL    HW218328   2.546   3.554   0.505 -0.8520 -2.0197  1.9968
 5829SOL     OW18329   5.577   5.701   7.846 -0.2554 -0.0084  0.1012
 5829SOL    HW118330   5.512   5.632   7.836  0.0225 -0.5020  1.3628
 5829SOL    HW218331   5.566   5.758   7.770  0.2174 -2.0197 -1.5491
 5830SOL     OW18332   6.256   1.135   1.267  0.1475  0.5112  0.3504
 5830SOL    HW118333   6.241   1.063   1.205  1.6830  1.3544 -1.0824
 5830SOL    HW218334   6.193   1.202   1.242  0.3228  0.5942  0.1332
 5831SOL     OW18335   4.616   2.292   1.104  0.2358 -0.1995 -0.7633
 5831SOL    HW118336   4.559   2.346   1.159 -0.6030 -1.6284 -0.1680
 5831SOL    HW218337   4.560   2.267   1.030  0.7320  0.0484 -1.2297
 5832SOL     OW18338   1.527   4.288   8.128  0.3044  0.4210  0.4693
 5832SOL    HW118339   1.516   4.204   8.084 -0.5615  0.6815  0.1663
 5832SOL    HW218340   1.610   4.322   8.095 -0.0191  0.3144 -0.4615
 5833SOL     OW18341   5.925   2.265   5.487  0.5357 -0.3062 -0.3471
 5833SOL    HW118342   5.962   2.179   5.465  1.8634  0.5366 -1.6054
 5833SOL    HW218343   5.908   2.260   5.581  0.8874 -1.8324 -0.3380
 5834SOL     OW18344   3.312   6.277   6.082 -0.4739 -0.8548  0.9721
 5834SOL    HW118345   3.302   6.339   6.154 -2.4914 -2.0284  1.7988
 5834SOL    HW218346   3.227   6.277   6.038  0.0028 -1.8327  0.0004
 5835SOL     OW18347   6.074   4.129   7.226  0.0285 -0.3988 -0.3701
 5835SOL    HW118348   6.048   4.205   7.278  0.2822  0.7251 -1.8281
 5835SOL    HW218349   6.090   4.164   7.139 -1.0223 -2.3201 -1.4087
 5836SOL     OW18350   1.392   1.830   1.570  0.4939 -0.3389  0.3747
 5836SOL    HW118351   1.441   1.760   1.611  1.1055  0.6015  1.2892
 5836SOL    HW218352   1.373   1.798   1.482 -0.1443 -2.0599  1.1077
 5837SOL     OW18353   0.920   4.588   3.364 -0.5449 -0.0981 -0.1510
 5837SOL    HW118354   0.901   4.538   3.284  0.7001  1.3632 -1.4335
 5837SOL    HW218355   0.942   4.676   3.332  1.1530  0.2175  1.7133
 5838SOL     OW18356   6.725   2.679   1.106  0.4195  0.3934  0.2558
 5838SOL    HW118357   6.784   2.722   1.044  0.1884 -0.2459 -0.4147
 5838SOL    HW218358   6.640   2.681   1.063 -0.0569  1.2650  1.1920
 5839SOL     OW18359   6.186   1.395   4.775 -0.1053  0.2842  0.1306
 5839SOL    HW118360   6.269   1.399   4.727 -0.5652 -0.9605 -0.8097
 5839SOL    HW218361   6.128   1.344   4.719 -2.1406  2.6836 -0.1404
 5840SOL     OW18362   0.694   3.446   2.953 -0.4669  0.3679  0.0257
 5840SOL    HW118363   0.661   3.520   3.005  1.2339  0.9476  0.3330
 5840SOL    HW218364   0.655   3.369   2.994 -2.9954  1.0825 -0.8439
 5841SOL     OW18365   4.012   5.481   8.033  0.4544 -0.0629 -0.0422
 5841SOL    HW118366   4.069   5.409   8.005  1.1223 -0.1682  1.4839
 5841SOL    HW218367   4.055   5.560   8.003  0.7947 -0.2070  0.0610
 5842SOL     OW18368   5.960   4.416   0.683 -0.2433 -0.1859 -0.0048
 5842SOL    HW118369   5.908   4.363   0.744  0.6282 -0.0686  0.8702
 5842SOL    HW218370   6.037   4.441   0.734  0.5347 -0.1316 -1.1905
 5843SOL     OW18371   4.311   7.792   5.575 -0.7789  0.5655  0.2738
 5843SOL    HW118372   4.385   7.732   5.581 -0.1972  1.3070  0.4635
 5843SOL    HW218373   4.325   7.839   5.493 -2.0631 -0.6324 -0.6988
 5844SOL     OW18374   4.523   3.096   7.030  0.6172  0.0103 -0.1099
 5844SOL    HW118375   4.579   3.022   7.009  0.9865  0.3166 -0.2054
 5844SOL    HW218376   4.482   3.119   6.946  0.3222 -0.2325 -0.0344
 5845SOL     OW18377   4.709   1.858   5.329 -0.2008  0.1063  0.1058
 5845SOL    HW118378   4.686   1.775   5.289  0.5278  0.4295 -1.0148
 5845SOL    HW218379   4.692   1.924   5.262  0.7754  0.6910  0.4046
 5846SOL     OW18380   5.417   1.569   1.643 -0.5672 -0.2379 -0.2160
 5846SOL    HW118381   5.460   1.487   1.617 -1.6902 -0.3956 -1.7169
 5846SOL    HW218382   5.480   1.637   1.619  0.6004 -0.6432  1.5265
 5847SOL     OW18383   0.852   2.890   7.108 -0.0059 -0.3121  0.2246
 5847SOL    HW118384   0.776   2.877   7.050  0.3857 -1.2994 -0.0877
 5847SOL    HW218385   0.821   2.859   7.193  0.0744 -0.8018  0.0770
 5848SOL     OW18386   0.571   3.067   1.774  0.5460  0.1617  1.0930
 5848SOL    HW118387   0.508   3.004   1.810  1.2124 -0.5252  1.0677
 5848SOL    HW218388   0.516   3.136   1.737 -0.2313 -0.8112  0.3723
 5849SOL     OW18389   3.534   8.056   5.026  0.0842  0.0470 -0.0875
 5849SOL    HW118390   3.449   8.068   4.983 -1.3743  1.1145  2.8289
 5849SOL    HW218391   3.543   7.961   5.035 -0.0593 -0.1465 -1.6963
 5850SOL     OW18392   3.484   4.204   1.929 -0.3372  0.0425  0.7561
 5850SOL    HW118393   3.415   4.178   1.989 -0.7837  0.1962  0.3174
 5850SOL    HW218394   3.442   4.266   1.870 -0.0537 -0.5222 -0.0587
 5851SOL     OW18395   7.549   2.224   0.001  0.2476  0.4226  0.0543
 5851SOL    HW118396   7.556   2.147   0.059 -1.0336  1.1644  1.2419
 5851SOL    HW218397   7.625   2.216  -0.057  0.2807 -1.6165  0.2874
 5852SOL     OW18398   5.331   0.659   2.487 -0.1646  0.1980 -0.4003
 5852SOL    HW118399   5.386   0.586   2.515 -0.6765 -0.8866 -2.0464
 5852SOL    HW218400   5.313   0.709   2.567  1.1958 -0.7787  0.5600
 5853SOL     OW18401   7.996   1.047   7.057 -0.1682  0.0108 -0.5545
 5853SOL    HW118402   7.970   1.134   7.088  0.6802  0.3071 -0.6646
 5853SOL    HW218403   7.996   1.055   6.962 -1.8824 -0.6429 -0.6422
 5854SOL     OW18404   3.459   6.351   7.814 -0.0699 -0.1517 -0.1560
 5854SOL    HW118405   3.389   6.407   7.782 -1.0150 -0.4791  1.2336
 5854SOL    HW218406   3.438   6.337   7.906  1.9708 -0.0600  0.3758
 5855SOL     OW18407   4.036   6.432   1.799 -0.2516  0.6558 -0.3849
 5855SOL    HW118408   4.084   6.507   1.834 -2.7890  2.3695 -0.3691
 5855SOL    HW218409   3.997   6.391   1.875  0.4586 -0.2480 -0.4862
 5856SOL     OW18410   4.005   5.188   7.994  0.5523 -0.5958 -0.2393
 5856SOL    HW118411   3.941   5.122   7.967  0.6256 -0.5472 -0.5360
 5856SOL    HW218412   3.960   5.237   8.064  1.2206 -2.1773  1.3470
 5857SOL     OW18413   7.890   1.746   0.127 -0.4201  0.0944 -0.0977
 5857SOL    HW118414   7.863   1.819   0.072 -1.0952  0.1990  0.3641
 5857SOL    HW218415   7.850   1.764   0.212  0.6673 -0.0331  0.4492
 5858SOL     OW18416   6.933   1.083   5.934  0.4508 -0.1954 -0.2511
 5858SOL    HW118417   6.882   1.141   5.877  0.4930 -0.7464 -0.8617
 5858SOL    HW218418   6.887   1.086   6.018  1.3522  1.9632  0.2294
 5859SOL     OW18419   6.113   3.643   6.290  0.1263  0.3876  0.1557
 5859SOL    HW118420   6.202   3.632   6.325 -0.2404  0.8745  1.2758
 5859SOL    HW218421   6.111   3.587   6.212  1.9686  1.6914 -0.9151
 5860SOL     OW18422   1.223   5.610   2.821  0.3668 -0.1386  0.4472
 5860SOL    HW118423   1.250   5.524   2.790 -0.1168  0.3010 -1.2831
 5860SOL    HW218424   1.135   5.622   2.785  0.7257  1.3874  0.0210
 5861SOL     OW18425   1.562   1.877   0.495  0.7280 -0.1530 -0.5312
 5861SOL    HW118426   1.547   1.927   0.415  1.5596  0.4971 -0.3088
 5861SOL    HW218427   1.658   1.873   0.502  0.6626 -0.2157  0.4109
 5862SOL     OW18428   3.178   1.095   7.027 -1.0329  0.1049 -0.0160
 5862SOL    HW118429   3.116   1.117   6.958 -3.2751 -0.9036  1.5755
 5862SOL    HW218430   3.154   1.150   7.101  0.5014  0.2509  0.4228
 5863SOL     OW18431   4.359   1.644   4.189 -0.2084 -0.3652  0.5064
 5863SOL    HW118432   4.447   1.661   4.158 -0.3272  0.7065  0.7172
 5863SOL    HW218433   4.363   1.661   4.283 -0.8396  0.6082  0.3744
 5864SOL     OW18434   7.668   2.347   1.163 -0.1366  0.9880  0.1724
 5864SOL    HW118435   7.762   2.365   1.159 -0.0588  0.4292 -1.1834
 5864SOL    HW218436   7.642   2.336   1.071 -0.9951 -1.4246  0.6242
 5865SOL     OW18437   1.987   6.298   6.510  0.0455  0.4679  0.2070
 5865SOL    HW118438   2.015   6.372   6.565  1.0388  2.0704 -2.3029
 5865SOL    HW218439   1.897   6.281   6.539  0.0990  2.0358  1.5002
 5866SOL     OW18440   0.979   0.547   2.367 -0.4274 -0.3545  0.0380
 5866SOL    HW118441   1.036   0.621   2.388 -1.3586  0.0662  1.2350
 5866SOL    HW218442   1.026   0.470   2.398  0.1161 -0.1651 -0.3099
 5867SOL     OW18443   2.569   4.445   6.259 -0.1408  0.3833 -0.0904
 5867SOL    HW118444   2.569   4.525   6.207 -1.4165  0.9183  0.6947
 5867SOL    HW218445   2.655   4.406   6.243  0.8729  2.3675  0.2295
 5868SOL     OW18446   6.967   8.104   7.154  0.0732 -0.1780  0.2019
 5868SOL    HW118447   7.013   8.064   7.228  0.1290  1.4088  1.0685
 5868SOL    HW218448   6.876   8.076   7.165 -0.2723  1.4696  1.9482
 5869SOL     OW18449   0.186   1.295   0.337  0.4937 -0.2747  0.0639
 5869SOL    HW118450   0.154   1.289   0.427  0.9935 -0.8749  0.2130
 5869SOL    HW218451   0.131   1.233   0.288  0.1445  0.1388 -0.0682
 5870SOL     OW18452   4.289   6.348   2.039  0.4063 -0.0635  0.1575
 5870SOL    HW118453   4.220   6.408   2.068 -0.8601 -0.7768 -1.2200
 5870SOL    HW218454   4.340   6.330   2.117 -3.5371 -2.9011  2.4354
 5871SOL     OW18455   3.114   1.291   5.155  0.1830 -0.1490 -0.1531
 5871SOL    HW118456   3.087   1.369   5.204  0.0133  0.3193 -0.9794
 5871SOL    HW218457   3.210   1.292   5.161  0.2197  0.4885 -0.6996
 5872SOL     OW18458   1.029   4.116   4.422 -0.5266  0.1169 -0.7668
 5872SOL    HW118459   1.058   4.113   4.331 -0.7308 -0.4220 -0.8197
 5872SOL    HW218460   0.941   4.077   4.421 -0.2642 -0.5121 -0.2375
 5873SOL     OW18461   5.514   0.886   5.834 -0.5061  0.2462  0.3221
 5873SOL    HW118462   5.605   0.867   5.856 -0.4148 -1.1884 -1.1457
 5873SOL    HW218463   5.512   0.981   5.821  1.3015  0.0788 -1.6974
 5874SOL     OW18464   3.565   4.561   7.509 -0.2007 -0.6320 -0.1201
 5874SOL    HW118465   3.483   4.532   7.470  0.3856 -0.3561 -1.6366
 5874SOL    HW218466   3.543   4.646   7.549 -0.7768 -0.8296 -0.0053
 5875SOL     OW18467   2.936   5.084   3.049  0.1154 -0.2222  0.0396
 5875SOL    HW118468   2.909   5.172   3.075 -3.3116 -0.8356 -0.9532
 5875SOL    HW218469   2.929   5.033   3.129 -0.3344 -0.0687  0.1040
 5876SOL     OW18470   5.240   7.395   3.208 -0.1735 -0.3508 -0.2938
 5876SOL    HW118471   5.265   7.414   3.117 -1.2194  1.3068 -0.2739
 5876SOL    HW218472   5.233   7.481   3.249 -0.6187 -1.0421  1.1218
 5877SOL     OW18473   4.554   5.364   6.053 -0.3156 -0.5979  0.3492
 5877SOL    HW118474   4.571   5.454   6.080 -1.0724 -0.4772  0.4535
 5877SOL    HW218475   4.574   5.362   5.960 -2.5877  0.3197 -0.2179
 5878SOL     OW18476   4.702   4.271   1.880  0.0607 -0.2329  0.4752
 5878SOL    HW118477   4.681   4.303   1.968 -0.1192  0.6785  0.1097
 5878SOL    HW218478   4.797   4.278   1.875 -0.1190  3.2016 -0.6417
 5879SOL     OW18479   1.804   2.531   3.878  0.7294  0.3539 -0.2675
 5879SOL    HW118480   1.810   2.627   3.877 -0.7333  0.4947  0.7429
 5879SOL    HW218481   1.859   2.505   3.952  0.7737  0.4589 -0.2628
 5880SOL     OW18482   4.515   6.611   6.677 -0.6072  0.5035 -0.6448
 5880SOL    HW118483   4.457   6.595   6.602 -0.3201  4.4291 -1.9641
 5880SOL    HW218484   4.464   6.669   6.734  1.2317  2.5020 -0.8925
 5881SOL     OW18485   7.397   7.145   8.029 -0.5146 -0.0569 -0.0861
 5881SOL    HW118486   7.368   7.084   8.097 -1.8047 -0.2912 -0.8032
 5881SOL    HW218487   7.481   7.110   7.999 -0.2010 -0.2546  1.0064
 5882SOL     OW18488   3.300   3.719   1.499  0.0064  0.8362 -0.2479
 5882SOL    HW118489   3.324   3.683   1.413 -1.2572  2.3695 -1.3081
 5882SOL    HW218490   3.343   3.805   1.501 -2.0186  1.9010 -0.4739
 5883SOL     OW18491   7.670   7.332   1.421 -0.3619  0.0035  0.0959
 5883SOL    HW118492   7.595   7.273   1.416 -1.0054  0.7155  0.9882
 5883SOL    HW218493   7.738   7.281   1.467 -0.1190 -0.7959 -1.1102
 5884SOL     OW18494   7.146   2.855   0.886  0.0620  0.0885  0.1454
 5884SOL    HW118495   7.219   2.803   0.920  1.4583  1.7615 -0.1686
 5884SOL    HW218496   7.112   2.803   0.813  0.2715 -1.1706  0.8952
 5885SOL     OW18497   7.234   2.171   6.045 -0.2415  0.0806  0.0900
 5885SOL    HW118498   7.230   2.114   6.122  0.3786 -0.7332 -0.4697
 5885SOL    HW218499   7.321   2.155   6.008  0.4076  2.2112  0.5349
 5886SOL     OW18500   1.752   5.077   8.026  0.4435 -0.6925 -0.4333
 5886SOL    HW118501   1.743   4.991   7.986 -0.8925 -0.7656 -0.0381
 5886SOL    HW218502   1.662   5.103   8.048  0.6893  1.2156 -1.4226
 5887SOL     OW18503   4.949   0.114   0.425  0.3657  0.0682  0.7635
 5887SOL    HW118504   5.024   0.056   0.417  0.3195  0.2494 -2.0607
 5887SOL    HW218505   4.985   0.202   0.421  0.0294  0.1683 -1.8935
 5888SOL     OW18506   2.108   1.260   0.204 -0.2705 -0.1980  0.3228
 5888SOL    HW118507   2.106   1.242   0.109  0.3248  0.0724  0.2578
 5888SOL    HW218508   2.145   1.348   0.211 -0.6997 -0.0535  0.7908
 5889SOL     OW18509   3.177   3.568   5.878  0.0718  0.0235  0.9456
 5889SOL    HW118510   3.225   3.491   5.848 -0.2657  0.4566 -0.8181
 5889SOL    HW218511   3.227   3.642   5.844 -1.5725  0.4864 -0.6327
 5890SOL     OW18512   6.035   2.301   2.987 -0.4025 -0.0600  0.8250
 5890SOL    HW118513   6.008   2.209   2.989  1.2734 -0.5621  1.5828
 5890SOL    HW218514   6.126   2.298   2.958 -1.3278  1.6587 -2.8754
 5891SOL     OW18515   6.551   0.691   4.989 -0.2531  0.2137 -0.0876
 5891SOL    HW118516   6.517   0.636   4.917  1.1347  0.3376 -0.8653
 5891SOL    HW218517   6.594   0.630   5.048  0.0431  0.2916 -0.2196
 5892SOL     OW18518   0.237   0.820   4.711  0.1560 -0.7053  0.1422
 5892SOL    HW118519   0.163   0.863   4.670  1.5430  1.2694 -0.4052
 5892SOL    HW218520   0.240   0.857   4.799  1.3524  0.3810 -0.3294
 5893SOL     OW18521   3.143   3.301   0.309 -0.1575  0.2195  0.3025
 5893SOL    HW118522   3.223   3.251   0.297 -1.1659 -1.3984  0.0562
 5893SOL    HW218523   3.168   3.374   0.365  1.0866 -1.2473  1.7269
 5894SOL     OW18524   0.138   3.477   1.680  0.5429 -0.4286  0.3159
 5894SOL    HW118525   0.045   3.492   1.699  0.2356 -1.7336 -0.0928
 5894SOL    HW218526   0.143   3.479   1.584  0.8817 -0.7246  0.3292
 5895SOL     OW18527   3.643   2.965   6.156  0.1616  0.4573 -0.5853
 5895SOL    HW118528   3.734   2.957   6.186 -0.0716  2.3626  0.9040
 5895SOL    HW218529   3.650   3.005   6.069  0.7541  0.2537 -0.6372
 5896SOL     OW18530   3.534   7.729   0.578 -0.0814 -0.0561 -0.3593
 5896SOL    HW118531   3.476   7.654   0.563 -0.8819 -0.0136  2.0962
 5896SOL    HW218532   3.483   7.789   0.632  1.4733  1.0388 -0.0254
 5897SOL     OW18533   5.117   7.380   3.466  0.1110  0.3287  0.1752
 5897SOL    HW118534   5.131   7.333   3.384  1.1098  2.1846 -0.7805
 5897SOL    HW218535   5.158   7.465   3.452  0.7383  0.5352  2.7932
 5898SOL     OW18536   0.641   3.263   3.197  0.0635 -0.5303  0.5240
 5898SOL    HW118537   0.727   3.223   3.212  0.2558 -0.1275  0.5362
 5898SOL    HW218538   0.581   3.190   3.188  0.5443 -0.8393 -0.2953
 5899SOL     OW18539   3.951   5.395   5.483 -0.5163 -0.6367  0.0891
 5899SOL    HW118540   4.022   5.405   5.419 -2.0360 -0.9788 -1.7694
 5899SOL    HW218541   3.947   5.479   5.528  0.6770 -0.4149 -0.1883
 5900SOL     OW18542   5.060   4.657   5.661 -0.2852 -0.1755  0.3847
 5900SOL    HW118543   5.070   4.700   5.576 -0.2710 -1.3464 -0.2295
 5900SOL    HW218544   5.007   4.580   5.642  1.4320 -1.5807  1.0477
 5901SOL     OW18545   4.799   1.287   4.037  0.6931 -0.4145 -0.3032
 5901SOL    HW118546   4.752   1.307   4.117 -0.4197 -1.7866 -0.5708
 5901SOL    HW218547   4.801   1.370   3.989 -0.2174 -0.0055  0.3390
 5902SOL     OW18548   3.151   3.967   3.745 -0.3382  0.2076  0.3011
 5902SOL    HW118549   3.087   3.928   3.685  0.1921  0.6413 -0.5617
 5902SOL    HW218550   3.212   3.897   3.764  0.2141  0.4009 -0.6906
 5903SOL     OW18551   7.739   2.388   0.837 -0.6168  0.0063  0.2753
 5903SOL    HW118552   7.767   2.332   0.764  1.0919 -0.6919  1.4169
 5903SOL    HW218553   7.816   2.440   0.859 -1.4047  0.9206  0.9579
 5904SOL     OW18554   7.527   5.573   0.872 -0.2423  0.8162 -0.0792
 5904SOL    HW118555   7.552   5.504   0.932  0.5984  0.3341 -0.9589
 5904SOL    HW218556   7.469   5.630   0.923 -0.5401 -0.2513  0.8011
 5905SOL     OW18557   5.542   0.850   0.358 -0.3067  0.1202  0.0292
 5905SOL    HW118558   5.611   0.907   0.393 -0.3776  0.5213 -0.4735
 5905SOL    HW218559   5.462   0.882   0.399 -0.3996  0.6349 -0.5296
 5906SOL     OW18560   3.340   4.330   0.277 -0.6478  0.0523 -0.4194
 5906SOL    HW118561   3.309   4.266   0.341 -0.9083 -1.0095 -1.5650
 5906SOL    HW218562   3.262   4.353   0.226 -0.1989 -0.1055 -1.1931
 5907SOL     OW18563   5.705   5.493   7.034  0.0533  0.6176 -0.7594
 5907SOL    HW118564   5.648   5.487   7.111  0.1824 -1.6187 -0.7861
 5907SOL    HW218565   5.750   5.577   7.044  1.5881 -0.4315  2.7223
 5908SOL     OW18566   1.455   0.501   6.781  0.0380 -0.1612 -0.0355
 5908SOL    HW118567   1.434   0.483   6.873 -0.7760 -1.1676 -0.4011
 5908SOL    HW218568   1.375   0.481   6.734 -0.3019  2.5035 -0.7633
 5909SOL     OW18569   2.603   5.205   5.132 -0.5828 -0.2767 -0.3768
 5909SOL    HW118570   2.566   5.216   5.219  1.6705 -0.7411  0.7037
 5909SOL    HW218571   2.615   5.295   5.100  1.7980  0.0845  1.2960
 5910SOL     OW18572   1.708   3.481   2.143 -0.6002  0.3212  0.7692
 5910SOL    HW118573   1.722   3.573   2.121 -0.5146  0.3500  0.9463
 5910SOL    HW218574   1.613   3.472   2.148 -0.6660  0.1403 -0.3836
 5911SOL     OW18575   7.355   6.115   4.259  0.3185  0.0470  0.6092
 5911SOL    HW118576   7.300   6.172   4.312  1.2089 -0.8000  2.5673
 5911SOL    HW218577   7.365   6.036   4.312  1.5932 -0.6957 -0.6701
 5912SOL     OW18578   8.078   0.334   6.487 -0.2298 -0.1377  0.1563
 5912SOL    HW118579   8.166   0.372   6.493  0.1967 -1.1606  0.6127
 5912SOL    HW218580   8.036   0.383   6.415  1.2205 -0.6363 -1.0894
 5913SOL     OW18581   0.147   2.169   1.306  0.4372 -0.1769 -0.1048
 5913SOL    HW118582   0.093   2.146   1.230 -0.4265 -0.6336  0.6333
 5913SOL    HW218583   0.236   2.172   1.272  0.2906 -2.1705 -0.7683
 5914SOL     OW18584   0.320   2.973   3.112 -0.1516  0.2163 -0.3119
 5914SOL    HW118585   0.379   3.017   3.051  0.4055 -0.9754 -0.6733
 5914SOL    HW218586   0.364   2.889   3.130 -0.8820  0.0638  0.8046
 5915SOL     OW18587   0.140   6.921   2.410  0.1592  0.5944 -0.1999
 5915SOL    HW118588   0.145   7.016   2.399 -1.5379  0.9300  1.4600
 5915SOL    HW218589   0.062   6.907   2.463  1.5107 -1.5821  1.3597
 5916SOL     OW18590   2.527   2.593   4.790 -0.1019 -0.5624  0.5041
 5916SOL    HW118591   2.475   2.514   4.802  1.0961 -1.6411 -0.9173
 5916SOL    HW218592   2.544   2.596   4.695  1.9140  0.0278  0.8291
 5917SOL     OW18593   0.574   0.105   1.294 -0.3430  0.5137  0.1926
 5917SOL    HW118594   0.555   0.043   1.364  0.8351 -1.2096 -0.9617
 5917SOL    HW218595   0.584   0.052   1.215  1.7886  1.9997 -0.6575
 5918SOL     OW18596   3.768   5.876   0.185  0.0286  0.2649 -0.0356
 5918SOL    HW118597   3.848   5.896   0.137 -0.1243  2.4058  0.4896
 5918SOL    HW218598   3.700   5.875   0.117  0.2659  0.0523 -0.2744
 5919SOL     OW18599   1.193   5.587   1.905  0.7248  0.3875  0.2741
 5919SOL    HW118600   1.198   5.497   1.873  0.2000  0.4379  0.0534
 5919SOL    HW218601   1.212   5.580   1.999 -1.1239 -0.1903  0.6366
 5920SOL     OW18602   3.144   0.561   3.244  0.2512  0.7703  0.2972
 5920SOL    HW118603   3.147   0.595   3.334 -2.7931 -0.1480  0.8353
 5920SOL    HW218604   3.094   0.480   3.250 -1.2394  1.3710 -2.4179
 5921SOL     OW18605   5.269   7.506   1.015  0.0080 -0.1626 -0.4488
 5921SOL    HW118606   5.207   7.477   0.948 -0.5107  2.2206 -1.0934
 5921SOL    HW218607   5.343   7.541   0.965  1.1961 -1.4845  0.3094
 5922SOL     OW18608   1.475   1.997   1.135  0.2608 -0.0365 -0.4170
 5922SOL    HW118609   1.445   1.908   1.155  2.3521 -0.8871 -0.7828
 5922SOL    HW218610   1.428   2.053   1.197 -0.3818 -1.4971  0.4698
 5923SOL     OW18611   6.689   2.460   0.616 -0.1161 -0.3310  0.1287
 5923SOL    HW118612   6.747   2.517   0.566 -0.7485 -1.1138 -1.5728
 5923SOL    HW218613   6.626   2.519   0.656 -0.3731  0.2491 -1.0773
 5924SOL     OW18614   3.394   2.960   6.843 -0.2669 -0.5917  0.2202
 5924SOL    HW118615   3.433   2.975   6.757 -2.4941 -1.6549 -1.0689
 5924SOL    HW218616   3.366   3.046   6.872  0.8194 -0.1692  0.0759
 5925SOL     OW18617   5.201   5.494   6.038 -0.0698 -0.0537 -0.1858
 5925SOL    HW118618   5.269   5.430   6.020  2.0224  1.8909  0.2636
 5925SOL    HW218619   5.122   5.443   6.051  1.2358 -2.4172 -0.9671
 5926SOL     OW18620   4.610   2.730   7.633  0.3173  0.1497  0.4269
 5926SOL    HW118621   4.620   2.798   7.699 -1.3323 -0.3564  1.2419
 5926SOL    HW218622   4.699   2.698   7.618  0.5928 -0.8933  3.6636
 5927SOL     OW18623   0.095   4.046   0.256 -0.0648 -0.6978  0.4109
 5927SOL    HW118624   0.125   4.057   0.346 -2.0749 -0.5572  1.1122
 5927SOL    HW218625   0.010   4.089   0.254  0.4137  0.2900 -1.8731
 5928SOL     OW18626   7.714   5.495   0.458 -0.1638  0.0070  0.4150
 5928SOL    HW118627   7.758   5.474   0.375  1.5296 -0.4572  1.3608
 5928SOL    HW218628   7.676   5.411   0.486  1.8263 -0.6099  1.4929
 5929SOL     OW18629   2.555   3.475   6.168 -0.3964 -0.3041  0.4711
 5929SOL    HW118630   2.644   3.441   6.163  0.7846  2.6911 -2.1764
 5929SOL    HW218631   2.531   3.495   6.077 -1.7990  3.4647  1.4849
 5930SOL     OW18632   1.423   3.397   6.027  0.0447  0.4760 -0.0136
 5930SOL    HW118633   1.351   3.460   6.032 -0.5702 -0.0565 -1.4332
 5930SOL    HW218634   1.499   3.450   6.000 -0.4046  0.6709 -0.9460
 5931SOL     OW18635   6.950   3.242   6.535 -0.3557  0.3198 -0.1783
 5931SOL    HW118636   6.905   3.241   6.451  1.1944  0.5434 -1.0349
 5931SOL    HW218637   6.887   3.204   6.596 -0.7846 -1.7641 -1.8008
 5932SOL     OW18638   5.724   1.726   5.308 -0.5595  0.2336 -0.2894
 5932SOL    HW118639   5.699   1.763   5.393  0.4855  0.1184  0.0744
 5932SOL    HW218640   5.793   1.784   5.276 -1.0032  0.3198 -1.1031
 5933SOL     OW18641   3.150   7.292   8.205  0.1546 -0.2542 -0.2105
 5933SOL    HW118642   3.206   7.360   8.242 -0.0665 -1.0653  1.7659
 5933SOL    HW218643   3.210   7.234   8.158  0.9688 -0.8804  1.5138
 5934SOL     OW18644   7.700   3.425   0.178 -0.0742 -0.0151  0.1559
 5934SOL    HW118645   7.771   3.363   0.167 -0.7438 -0.8517  0.4253
 5934SOL    HW218646   7.675   3.448   0.088  0.0237 -0.3223  0.0483
 5935SOL     OW18647   3.459   1.506   6.334 -0.2092 -0.4949 -0.0982
 5935SOL    HW118648   3.488   1.463   6.254  1.0968 -0.7923  0.5119
 5935SOL    HW218649   3.531   1.493   6.396 -0.9624  0.1961  0.9571
 5936SOL     OW18650   0.633   0.931   4.255 -0.1472 -0.3187  0.6846
 5936SOL    HW118651   0.596   0.990   4.321 -0.7103  0.6869 -0.4791
 5936SOL    HW218652   0.557   0.888   4.216  0.0465  0.1711 -0.2714
 5937SOL     OW18653   0.308   5.460   2.848  0.1934  0.4456  0.5443
 5937SOL    HW118654   0.353   5.376   2.858 -0.3961  0.2345  1.5535
 5937SOL    HW218655   0.251   5.466   2.925  0.7781  2.1128  0.8786
 5938SOL     OW18656   3.533   6.636   8.028  0.3557  0.3916 -0.2709
 5938SOL    HW118657   3.484   6.554   8.026 -0.0385  0.6184 -2.2788
 5938SOL    HW218658   3.621   6.612   7.998  0.4883  0.5533 -0.0135
 5939SOL     OW18659   4.077   1.169   0.795 -0.1816 -0.4866 -0.1590
 5939SOL    HW118660   4.085   1.241   0.857  0.9498 -0.2756 -0.5176
 5939SOL    HW218661   4.015   1.108   0.836 -0.0522  0.0125  0.8068
 5940SOL     OW18662   5.472   1.253   1.000  0.3190 -0.3346 -0.6906
 5940SOL    HW118663   5.436   1.227   1.084  1.9772  0.5775  0.3534
 5940SOL    HW218664   5.510   1.172   0.964  0.6411 -0.4818 -0.0224
 5941SOL     OW18665   7.305   2.533   7.702  0.1189  0.8004 -0.7907
 5941SOL    HW118666   7.383   2.493   7.664 -0.6121 -0.6236 -0.8630
 5941SOL    HW218667   7.241   2.535   7.630 -0.8047 -0.5895 -0.0429
 5942SOL     OW18668   5.569   0.381   7.540  0.0559  0.3571 -0.8694
 5942SOL    HW118669   5.576   0.351   7.631 -2.5974  0.2868 -0.6069
 5942SOL    HW218670   5.644   0.341   7.496  0.9179 -0.3353  1.0866
 5943SOL     OW18671   7.361   0.139   4.316  0.2112 -0.4204  0.3001
 5943SOL    HW118672   7.274   0.134   4.356 -0.6345  2.2343 -1.0139
 5943SOL    HW218673   7.352   0.093   4.233  0.4884 -1.3269  0.7551
 5944SOL     OW18674   2.886   4.635   1.889 -0.3480  0.1395 -0.3129
 5944SOL    HW118675   2.844   4.686   1.819  1.8900  0.9450 -1.1365
 5944SOL    HW218676   2.947   4.577   1.843  1.0539  0.5667  0.9443
 5945SOL     OW18677   2.728   7.128   7.503  0.0570  0.1889  0.1643
 5945SOL    HW118678   2.664   7.194   7.529 -0.5646 -0.0626 -0.6825
 5945SOL    HW218679   2.765   7.097   7.586 -0.3847  0.8633  0.6262
 5946SOL     OW18680   5.358   3.324   0.228  0.3429 -0.4412 -0.2147
 5946SOL    HW118681   5.418   3.256   0.199 -0.3442 -1.4611  0.6870
 5946SOL    HW218682   5.273   3.281   0.232  0.0140  0.2743  1.0077
 5947SOL     OW18683   2.744   3.424   7.231  0.4444  0.1775 -0.3061
 5947SOL    HW118684   2.730   3.331   7.215 -0.8702  0.5237 -1.2824
 5947SOL    HW218685   2.727   3.466   7.147  1.4038  1.2767  0.0251
 5948SOL     OW18686   4.114   6.895   1.006 -0.5613  0.0513  0.2805
 5948SOL    HW118687   4.048   6.950   1.048 -1.0247 -0.6023  0.4119
 5948SOL    HW218688   4.196   6.918   1.051 -1.0202 -0.5160  1.4433
 5949SOL     OW18689   1.332   7.757   2.891  0.3784  0.1402 -0.0074
 5949SOL    HW118690   1.296   7.672   2.917  1.0914 -0.3860 -0.6887
 5949SOL    HW218691   1.407   7.770   2.949  0.3768  0.2129 -0.0226
 5950SOL     OW18692   1.275   8.117   4.178 -0.0754 -0.9854 -0.1911
 5950SOL    HW118693   1.202   8.122   4.241  1.0709  0.8095  1.0900
 5950SOL    HW218694   1.239   8.151   4.097 -0.5746  0.3505  0.5547
 5951SOL     OW18695   7.286   6.535   3.267 -0.2218  0.2513  0.0773
 5951SOL    HW118696   7.324   6.448   3.278 -0.7377 -0.3168 -2.1646
 5951SOL    HW218697   7.303   6.558   3.176 -0.3525  2.4066  0.5425
 5952SOL     OW18698   5.436   2.845   3.855 -0.9072  0.4760 -0.0198
 5952SOL    HW118699   5.417   2.937   3.869 -0.6515  0.6944 -1.0045
 5952SOL    HW218700   5.528   2.844   3.827  0.2526 -0.4180  3.3687
 5953SOL     OW18701   5.199   1.876   3.541  0.4523 -0.7505 -0.1581
 5953SOL    HW118702   5.129   1.895   3.479 -0.6839 -2.4351  0.5267
 5953SOL    HW218703   5.225   1.786   3.521  2.8148 -0.0096 -0.7216
 5954SOL     OW18704   4.617   6.508   4.267  0.1566  0.0680 -0.4375
 5954SOL    HW118705   4.650   6.522   4.179 -0.7357 -1.3166 -1.0166
 5954SOL    HW218706   4.574   6.422   4.264 -0.3812  0.2408  1.1881
 5955SOL     OW18707   2.485   0.761   0.142 -0.1221  0.6699 -0.2587
 5955SOL    HW118708   2.457   0.829   0.205  1.7176  0.4028  0.9083
 5955SOL    HW218709   2.571   0.789   0.113  1.4801 -1.9396  1.5529
 5956SOL     OW18710   2.618   5.661   3.673 -0.3224 -0.2449 -0.0190
 5956SOL    HW118711   2.560   5.586   3.683 -0.3816 -0.1106  0.7202
 5956SOL    HW218712   2.589   5.703   3.592  1.1462 -2.2470 -1.7193
 5957SOL     OW18713   7.997   4.792   2.874 -0.7794 -0.3472 -0.0259
 5957SOL    HW118714   7.956   4.869   2.834 -1.3041 -0.7690 -0.3081
 5957SOL    HW218715   8.087   4.819   2.891 -0.8428  0.1892 -0.5182
 5958SOL     OW18716   6.467   5.780   1.025 -0.1223  0.0972  0.1044
 5958SOL    HW118717   6.433   5.785   1.114 -0.4352  0.0130 -0.0099
 5958SOL    HW218718   6.389   5.770   0.970  0.1691 -2.0212 -0.0160
 5959SOL     OW18719   3.800   5.323   2.927 -0.3595 -0.3805 -0.0723
 5959SOL    HW118720   3.747   5.247   2.949 -0.5738  0.0790  1.1089
 5959SOL    HW218721   3.886   5.287   2.903 -0.7507 -1.0401 -0.4846
 5960SOL     OW18722   6.198   7.587   3.505  0.2139 -0.5050 -0.0667
 5960SOL    HW118723   6.177   7.494   3.511  0.6292 -0.5812  0.2937
 5960SOL    HW218724   6.230   7.600   3.416  1.1848 -0.9328  0.2100
 5961SOL     OW18725   7.717   0.990   0.568 -0.6366  0.0408  0.0126
 5961SOL    HW118726   7.727   1.058   0.501  1.4820 -0.5969 -0.4013
 5961SOL    HW218727   7.635   1.012   0.612 -0.9313  1.8064 -1.2862
 5962SOL     OW18728   5.202   0.644   7.248  0.0521 -0.1650  0.5320
 5962SOL    HW118729   5.116   0.602   7.237  0.7332 -1.2870 -1.0036
 5962SOL    HW218730   5.253   0.581   7.299  0.8434 -0.9228 -1.1219
 5963SOL     OW18731   2.942   6.658   3.202  0.7365 -0.0252  0.2849
 5963SOL    HW118732   2.985   6.723   3.146  0.9431 -0.0860  0.3693
 5963SOL    HW218733   3.004   6.646   3.275  0.0448  0.7609  1.0216
 5964SOL     OW18734   2.249   3.596   3.103 -0.0591  0.3494  0.3401
 5964SOL    HW118735   2.282   3.570   3.189 -1.4103 -1.6008  0.3277
 5964SOL    HW218736   2.211   3.682   3.117 -1.2930 -0.4084  2.0083
 5965SOL     OW18737   3.235   4.930   3.050 -0.0956 -0.1419  0.3127
 5965SOL    HW118738   3.190   4.857   3.009 -2.1922  1.1385  0.1524
 5965SOL    HW218739   3.197   5.008   3.008  0.5981  1.0756  1.8458
 5966SOL     OW18740   7.821   7.662   2.220 -0.4989  0.5612  0.4580
 5966SOL    HW118741   7.892   7.717   2.253  1.7184  0.6241 -3.7606
 5966SOL    HW218742   7.788   7.708   2.144 -0.3882 -2.5873 -1.6891
 5967SOL     OW18743   7.431   5.494   2.058 -0.1787  0.1141  0.0116
 5967SOL    HW118744   7.439   5.403   2.088  1.4937  0.2675  0.1190
 5967SOL    HW218745   7.495   5.502   1.987 -1.5124  0.7638 -1.1702
 5968SOL     OW18746   3.756   3.167   4.565 -0.7878 -0.4407 -0.0615
 5968SOL    HW118747   3.835   3.147   4.615 -0.6279  0.7599  0.1790
 5968SOL    HW218748   3.784   3.163   4.473  0.1081  1.9923  0.0355
 5969SOL     OW18749   7.796   1.185   5.830  0.8995  0.0265 -0.3042
 5969SOL    HW118750   7.719   1.239   5.815  0.8033 -0.5396 -2.0655
 5969SOL    HW218751   7.865   1.227   5.780  1.3681 -0.3054  0.0538
 5970SOL     OW18752   2.077   1.303   7.495  0.3286  0.2499 -0.2996
 5970SOL    HW118753   2.005   1.243   7.481 -2.2665  3.0919 -0.2266
 5970SOL    HW218754   2.042   1.369   7.554  2.9339  1.8801 -0.4169
 5971SOL     OW18755   6.147   7.189   4.838 -0.3406 -0.0443 -0.2449
 5971SOL    HW118756   6.076   7.173   4.776  1.1084 -0.2616 -1.9346
 5971SOL    HW218757   6.186   7.103   4.853  0.0626  0.1865  0.0343
 5972SOL     OW18758   7.810   6.084   3.035 -0.3914 -0.3359  0.8276
 5972SOL    HW118759   7.794   6.097   2.942 -2.7083  1.6725  1.4196
 5972SOL    HW218760   7.896   6.124   3.050  0.3356 -1.2999 -0.5072
 5973SOL     OW18761   3.067   7.064   2.274 -0.5880 -0.5482  0.1155
 5973SOL    HW118762   3.001   7.034   2.336 -0.4868  0.5240  0.7671
 5973SOL    HW218763   3.021   7.067   2.190 -0.9581 -1.2126  0.2895
 5974SOL     OW18764   2.085   6.269   1.888 -0.3212 -0.4025 -0.1422
 5974SOL    HW118765   2.010   6.293   1.942 -1.3461 -0.7545 -1.3716
 5974SOL    HW218766   2.057   6.286   1.798  0.7054 -1.4919 -0.6993
 5975SOL     OW18767   7.835   7.453   2.995 -0.1252  0.5986  0.1168
 5975SOL    HW118768   7.767   7.518   2.977  0.0219  0.5954 -0.4897
 5975SOL    HW218769   7.915   7.504   3.005 -0.1296  0.5643  0.3300
 5976SOL     OW18770   1.774   7.100   3.024 -0.3824  0.1400  0.4965
 5976SOL    HW118771   1.695   7.049   3.040 -0.4664 -0.3559 -1.3013
 5976SOL    HW218772   1.816   7.108   3.110 -1.5491 -0.9811  1.1899
 5977SOL     OW18773   6.478   3.584   5.290  0.2953 -0.3085  0.1052
 5977SOL    HW118774   6.465   3.490   5.306 -0.6537 -0.4350 -1.1693
 5977SOL    HW218775   6.511   3.619   5.373 -0.5111 -1.5543  0.9887
 5978SOL     OW18776   0.452   1.968   2.973 -0.0022 -0.1235 -0.3525
 5978SOL    HW118777   0.448   1.874   2.990 -0.3881  0.0533  0.6419
 5978SOL    HW218778   0.367   1.989   2.934  0.4443 -0.3319 -1.4863
 5979SOL     OW18779   6.823   2.597   1.930 -0.4317 -0.3932  0.2082
 5979SOL    HW118780   6.770   2.651   1.990  0.1118  0.1978  0.1695
 5979SOL    HW218781   6.844   2.656   1.858  0.3760 -0.5880  0.2818
 5980SOL     OW18782   7.569   1.590   7.024  0.2492 -0.1754 -0.3009
 5980SOL    HW118783   7.573   1.680   7.056 -0.2114  0.6960 -2.5324
 5980SOL    HW218784   7.596   1.596   6.932 -1.4702 -2.0510 -0.9966
 5981SOL     OW18785   1.061   0.067   2.967 -0.4209 -0.2426  0.1256
 5981SOL    HW118786   1.039  -0.022   2.940 -1.9175  0.6415 -1.7962
 5981SOL    HW218787   1.005   0.083   3.044 -2.1792 -0.1096 -1.1105
 5982SOL     OW18788   0.415   0.687   4.905  0.4893  0.1250 -0.0060
 5982SOL    HW118789   0.378   0.714   4.820 -0.2353 -0.7967  0.0103
 5982SOL    HW218790   0.413   0.767   4.958 -0.4628  0.3560 -0.3695
 5983SOL     OW18791   2.227   5.926   0.278 -0.2427 -0.3181  0.4595
 5983SOL    HW118792   2.317   5.958   0.289  0.3714 -1.9322  0.4535
 5983SOL    HW218793   2.212   5.929   0.183 -0.5801  0.9018  0.5409
 5984SOL     OW18794   0.033   8.219   2.616  0.0654 -0.7634  0.6453
 5984SOL    HW118795   0.112   8.258   2.578  0.5313 -0.0189  2.2634
 5984SOL    HW218796  -0.013   8.180   2.542 -0.3189  2.6428 -1.0959
 5985SOL     OW18797   3.734   7.502   2.633 -0.4127 -0.4732 -0.1796
 5985SOL    HW118798   3.739   7.435   2.701  1.6863  1.2711  1.5396
 5985SOL    HW218799   3.813   7.554   2.646 -1.3198  1.5482 -2.2679
 5986SOL     OW18800   8.064   5.068   3.794 -0.0413 -0.0094  0.7509
 5986SOL    HW118801   8.057   5.146   3.738  3.2463  0.0490  0.2457
 5986SOL    HW218802   7.985   5.018   3.774 -1.2517  2.1859 -0.4479
 5987SOL     OW18803   7.864   2.439   3.592 -0.8316  0.2721  0.2068
 5987SOL    HW118804   7.797   2.376   3.615 -1.3908  0.2361 -1.3822
 5987SOL    HW218805   7.822   2.498   3.529 -0.2310  2.0385  1.3711
 5988SOL     OW18806   2.820   2.846   5.858 -0.5217 -0.4987  0.9219
 5988SOL    HW118807   2.742   2.900   5.871 -0.4160 -0.4331  1.3219
 5988SOL    HW218808   2.874   2.864   5.935  0.3205  0.2012  0.1922
 5989SOL     OW18809   3.893   0.026   2.638 -0.1944 -0.7575 -0.5929
 5989SOL    HW118810   3.948   0.035   2.561  0.4161 -0.1897 -0.1000
 5989SOL    HW218811   3.812   0.071   2.616  0.0676 -0.3990 -0.8211
 5990SOL     OW18812   1.183   3.413   5.780  0.3704 -0.0929 -0.0235
 5990SOL    HW118813   1.166   3.471   5.854 -0.0588 -1.9577  1.3911
 5990SOL    HW218814   1.278   3.406   5.776  0.3932 -0.0279  0.3936
 5991SOL     OW18815   7.287   2.102   6.624 -0.5097  0.5218 -1.0498
 5991SOL    HW118816   7.292   2.122   6.717 -1.6482 -1.5410 -0.4807
 5991SOL    HW218817   7.378   2.095   6.595 -0.1476  0.2297  0.1246
 5992SOL     OW18818   1.020   5.391   3.652 -0.3871 -0.0363 -0.1507
 5992SOL    HW118819   0.984   5.479   3.665  0.5693  0.4658 -0.8125
 5992SOL    HW218820   0.961   5.334   3.702 -3.2892  0.4561 -2.6886
 5993SOL     OW18821   5.233   2.664   0.364  0.5591  0.4735 -0.4766
 5993SOL    HW118822   5.175   2.647   0.290  0.4770  0.7351 -0.4751
 5993SOL    HW218823   5.203   2.605   0.433 -1.7505  2.7059  0.6111
 5994SOL     OW18824   5.155   8.158   7.763 -0.5768 -0.3174 -0.2238
 5994SOL    HW118825   5.116   8.222   7.821  0.6569  0.1368  0.1310
 5994SOL    HW218826   5.110   8.076   7.784  0.5683 -0.4074  2.1559
 5995SOL     OW18827   2.321   7.140   5.913 -0.0581  0.3842 -0.3381
 5995SOL    HW118828   2.281   7.212   5.865 -0.3346  1.1182  0.9458
 5995SOL    HW218829   2.342   7.177   5.999  1.5823 -0.5319 -0.3117
 5996SOL     OW18830   1.629   7.216   0.438  0.8212 -0.3052 -0.2020
 5996SOL    HW118831   1.661   7.297   0.396  0.7008  1.3665  2.7114
 5996SOL    HW218832   1.534   7.220   0.430  0.7338  0.5211  0.9933
 5997SOL     OW18833   1.655   6.369   4.642  0.0669 -0.0594  0.3655
 5997SOL    HW118834   1.670   6.459   4.612  0.4212 -0.3961 -0.5066
 5997SOL    HW218835   1.692   6.315   4.573 -0.0523 -0.8810  0.9369
 5998SOL     OW18836   4.722   7.805   6.747  0.2451 -0.0638  0.3027
 5998SOL    HW118837   4.793   7.757   6.790  0.0412 -1.6549 -1.0053
 5998SOL    HW218838   4.709   7.758   6.664 -2.6531 -0.1130  0.6931
 5999SOL     OW18839   1.464   2.301   2.424 -0.1645 -0.7116 -0.1372
 5999SOL    HW118840   1.528   2.346   2.368  1.0939 -1.5332  0.5822
 5999SOL    HW218841   1.403   2.261   2.362 -0.0483  0.1581 -0.8485
 6000SOL     OW18842   4.817   0.625   0.117 -0.4297  0.0161 -0.5822
 6000SOL    HW118843   4.866   0.543   0.128  0.0611  0.4250  0.3952
 6000SOL    HW218844   4.729   0.604   0.146 -0.7289 -0.5793 -1.8385
 6001SOL     OW18845   6.085   0.576   4.122 -0.1826 -0.0800 -0.0915
 6001SOL    HW118846   6.162   0.596   4.176 -1.5414 -1.0463  2.3728
 6001SOL    HW218847   6.094   0.632   4.046  1.2309  2.3981  1.7491
 6002SOL     OW18848   2.830   5.478   7.667  0.3405 -0.2220 -0.2201
 6002SOL    HW118849   2.894   5.459   7.598  0.1535 -0.0681 -0.4390
 6002SOL    HW218850   2.829   5.573   7.673  0.1228 -0.2226 -0.2295
 6003SOL     OW18851   0.577   6.069   1.004  0.6115 -0.4466  0.2595
 6003SOL    HW118852   0.585   6.163   0.986  2.7203 -0.7635 -0.8439
 6003SOL    HW218853   0.488   6.058   1.037  0.3966  1.9682  0.6639
 6004SOL     OW18854   6.758   7.344   1.406  0.0870  0.0717  0.0158
 6004SOL    HW118855   6.731   7.328   1.497  1.0360  0.5045  0.3911
 6004SOL    HW218856   6.768   7.439   1.401 -1.1089  0.1655 -0.8938
 6005SOL     OW18857   2.756   5.959   3.607 -0.4074 -0.1717 -0.5698
 6005SOL    HW118858   2.850   5.967   3.621 -0.2260 -1.4750 -0.9099
 6005SOL    HW218859   2.727   5.894   3.670 -1.2667  0.8859  0.1649
 6006SOL     OW18860   7.296   4.276   4.505  0.9774  0.6821 -0.1081
 6006SOL    HW118861   7.277   4.226   4.584  0.2838  1.0363 -0.0431
 6006SOL    HW218862   7.234   4.349   4.507  0.1186  0.0404 -1.5721
 6007SOL     OW18863   3.305   7.572   4.605  0.4193  0.8068  0.3282
 6007SOL    HW118864   3.229   7.555   4.661  0.7028  0.3879  0.5896
 6007SOL    HW218865   3.376   7.590   4.666  0.7874  0.1180  0.1181
 6008SOL     OW18866   0.966   1.816   6.000 -0.4232 -0.3166  0.2278
 6008SOL    HW118867   0.983   1.748   5.935  1.2424 -0.9802  1.3102
 6008SOL    HW218868   0.934   1.891   5.949  0.6160 -0.8926 -1.3217
 6009SOL     OW18869   6.473   2.445   3.235 -0.3792  0.1309 -0.6849
 6009SOL    HW118870   6.525   2.364   3.230 -3.6941 -2.1799 -0.6481
 6009SOL    HW218871   6.460   2.470   3.144 -0.7869 -0.3912 -0.7744
 6010SOL     OW18872   7.216   6.175   4.030 -0.5217  0.1057 -0.6270
 6010SOL    HW118873   7.272   6.164   4.107 -0.5852 -1.0534 -0.7222
 6010SOL    HW218874   7.127   6.180   4.065 -0.3670  3.3278 -0.3561
 6011SOL     OW18875   3.817   2.412   7.561 -0.3618 -0.0466 -0.1900
 6011SOL    HW118876   3.828   2.478   7.493  0.1067  1.0676  0.9294
 6011SOL    HW218877   3.729   2.428   7.596  0.1809  0.7860  0.8640
 6012SOL     OW18878   2.082   7.398   6.196  0.7013  0.7526  0.2140
 6012SOL    HW118879   2.124   7.318   6.228 -0.3448 -0.1400 -0.5786
 6012SOL    HW218880   2.013   7.367   6.137 -0.4652  2.1918  0.7597
 6013SOL     OW18881   3.597   2.938   1.924 -0.4273 -0.0831 -0.1471
 6013SOL    HW118882   3.643   2.989   1.857 -1.9543  2.7151  0.7733
 6013SOL    HW218883   3.664   2.917   1.989  0.2825  0.7481 -0.5911
 6014SOL     OW18884   1.981   0.986   5.700 -0.6157 -0.1493 -0.1068
 6014SOL    HW118885   1.951   0.924   5.767 -1.5472 -1.2377 -1.4760
 6014SOL    HW218886   2.016   0.931   5.631  0.7470  0.9764 -0.3459
 6015SOL     OW18887   1.358   1.262   7.830 -0.2020 -0.0299  0.1225
 6015SOL    HW118888   1.453   1.256   7.830 -0.1562 -0.2965 -2.7829
 6015SOL    HW218889   1.338   1.320   7.904  2.0998 -0.8551  1.4819
 6016SOL     OW18890   3.627   7.666   3.804  0.0898  0.4204 -0.2436
 6016SOL    HW118891   3.644   7.743   3.750 -0.3998 -0.3736 -1.5719
 6016SOL    HW218892   3.549   7.627   3.766  0.0615 -0.4826  0.7026
 6017SOL     OW18893   5.577   1.427   2.316  0.0848  0.2485 -0.1887
 6017SOL    HW118894   5.627   1.351   2.287  0.5258  0.8028 -0.9043
 6017SOL    HW218895   5.485   1.400   2.307  0.2295  0.0908 -1.2333
 6018SOL     OW18896   4.484   8.025   5.044 -0.3699 -0.1134 -0.3482
 6018SOL    HW118897   4.527   8.067   4.970  0.5914  0.1787  0.3525
 6018SOL    HW218898   4.534   7.945   5.060 -1.0602 -0.5917 -0.5075
 6019SOL     OW18899   4.325   4.130   2.887 -0.1000  0.5063  0.4231
 6019SOL    HW118900   4.275   4.129   2.806  0.5479 -1.4293  0.0065
 6019SOL    HW218901   4.261   4.152   2.955 -1.0666  0.1928 -0.3700
 6020SOL     OW18902   4.840   1.511   5.470 -0.4733 -0.8817  0.5215
 6020SOL    HW118903   4.804   1.597   5.491 -0.6786 -1.0155  0.7176
 6020SOL    HW218904   4.770   1.449   5.492 -0.9743 -0.9865 -1.1994
 6021SOL     OW18905   3.067   6.847   3.043 -0.3418 -0.0078  0.1149
 6021SOL    HW118906   3.105   6.894   2.969 -0.4580  1.2093  0.8165
 6021SOL    HW218907   3.131   6.856   3.113 -0.7646 -0.1334  0.5244
 6022SOL     OW18908   5.486   5.835   3.909  0.3817  0.4983 -0.3160
 6022SOL    HW118909   5.480   5.836   3.814  0.5273 -0.1491 -0.3336
 6022SOL    HW218910   5.469   5.744   3.934  3.1279  0.0099  0.0866
 6023SOL     OW18911   6.439   1.136   2.023 -0.0872  0.5051 -0.4122
 6023SOL    HW118912   6.472   1.217   1.985  0.2378  0.3103 -0.5441
 6023SOL    HW218913   6.486   1.126   2.105 -1.1627  1.1967  0.3125
 6024SOL     OW18914   3.548   6.182   8.139 -0.0018  0.2348  0.4683
 6024SOL    HW118915   3.556   6.089   8.117  0.4011  0.2636  0.4722
 6024SOL    HW218916   3.507   6.183   8.225 -2.7120  0.1532 -0.7185
 6025SOL     OW18917   6.791   1.979   0.879 -0.3898  0.5664 -0.1081
 6025SOL    HW118918   6.740   2.060   0.873 -1.4650 -0.1345 -0.5850
 6025SOL    HW218919   6.882   2.008   0.867 -0.7930  1.6505 -0.7127
 6026SOL     OW18920   3.157   0.956   4.321  0.4804  0.0261 -0.6133
 6026SOL    HW118921   3.079   0.969   4.376  0.0759 -0.9382 -0.9389
 6026SOL    HW218922   3.228   0.944   4.384 -0.0843 -1.7128 -0.2380
 6027SOL     OW18923   5.767   0.377   3.471  0.7608 -0.0875  0.0461
 6027SOL    HW118924   5.837   0.344   3.415  0.2033  0.5529 -1.0576
 6027SOL    HW218925   5.712   0.428   3.413 -1.0904 -1.2315  0.7017
 6028SOL     OW18926   2.610   6.810   2.535  0.2386 -0.1321  0.4403
 6028SOL    HW118927   2.610   6.884   2.595  0.5700 -0.4642  0.8552
 6028SOL    HW218928   2.563   6.842   2.458  1.2727  0.8533  0.1824
 6029SOL     OW18929   4.985   2.395   0.104  0.4544 -0.4884 -0.0228
 6029SOL    HW118930   4.893   2.385   0.078  0.1228  0.7852  0.5649
 6029SOL    HW218931   4.988   2.480   0.148  1.7898 -0.8021  0.5414
 6030SOL     OW18932   0.585   3.943   4.164 -0.4885 -0.4782 -0.3013
 6030SOL    HW118933   0.546   3.857   4.153 -0.4418 -0.6735  0.9168
 6030SOL    HW218934   0.512   3.999   4.190 -0.0901 -0.7311  1.4719
 6031SOL     OW18935   0.533   2.082   7.827  0.1179 -0.3935 -0.7026
 6031SOL    HW118936   0.557   2.106   7.917 -0.5988 -0.9069 -0.3627
 6031SOL    HW218937   0.486   1.999   7.836 -1.9050  0.6132 -1.2747
 6032SOL     OW18938   7.121   6.371   7.224 -0.2483 -0.7065 -0.8339
 6032SOL    HW118939   7.122   6.330   7.310 -1.3142 -0.9189 -0.9186
 6032SOL    HW218940   7.040   6.342   7.183 -1.0370  1.4352 -0.9215
 6033SOL     OW18941   1.884   0.251   1.778  0.0582  0.1496  0.0533
 6033SOL    HW118942   1.887   0.207   1.864  1.4401 -2.2533 -1.1100
 6033SOL    HW218943   1.793   0.245   1.751  0.0880 -1.5184  0.2279
 6034SOL     OW18944   3.334   6.369   0.826  0.1170 -0.0192 -0.3829
 6034SOL    HW118945   3.314   6.437   0.761 -0.6668  1.2851  1.1725
 6034SOL    HW218946   3.297   6.401   0.908  0.0214 -2.1866  0.4979
 6035SOL     OW18947   3.952   3.567   5.670 -0.2545 -0.3337 -0.2879
 6035SOL    HW118948   3.866   3.581   5.630  0.1627 -0.6375 -1.3384
 6035SOL    HW218949   3.959   3.634   5.737 -1.9589 -1.2995  0.9149
 6036SOL     OW18950   1.552   6.153   6.607 -0.5940 -0.1231  0.4439
 6036SOL    HW118951   1.581   6.244   6.609 -0.1875 -0.2533  0.4218
 6036SOL    HW218952   1.467   6.156   6.561 -0.5818  0.2414  0.4460
 6037SOL     OW18953   3.704   1.190   0.150  0.2240 -0.3117 -0.0289
 6037SOL    HW118954   3.636   1.250   0.178 -0.1656  0.1924 -1.9546
 6037SOL    HW218955   3.658   1.122   0.100  0.8635 -1.2899  0.6670
 6038SOL     OW18956   2.340   2.596   5.107 -0.3363  0.6582 -0.4692
 6038SOL    HW118957   2.403   2.529   5.080  0.9831  2.3048 -1.6893
 6038SOL    HW218958   2.374   2.630   5.190 -0.5232  0.4233 -0.2960
 6039SOL     OW18959   7.708   5.650   7.381  0.2654  0.4728 -0.5267
 6039SOL    HW118960   7.638   5.605   7.428 -1.1579  2.0199 -1.0851
 6039SOL    HW218961   7.787   5.629   7.431 -0.8839  0.3454  1.3337
 6040SOL     OW18962   6.331   2.285   2.115 -0.2979 -0.1407 -0.1428
 6040SOL    HW118963   6.383   2.312   2.038 -1.2897  0.9965 -0.4572
 6040SOL    HW218964   6.341   2.190   2.119  0.5761 -0.1098 -1.0963
 6041SOL     OW18965   6.595   0.965   1.767 -0.1367 -0.2299  0.2421
 6041SOL    HW118966   6.679   0.993   1.731 -0.4460 -2.2192 -2.2404
 6041SOL    HW218967   6.533   1.034   1.741  0.4920  0.8236  1.3806
 6042SOL     OW18968   4.547   1.589   1.920 -0.1969 -0.1016 -0.0656
 6042SOL    HW118969   4.609   1.527   1.958 -1.9227 -2.5772 -1.0452
 6042SOL    HW218970   4.586   1.616   1.837  0.1138 -0.6982 -0.1152
 6043SOL     OW18971   5.398   1.854   0.879  0.1279 -0.1742  0.1001
 6043SOL    HW118972   5.401   1.874   0.785 -0.3399 -0.4169  0.0340
 6043SOL    HW218973   5.470   1.792   0.892  0.8038  0.5950  0.0806
 6044SOL     OW18974   4.293   3.713   7.980 -0.1334  0.3393 -0.0007
 6044SOL    HW118975   4.256   3.727   7.893 -0.4587 -1.5283 -0.1959
 6044SOL    HW218976   4.388   3.710   7.965 -0.1266  1.0252 -0.1241
 6045SOL     OW18977   5.318   0.075   1.784  0.9682  0.0846 -0.6703
 6045SOL    HW118978   5.333   0.168   1.769  0.8377  0.0818 -0.8175
 6045SOL    HW218979   5.382   0.051   1.851 -0.6533  0.8582  1.2619
 6046SOL     OW18980   7.052   0.197   7.057 -0.0433 -0.3076  0.1610
 6046SOL    HW118981   7.090   0.271   7.105 -0.4327  0.1800 -0.2704
 6046SOL    HW218982   7.000   0.151   7.122  0.0334 -0.0796  0.3877
 6047SOL     OW18983   3.538   7.375   0.917 -0.3268 -0.4949 -0.4083
 6047SOL    HW118984   3.544   7.336   1.005  0.3982 -0.6945 -0.5450
 6047SOL    HW218985   3.480   7.451   0.929 -0.0821 -0.4073  0.2821
 6048SOL     OW18986   4.106   1.144   0.028 -0.4265  0.3773 -0.1910
 6048SOL    HW118987   4.098   1.175   0.118 -0.2814 -1.1882  0.3884
 6048SOL    HW218988   4.058   1.061   0.027 -1.0948  0.7381 -1.7636
 6049SOL     OW18989   2.586   5.956   7.791 -0.2739  0.3462 -0.3139
 6049SOL    HW118990   2.514   5.894   7.805  0.4096 -0.0474  1.8445
 6049SOL    HW218991   2.628   5.963   7.877  1.3653  1.7007 -1.1780
 6050SOL     OW18992   1.462   3.429   4.529 -0.4223 -0.0248  0.0956
 6050SOL    HW118993   1.537   3.370   4.529 -0.3139  0.0846 -1.1795
 6050SOL    HW218994   1.429   3.427   4.619  2.6487  1.8971  1.4224
 6051SOL     OW18995   1.660   0.542   6.590 -0.0456 -0.1119  0.0253
 6051SOL    HW118996   1.586   0.536   6.650 -0.2737 -1.8866 -0.3699
 6051SOL    HW218997   1.718   0.471   6.616 -0.0126 -0.7444 -1.6347
 6052SOL     OW18998   4.922   3.288   0.465 -0.5733  0.4421  0.3886
 6052SOL    HW118999   4.965   3.216   0.511  0.3345  0.4489 -0.4234
 6052SOL    HW219000   4.974   3.366   0.487  0.3930  0.3191 -1.2598
 6053SOL     OW19001   6.116   3.453   6.031  0.6490 -0.0899  0.1600
 6053SOL    HW119002   6.135   3.362   6.054  1.8923  0.5162  1.7232
 6053SOL    HW219003   6.145   3.461   5.940  1.8244 -0.9137  0.4365
 6054SOL     OW19004   1.419   5.836   5.443 -0.0578  0.7381  0.2359
 6054SOL    HW119005   1.361   5.800   5.510 -0.2109 -0.9203 -0.7532
 6054SOL    HW219006   1.362   5.848   5.366  0.7789 -0.4094 -0.5828
 6055SOL     OW19007   0.655   7.156   2.950 -0.2357 -0.3043 -0.2868
 6055SOL    HW119008   0.741   7.184   2.920  1.3954 -0.9848  3.2565
 6055SOL    HW219009   0.643   7.070   2.911  0.0544  0.3075 -1.8095
 6056SOL     OW19010   4.211   1.181   1.400  0.4921  0.1763  0.4609
 6056SOL    HW119011   4.147   1.113   1.421  3.1352 -2.0222  1.9072
 6056SOL    HW219012   4.193   1.251   1.462  1.6306 -1.9207  3.3323
 6057SOL     OW19013   7.935   7.974   3.489  0.0620 -0.0154  0.0163
 6057SOL    HW119014   8.019   8.018   3.478  0.4105 -0.2309  1.5734
 6057SOL    HW219015   7.896   8.016   3.565 -1.8278  0.9129 -1.3750
 6058SOL     OW19016   6.767   1.898   4.241 -0.0744  0.3761  0.0754
 6058SOL    HW119017   6.827   1.946   4.185 -0.6110  0.5965 -0.3252
 6058SOL    HW219018   6.686   1.892   4.190  0.0328 -1.1126  0.0410
 6059SOL     OW19019   0.283   5.962   3.946  0.0309  0.0355  0.0811
 6059SOL    HW119020   0.253   6.046   3.982 -2.4635 -0.1315 -1.3557
 6059SOL    HW219021   0.247   5.897   4.007 -0.8745 -0.0943 -0.5797
 6060SOL     OW19022   6.310   3.495   3.686 -0.0239  0.3449  0.2425
 6060SOL    HW119023   6.367   3.516   3.760  0.1730 -1.4465  0.6263
 6060SOL    HW219024   6.223   3.524   3.715 -0.2218 -1.6013  1.8160
 6061SOL     OW19025   2.749   0.366   6.451 -0.3701 -0.3029  0.0834
 6061SOL    HW119026   2.665   0.357   6.496  1.3031 -0.3727  3.5047
 6061SOL    HW219027   2.775   0.276   6.431  0.0569 -0.5156  1.4851
 6062SOL     OW19028   0.143   7.177   2.821  0.5326 -0.1472 -0.1295
 6062SOL    HW119029   0.216   7.222   2.865  1.4275 -0.4997 -1.2265
 6062SOL    HW219030   0.136   7.093   2.867  1.4672 -0.5160 -0.6309
 6063SOL     OW19031   2.873   7.325   4.163  0.0549  0.4977 -0.9688
 6063SOL    HW119032   2.811   7.376   4.216 -0.6022 -0.1436 -1.1078
 6063SOL    HW219033   2.835   7.325   4.075  0.1633 -0.0548 -1.0178
 6064SOL     OW19034   1.477   1.449   5.626 -0.0257 -0.3012 -0.4448
 6064SOL    HW119035   1.566   1.423   5.653  0.1419  0.6895  0.0262
 6064SOL    HW219036   1.451   1.514   5.692  1.6485  4.8151 -4.1850
 6065SOL     OW19037   5.797   7.497   5.408 -0.4079 -0.4036 -0.0390
 6065SOL    HW119038   5.796   7.570   5.470  1.1047 -1.5846  1.4805
 6065SOL    HW219039   5.706   7.469   5.401 -1.4340  2.8615 -2.3317
 6066SOL     OW19040   0.423   5.312   2.512 -0.1613  0.0629  0.3068
 6066SOL    HW119041   0.403   5.220   2.495 -0.9038  0.2006  0.4152
 6066SOL    HW219042   0.498   5.331   2.455  0.3928 -0.7656  0.7293
 6067SOL     OW19043   2.232   7.659   5.313 -0.6814  0.4419 -0.9539
 6067SOL    HW119044   2.205   7.585   5.258  0.0448 -0.5533 -0.0267
 6067SOL    HW219045   2.287   7.619   5.380 -0.1008  1.8753 -0.5493
 6068SOL     OW19046   7.867   1.042   6.725 -0.3240  0.1684  0.0143
 6068SOL    HW119047   7.939   0.987   6.695 -1.6171 -1.6111  0.0126
 6068SOL    HW219048   7.788   0.993   6.702 -1.4751  0.6555  2.5903
 6069SOL     OW19049   0.976   5.240   5.158 -0.5609 -0.2842  0.2792
 6069SOL    HW119050   1.046   5.180   5.130  0.6631  1.3395 -0.3006
 6069SOL    HW219051   0.900   5.183   5.169  0.4620 -1.9082 -0.4979
 6070SOL     OW19052   4.643   0.737   6.304 -0.2349  0.2066  0.1677
 6070SOL    HW119053   4.671   0.646   6.295 -0.1318  0.2013  0.5341
 6070SOL    HW219054   4.594   0.755   6.224  0.3114  0.0338 -0.2135
 6071SOL     OW19055   5.956   5.985   5.189 -0.2005 -0.0714 -0.4516
 6071SOL    HW119056   6.027   5.924   5.207 -0.2052  0.5372  1.8921
 6071SOL    HW219057   5.879   5.947   5.232 -0.2805  1.3524  0.7441
 6072SOL     OW19058   7.700   2.882   3.440 -0.1401  0.7346  0.0357
 6072SOL    HW119059   7.763   2.876   3.512 -0.8634  1.0877  0.7165
 6072SOL    HW219060   7.625   2.926   3.478 -1.2209 -0.5893 -0.4639
 6073SOL     OW19061   5.354   4.823   3.399 -0.7544 -0.0459  0.1583
 6073SOL    HW119062   5.368   4.735   3.433 -0.7192  0.4085  1.3465
 6073SOL    HW219063   5.334   4.809   3.306 -2.0799 -1.4093  0.6027
 6074SOL     OW19064   2.488   2.685   8.123  0.3215  0.4980 -0.1540
 6074SOL    HW119065   2.425   2.635   8.175 -1.6495  3.0113  0.0268
 6074SOL    HW219066   2.455   2.680   8.033  1.0561  0.1359 -0.4149
 6075SOL     OW19067   0.086   6.320   0.313  0.4152  0.3381  0.6628
 6075SOL    HW119068   0.155   6.318   0.379  0.3982  1.2510  0.7221
 6075SOL    HW219069   0.132   6.329   0.230  0.3742  1.1332  0.7170
 6076SOL     OW19070   2.445   2.634   4.276  0.4660 -0.6872 -0.4657
 6076SOL    HW119071   2.372   2.654   4.334  1.2959 -0.3511  0.4809
 6076SOL    HW219072   2.420   2.551   4.234  0.3567 -1.5802  1.2627
 6077SOL     OW19073   2.767   5.674   3.121  0.3390  0.2680  0.2587
 6077SOL    HW119074   2.777   5.720   3.037  0.0920 -0.7106 -0.3229
 6077SOL    HW219075   2.680   5.634   3.116  0.9358 -1.0950  0.3142
 6078SOL     OW19076   5.221   7.588   6.759  0.2792 -0.8163 -0.9894
 6078SOL    HW119077   5.136   7.578   6.717  0.0187 -0.4620 -0.5620
 6078SOL    HW219078   5.284   7.554   6.695 -0.2455 -1.8683 -0.9715
 6079SOL     OW19079   5.441   2.821   0.500  0.0271  0.1824 -0.2017
 6079SOL    HW119080   5.381   2.758   0.460  0.8756 -0.4005 -0.5839
 6079SOL    HW219081   5.413   2.826   0.591  0.3917 -1.3177  0.0201
 6080SOL     OW19082   6.442   5.754   5.080 -0.4037  0.2940 -0.6323
 6080SOL    HW119083   6.439   5.826   5.017  1.3966  0.0291 -1.0877
 6080SOL    HW219084   6.534   5.749   5.106 -0.7680 -0.8656  0.5655
 6081SOL     OW19085   8.207   5.356   0.694  0.0294  0.1527  0.3407
 6081SOL    HW119086   8.143   5.427   0.680  0.2760  0.0711 -1.3963
 6081SOL    HW219087   8.156   5.286   0.734 -0.5220  0.8015  0.8083
 6082SOL     OW19088   6.333   6.398   5.296  0.2558  0.0292 -0.7655
 6082SOL    HW119089   6.376   6.441   5.370 -2.9330 -1.8951  2.5732
 6082SOL    HW219090   6.399   6.338   5.261  1.9344  1.1418  0.3412
 6083SOL     OW19091   2.332   4.032   2.618  0.1878 -0.3158 -0.1108
 6083SOL    HW119092   2.273   3.998   2.551 -0.3323 -0.2151  0.2837
 6083SOL    HW219093   2.358   4.118   2.586  0.4762 -0.5496 -0.5015
 6084SOL     OW19094   1.943   4.938   5.160  0.0742  0.2463 -0.0102
 6084SOL    HW119095   1.881   5.003   5.193 -1.5201 -0.4126 -1.5021
 6084SOL    HW219096   1.950   4.957   5.067  0.4134 -1.0431 -0.2705
 6085SOL     OW19097   0.176   1.385   3.951  0.3344  0.1431 -0.3227
 6085SOL    HW119098   0.110   1.330   3.993  1.3759 -0.5743  0.4470
 6085SOL    HW219099   0.172   1.468   3.999 -0.1780  0.1930 -0.4518
 6086SOL     OW19100   1.061   2.023   6.474  0.4548  0.1294  0.3226
 6086SOL    HW119101   1.028   1.947   6.427  1.4425 -0.3971  0.4610
 6086SOL    HW219102   1.015   2.098   6.435  1.2244 -0.2855 -1.4554
 6087SOL     OW19103   8.176   7.313   5.555 -0.4389  0.0300  0.1361
 6087SOL    HW119104   8.209   7.349   5.473 -0.5952  0.0892  0.1003
 6087SOL    HW219105   8.210   7.372   5.623 -0.4927  0.1047  0.0975
 6088SOL     OW19106   0.366   0.121   3.629 -0.5435  0.4155 -0.1198
 6088SOL    HW119107   0.451   0.154   3.602 -0.4703 -0.7539 -1.4276
 6088SOL    HW219108   0.386   0.041   3.679 -0.8744 -0.4093 -1.2563
 6089SOL     OW19109   7.045   3.810   6.450 -0.3914 -0.3811  0.0010
 6089SOL    HW119110   6.985   3.780   6.518 -1.8629  0.7517 -0.7305
 6089SOL    HW219111   7.071   3.898   6.477  1.4992 -1.0854  0.6253
 6090SOL     OW19112   3.757   6.798   2.450 -0.2974  0.0498  0.2214
 6090SOL    HW119113   3.733   6.858   2.379 -2.4093  0.6715  1.3561
 6090SOL    HW219114   3.769   6.855   2.526  0.8845 -0.6990  0.6137
 6091SOL     OW19115   6.709   7.273   1.146 -0.2454  0.8798  0.1337
 6091SOL    HW119116   6.740   7.285   1.235 -1.8319  0.8450  0.7220
 6091SOL    HW219117   6.655   7.194   1.149 -0.5167  1.0054 -0.8022
 6092SOL     OW19118   7.630   3.541   4.696  0.1621  1.3036  0.5239
 6092SOL    HW119119   7.630   3.461   4.643  0.4756  1.3881  0.3878
 6092SOL    HW219120   7.591   3.607   4.639 -0.6841  1.1123  0.8637
 6093SOL     OW19121   4.360   7.122   1.695  0.3200  0.4123 -0.2562
 6093SOL    HW119122   4.338   7.167   1.614  0.8182  1.9031  0.4093
 6093SOL    HW219123   4.455   7.106   1.689  0.1526 -0.5559 -0.4797
 6094SOL     OW19124   5.878   4.334   7.866  0.1556 -0.2377 -0.1964
 6094SOL    HW119125   5.874   4.353   7.772 -0.2978 -0.9676 -0.3380
 6094SOL    HW219126   5.883   4.238   7.870 -0.8792 -0.2698  0.5421
 6095SOL     OW19127   5.549   6.939   0.692  0.2191 -0.0341  0.2091
 6095SOL    HW119128   5.550   7.019   0.639 -0.0246 -0.2838 -0.1760
 6095SOL    HW219129   5.456   6.919   0.705  0.2648  0.3299  1.2075
 6096SOL     OW19130   6.344   2.291   6.631  0.3108  0.4213 -0.4045
 6096SOL    HW119131   6.351   2.309   6.537 -0.7687 -1.6675 -0.9520
 6096SOL    HW219132   6.283   2.356   6.664 -1.6788 -0.6218 -1.8058
 6097SOL     OW19133   7.994   3.356   0.050  0.2043  0.4398 -0.6325
 6097SOL    HW119134   8.045   3.332  -0.027 -0.2715 -0.4823 -0.6777
 6097SOL    HW219135   8.010   3.284   0.112 -1.6181 -0.2807 -0.9366
 6098SOL     OW19136   1.819   6.603   1.960  0.2206 -0.6624 -0.4369
 6098SOL    HW119137   1.835   6.623   1.867  1.4972 -1.4861 -0.4326
 6098SOL    HW219138   1.905   6.616   2.001 -0.4899  0.3443  0.7696
 6099SOL     OW19139   3.278   6.718   7.946 -0.3432 -0.2965  0.6416
 6099SOL    HW119140   3.225   6.681   8.017  0.2903 -1.9779  0.2950
 6099SOL    HW219141   3.369   6.704   7.975 -0.0816 -0.6367 -0.3093
 6100SOL     OW19142   1.331   2.801   1.116 -0.4281 -0.2552  0.0201
 6100SOL    HW119143   1.352   2.887   1.151  0.3559 -1.1026  1.7323
 6100SOL    HW219144   1.236   2.796   1.119 -0.5269  0.7795 -0.7483
 6101SOL     OW19145   0.130   0.766   0.969 -0.3395 -0.0883 -0.1131
 6101SOL    HW119146   0.100   0.698   1.029 -1.4772  0.4174 -0.0795
 6101SOL    HW219147   0.140   0.844   1.023 -0.8640  0.2391 -0.4767
 6102SOL     OW19148   1.307   4.908   1.957 -0.1848 -0.1808  0.0328
 6102SOL    HW119149   1.219   4.944   1.961  0.2866  0.9498  0.9459
 6102SOL    HW219150   1.355   4.967   1.899 -0.1939 -1.1982 -1.0330
 6103SOL     OW19151   0.060   3.473   5.618  0.6233 -0.4375 -0.1801
 6103SOL    HW119152   0.011   3.394   5.595 -1.4756  0.1547  1.8944
 6103SOL    HW219153  -0.006   3.542   5.625  2.1487  1.0968 -0.0461
 6104SOL     OW19154   4.233   4.819   3.614 -0.1100  0.3774 -0.2894
 6104SOL    HW119155   4.171   4.769   3.560 -1.1972  0.6997  0.6150
 6104SOL    HW219156   4.198   4.908   3.615  1.5357  1.0782 -1.4658
 6105SOL     OW19157   7.693   0.812   1.115 -0.2001 -0.7252 -0.3421
 6105SOL    HW119158   7.731   0.895   1.144  0.9988 -1.3557 -0.0504
 6105SOL    HW219159   7.628   0.791   1.182  0.1313 -0.4810  0.0616
 6106SOL     OW19160   3.311   2.055   5.509 -0.5296  0.0947  0.3739
 6106SOL    HW119161   3.389   2.062   5.564 -1.3238  0.0085  1.5716
 6106SOL    HW219162   3.333   2.102   5.429  0.1046  1.6951  1.4333
 6107SOL     OW19163   2.693   6.942   5.810  0.7198 -0.4431 -0.1826
 6107SOL    HW119164   2.722   7.033   5.816  0.4356 -0.1808 -2.0181
 6107SOL    HW219165   2.688   6.911   5.900  1.5266  1.1379  0.4274
 6108SOL     OW19166   6.809   3.800   5.728  0.8687 -0.3890 -0.7716
 6108SOL    HW119167   6.757   3.811   5.649 -0.7869  1.7603  0.5010
 6108SOL    HW219168   6.778   3.718   5.766  0.1866 -0.3847 -1.2967
 6109SOL     OW19169   5.341   1.944   0.179  0.3966 -0.1463 -0.4318
 6109SOL    HW119170   5.402   1.964   0.249 -0.4025  0.4813  0.1002
 6109SOL    HW219171   5.286   2.022   0.171  0.1535 -0.3975 -1.4230
 6110SOL     OW19172   3.738   2.610   4.647  0.6360 -0.2304 -0.1546
 6110SOL    HW119173   3.715   2.546   4.714  2.8744 -0.2450  0.6762
 6110SOL    HW219174   3.824   2.583   4.616  0.1542  0.4367 -2.2726
 6111SOL     OW19175   0.752   0.862   5.357 -0.6402 -0.3433  0.0883
 6111SOL    HW119176   0.826   0.865   5.296 -1.2918 -1.7986 -0.8448
 6111SOL    HW219177   0.724   0.953   5.365  0.9103  0.1722  0.0554
 6112SOL     OW19178   7.064   2.374   6.923  0.4700  0.4155  0.0063
 6112SOL    HW119179   7.017   2.454   6.946  1.6109  1.1594 -0.1580
 6112SOL    HW219180   7.142   2.376   6.979  0.0513 -1.0878  0.7047
 6113SOL     OW19181   7.214   6.902   5.377 -0.0164  0.3857 -0.8320
 6113SOL    HW119182   7.141   6.892   5.439  0.5232 -2.8775 -0.5357
 6113SOL    HW219183   7.172   6.926   5.294 -1.0169  2.0636  0.1026
 6114SOL     OW19184   3.364   0.909   4.089 -0.3268  0.3686 -0.4072
 6114SOL    HW119185   3.370   0.820   4.055  1.8376 -0.9528  2.8838
 6114SOL    HW219186   3.422   0.960   4.033  2.3637 -1.4829  0.4583
 6115SOL     OW19187   0.033   8.083   1.240 -0.2781 -0.1503 -0.8006
 6115SOL    HW119188   0.096   8.074   1.311  0.9163  0.6773 -1.7064
 6115SOL    HW219189  -0.005   7.996   1.230  2.5171 -1.3569 -1.7993
 6116SOL     OW19190   1.588   2.043   5.281  0.0645  0.5522 -0.1174
 6116SOL    HW119191   1.596   2.112   5.347  1.9910  1.1666 -0.9143
 6116SOL    HW219192   1.598   2.089   5.198 -1.7515 -0.2930 -0.8503
 6117SOL     OW19193   0.958   5.332   7.211  0.0154 -0.5404 -0.2030
 6117SOL    HW119194   1.024   5.336   7.280  0.4256  0.9123 -0.6466
 6117SOL    HW219195   0.923   5.244   7.217 -1.4057  0.0973  3.2035
 6118SOL     OW19196   3.184   8.011   6.704  0.3650 -0.3971 -0.5464
 6118SOL    HW119197   3.171   7.985   6.796 -0.4118 -0.5036 -0.6846
 6118SOL    HW219198   3.274   7.985   6.685  0.5575 -0.3124  0.2077
 6119SOL     OW19199   1.991   1.662   3.454  0.5831  0.4910 -0.2515
 6119SOL    HW119200   1.931   1.590   3.432 -0.3068  0.4848  1.9908
 6119SOL    HW219201   1.936   1.740   3.454  0.7265  0.6085  0.9777
 6120SOL     OW19202   2.699   1.824   1.530 -0.6588  0.1966 -0.1949
 6120SOL    HW119203   2.624   1.764   1.539  1.0579 -1.8157  2.4853
 6120SOL    HW219204   2.665   1.909   1.558 -2.4020 -0.1984 -0.9740
 6121SOL     OW19205   4.179   0.445   0.105  0.2700  0.1474 -0.0876
 6121SOL    HW119206   4.223   0.466   0.022 -0.3772  0.0241 -0.4691
 6121SOL    HW219207   4.239   0.384   0.149  1.3710  1.4233  0.2649
 6122SOL     OW19208   2.425   4.559   7.822 -0.1770 -0.4874 -0.0987
 6122SOL    HW119209   2.449   4.532   7.910 -1.6171 -1.2232  0.0873
 6122SOL    HW219210   2.356   4.624   7.834  0.4899  0.3582 -0.6653
 6123SOL     OW19211   7.910   6.708   4.625  0.3230 -0.1502 -0.0053
 6123SOL    HW119212   7.965   6.786   4.617 -1.2133  0.7961 -2.2240
 6123SOL    HW219213   7.837   6.724   4.565 -0.3177 -3.0823 -0.1321
 6124SOL     OW19214   0.676   4.122   2.572 -0.2044  0.2297  0.2734
 6124SOL    HW119215   0.673   4.029   2.597 -3.1723 -0.0662 -0.7900
 6124SOL    HW219216   0.596   4.159   2.610  1.4667  2.7229  1.6751
 6125SOL     OW19217   0.425   2.633   5.621 -0.0330 -0.3086 -0.4552
 6125SOL    HW119218   0.388   2.550   5.592  0.9644 -0.3795 -1.5826
 6125SOL    HW219219   0.498   2.609   5.678 -0.7172 -0.1760  0.5058
 6126SOL     OW19220   1.130   7.066   2.165  0.0002  0.5279  0.2731
 6126SOL    HW119221   1.131   7.113   2.082  1.1261 -0.9895 -0.6355
 6126SOL    HW219222   1.218   7.029   2.172 -1.5077 -3.8134 -0.5795
 6127SOL     OW19223   5.593   5.294   6.886  0.1240 -0.4165 -0.5166
 6127SOL    HW119224   5.508   5.293   6.930  0.3770  1.0954  0.0874
 6127SOL    HW219225   5.641   5.365   6.929  1.2788 -0.4972 -1.6126
 6128SOL     OW19226   3.431   6.907   3.513 -0.3713 -0.4825 -0.2664
 6128SOL    HW119227   3.494   6.929   3.581 -0.1535  2.3135 -1.2752
 6128SOL    HW219228   3.461   6.954   3.435 -2.6998 -0.5272 -1.2855
 6129SOL     OW19229   5.169   5.218   0.898 -0.2153 -0.2476 -0.0123
 6129SOL    HW119230   5.079   5.190   0.878  0.2893 -1.5803 -0.5434
 6129SOL    HW219231   5.223   5.165   0.840  0.8023  2.5071 -1.8072
 6130SOL     OW19232   3.666   2.143   6.129 -0.0739  0.1659 -0.4494
 6130SOL    HW119233   3.571   2.136   6.133 -0.0721  0.4848  2.3237
 6130SOL    HW219234   3.698   2.076   6.189  1.2455  2.0272  1.0843
 6131SOL     OW19235   2.628   7.922   2.894  0.6770  0.0968 -0.0132
 6131SOL    HW119236   2.534   7.903   2.886  1.1184 -2.0800 -0.8564
 6131SOL    HW219237   2.632   8.001   2.948 -1.6220 -0.0756  0.5325
 6132SOL     OW19238   4.467   2.178   3.343 -0.2151  0.2535  0.0676
 6132SOL    HW119239   4.495   2.163   3.252  0.0114 -1.2170  0.3429
 6132SOL    HW219240   4.497   2.266   3.364  2.2578 -0.3953 -0.3999
 6133SOL     OW19241   5.662   3.271   1.264  0.3490 -0.5932  0.5770
 6133SOL    HW119242   5.602   3.205   1.230  0.8630 -1.1962  0.8222
 6133SOL    HW219243   5.623   3.355   1.240 -0.8329 -0.9674  1.1500
 6134SOL     OW19244   1.934   2.603   4.676  0.0159 -0.6407  0.5442
 6134SOL    HW119245   1.896   2.636   4.595 -0.2469 -0.9457  0.5394
 6134SOL    HW219246   2.026   2.628   4.671 -0.0110 -0.6007  0.1804
 6135SOL     OW19247   2.669   0.323   5.041 -0.6174 -0.1662  0.7745
 6135SOL    HW119248   2.682   0.397   5.100  2.1154 -0.3053  0.4602
 6135SOL    HW219249   2.755   0.308   5.002 -1.1126 -3.4215  0.6874
 6136SOL     OW19250   7.374   2.043   3.296 -0.2961 -0.3906 -0.1326
 6136SOL    HW119251   7.345   2.000   3.376  1.8542 -2.1238 -0.1984
 6136SOL    HW219252   7.303   2.026   3.233 -0.8965 -1.1250  0.7173
 6137SOL     OW19253   1.689   7.841   1.797 -0.0371  0.7283  0.0978
 6137SOL    HW119254   1.766   7.864   1.745 -0.6446  0.0051 -1.1382
 6137SOL    HW219255   1.634   7.919   1.794 -0.1832  0.6036 -0.5541
 6138SOL     OW19256   7.178   0.458   4.656 -0.5952 -0.4898  0.6596
 6138SOL    HW119257   7.165   0.521   4.727 -1.2480  1.0375 -0.7613
 6138SOL    HW219258   7.209   0.510   4.583  0.7507 -2.1454 -0.0037
 6139SOL     OW19259   2.263   4.756   1.796  0.1391  0.4020  0.5671
 6139SOL    HW119260   2.354   4.784   1.804 -0.0635  1.1391  0.3323
 6139SOL    HW219261   2.230   4.802   1.719 -0.3647 -0.0614  0.4968
 6140SOL     OW19262   5.151   1.392   5.214 -0.3978  0.0421  0.0524
 6140SOL    HW119263   5.072   1.340   5.200 -0.2056 -1.0450  2.4577
 6140SOL    HW219264   5.206   1.374   5.137 -0.7500 -2.6063  0.3178
 6141SOL     OW19265   2.500   4.784   0.560 -0.0447 -0.2838 -0.5063
 6141SOL    HW119266   2.573   4.831   0.601 -1.1251  1.2278 -0.2215
 6141SOL    HW219267   2.477   4.837   0.484 -1.2446 -0.3818 -0.2317
 6142SOL     OW19268   1.919   6.952   5.106 -0.1590 -0.5569  0.2659
 6142SOL    HW119269   1.824   6.946   5.116 -0.3915 -0.3576 -1.5595
 6142SOL    HW219270   1.941   6.885   5.042  0.7266  0.3639 -0.4250
 6143SOL     OW19271   6.714   6.740   6.550 -0.1923  0.7504 -0.4145
 6143SOL    HW119272   6.655   6.677   6.593 -0.7173  1.9401  0.6814
 6143SOL    HW219273   6.682   6.825   6.578 -0.8726  1.6753 -3.5935
 6144SOL     OW19274   2.662   0.095   3.459 -0.1407  0.0866 -0.0875
 6144SOL    HW119275   2.667   0.104   3.554  0.0359  1.0914 -0.1786
 6144SOL    HW219276   2.649   0.185   3.427  0.4901 -0.1436 -1.0461
 6145SOL     OW19277   1.849   3.662   2.814  0.7993 -0.2275  0.5279
 6145SOL    HW119278   1.928   3.672   2.867  1.5066 -3.2702  0.2571
 6145SOL    HW219279   1.826   3.569   2.823 -1.0419 -0.0903 -1.7588
 6146SOL     OW19280   1.309   1.355   1.758  0.0873  0.4423 -0.4705
 6146SOL    HW119281   1.364   1.329   1.832  0.5325  1.8121 -0.2932
 6146SOL    HW219282   1.226   1.310   1.772  0.9192 -1.1321 -0.3780
 6147SOL     OW19283   2.815   4.049   1.310  0.6539  0.3064 -0.1179
 6147SOL    HW119284   2.865   4.054   1.392  0.8850 -0.7709 -0.1698
 6147SOL    HW219285   2.786   3.958   1.307 -0.3171  0.6247 -0.6808
 6148SOL     OW19286   5.008   5.832   8.175 -0.0259 -0.6851 -0.2645
 6148SOL    HW119287   5.075   5.844   8.107 -0.4982  0.4664 -0.5458
 6148SOL    HW219288   5.052   5.780   8.242  1.4411  0.7356 -0.0561
 6149SOL     OW19289   6.368   7.812   1.382  0.0977  0.3340  0.1264
 6149SOL    HW119290   6.435   7.769   1.436  0.4928  0.6167 -0.1351
 6149SOL    HW219291   6.376   7.771   1.296 -1.0063 -0.6102  0.4604
 6150SOL     OW19292   3.849   3.842   5.809  0.0016 -0.3005  0.0372
 6150SOL    HW119293   3.805   3.924   5.833  1.5256 -0.0105  2.1589
 6150SOL    HW219294   3.849   3.791   5.890  0.1656 -1.8955 -0.9368
 6151SOL     OW19295   6.221   1.939   3.253 -0.2105 -0.4688 -0.4313
 6151SOL    HW119296   6.140   1.894   3.230 -0.2180  0.1489 -1.6904
 6151SOL    HW219297   6.197   2.031   3.259  0.1936 -0.4005  0.2186
 6152SOL     OW19298   7.153   7.205   5.612 -0.0463 -0.5471  0.1106
 6152SOL    HW119299   7.208   7.133   5.642  2.7831  0.7961 -1.4378
 6152SOL    HW219300   7.160   7.202   5.516 -3.2086 -0.6124 -0.1978
 6153SOL     OW19301   1.023   4.092   0.559  0.6970  0.5261 -0.1027
 6153SOL    HW119302   1.007   4.045   0.641  0.3837  0.1839 -0.3582
 6153SOL    HW219303   1.048   4.180   0.587  0.5891  0.4133  0.3626
 6154SOL     OW19304   3.150   5.051   0.159 -0.2329 -0.7706 -0.1418
 6154SOL    HW119305   3.061   5.058   0.194  0.5983 -1.0973  2.2303
 6154SOL    HW219306   3.172   4.959   0.166  0.4791 -0.6107 -0.1853
 6155SOL     OW19307   7.399   4.681   3.262  0.4193  0.1873 -0.5058
 6155SOL    HW119308   7.329   4.653   3.203  0.0669 -1.0255  0.4609
 6155SOL    HW219309   7.478   4.644   3.225  0.5572  1.3390 -1.4526
 6156SOL     OW19310   0.461   3.097   3.335  0.1137  0.4773  0.1979
 6156SOL    HW119311   0.410   3.080   3.414  0.3740 -2.4685 -0.1466
 6156SOL    HW219312   0.420   3.042   3.268  1.1198  1.3709 -1.2153
 6157SOL     OW19313   1.640   6.007   5.433  0.4919 -0.2564 -0.2937
 6157SOL    HW119314   1.579   5.937   5.409 -0.7071  0.5373  0.2937
 6157SOL    HW219315   1.602   6.045   5.513  2.4152 -0.4989  0.7800
 6158SOL     OW19316   2.077   1.756   1.412  0.0404 -0.0330 -0.1792
 6158SOL    HW119317   2.096   1.688   1.476  1.0062 -0.5412 -0.9774
 6158SOL    HW219318   2.029   1.823   1.461  1.1309 -0.2053  1.1845
 6159SOL     OW19319   7.072   5.153   1.173  0.1428 -0.6890  0.3400
 6159SOL    HW119320   7.129   5.078   1.155 -0.4647 -1.1778  0.4125
 6159SOL    HW219321   7.131   5.227   1.183  0.6797 -0.9316 -0.8941
 6160SOL     OW19322   7.559   3.021   2.972  0.2995 -0.0339 -0.2257
 6160SOL    HW119323   7.580   3.098   2.919 -0.6460 -0.0253 -0.6146
 6160SOL    HW219324   7.621   3.024   3.045  2.0594 -0.3771 -1.6318
 6161SOL     OW19325   1.912   1.088   0.251 -0.1145  0.0831  0.4050
 6161SOL    HW119326   1.979   1.147   0.218 -1.3211  1.5183  0.4281
 6161SOL    HW219327   1.904   1.020   0.184 -0.1492  1.0807 -0.6223
 6162SOL     OW19328   4.825   5.483   3.492  0.3064  0.3462  0.0101
 6162SOL    HW119329   4.911   5.442   3.506 -0.1105  0.2213  2.8100
 6162SOL    HW219330   4.764   5.409   3.488 -0.0842  0.5000  2.0470
 6163SOL     OW19331   7.638   7.143   7.649 -0.2398  0.0779  0.5530
 6163SOL    HW119332   7.551   7.148   7.689  0.2134 -0.1168  1.5738
 6163SOL    HW219333   7.637   7.060   7.601 -0.4016 -0.2362  1.0892
 6164SOL     OW19334   6.779   5.800   2.101 -0.1372  0.2776 -0.1804
 6164SOL    HW119335   6.720   5.757   2.163 -1.2117  2.6959  0.5965
 6164SOL    HW219336   6.861   5.810   2.148  0.4361 -1.6019 -0.6831
 6165SOL     OW19337   4.473   6.130   0.700 -0.3439  0.3662 -0.1283
 6165SOL    HW119338   4.495   6.040   0.721  0.3528  0.4880 -0.3324
 6165SOL    HW219339   4.555   6.179   0.711 -0.6363  0.9175 -0.3366
 6166SOL     OW19340   0.133   5.615   5.171 -0.5743  0.9111 -0.1421
 6166SOL    HW119341   0.196   5.585   5.236 -0.8107 -2.1306 -1.1447
 6166SOL    HW219342   0.052   5.629   5.220 -0.1912  0.7807  0.5327
 6167SOL     OW19343   6.121   1.690   0.922  0.5183  0.1751  0.8577
 6167SOL    HW119344   6.105   1.693   1.016  0.9258 -0.2498  0.9464
 6167SOL    HW219345   6.212   1.718   0.912  0.4262  0.3762  0.5749
 6168SOL     OW19346   3.853   1.433   0.161  0.3796  0.1935 -0.1836
 6168SOL    HW119347   3.782   1.478   0.208 -0.2576  2.5021 -3.0834
 6168SOL    HW219348   3.821   1.343   0.152  0.4032 -0.3220  3.3126
 6169SOL     OW19349   8.216   2.040   3.798  0.6420  0.4153 -0.0110
 6169SOL    HW119350   8.162   2.118   3.786 -0.4763 -0.4355 -0.6839
 6169SOL    HW219351   8.265   2.032   3.716  0.1228 -0.0551 -0.2796
 6170SOL     OW19352   3.143   7.788   1.548 -0.3549 -0.5210  0.6114
 6170SOL    HW119353   3.108   7.742   1.624 -0.0188 -1.3633  0.2730
 6170SOL    HW219354   3.124   7.730   1.474  0.0226 -0.0858  0.1650
 6171SOL     OW19355   6.430   3.657   7.746 -0.1986  0.6593 -0.0790
 6171SOL    HW119356   6.393   3.639   7.832 -0.8809 -0.0448 -0.5115
 6171SOL    HW219357   6.421   3.752   7.736 -2.2424  0.4906 -0.3016
 6172SOL     OW19358   7.887   6.364   4.106  0.5965  0.5340 -0.0855
 6172SOL    HW119359   7.923   6.353   4.018  1.7935 -0.9913  0.5457
 6172SOL    HW219360   7.792   6.358   4.094  0.7684 -0.3637 -1.1984
 6173SOL     OW19361   3.114   5.610   7.329 -0.4135  0.5355  0.0325
 6173SOL    HW119362   3.076   5.585   7.245  0.2201 -0.2323 -0.0299
 6173SOL    HW219363   3.195   5.656   7.307 -1.8425  3.3249  0.1125
 6174SOL     OW19364   1.451   5.040   1.752  0.1665  0.1096 -0.3969
 6174SOL    HW119365   1.370   5.023   1.705  0.8900 -2.1007 -0.9371
 6174SOL    HW219366   1.496   5.107   1.700  0.4312 -1.4521 -2.2873
 6175SOL     OW19367   3.935   5.725   0.672  0.2520 -0.3889  0.0279
 6175SOL    HW119368   3.915   5.757   0.585  0.1678 -2.7555 -0.9077
 6175SOL    HW219369   3.983   5.643   0.657 -1.0966 -1.6651  2.1562
 6176SOL     OW19370   2.958   4.403   5.323  0.4211  0.6302  0.1926
 6176SOL    HW119371   2.991   4.327   5.275 -2.2844 -0.5981  0.1156
 6176SOL    HW219372   2.921   4.460   5.255  0.4362  0.9643  0.4611
 6177SOL     OW19373   2.663   4.597   3.148 -0.1645  0.1458 -0.7064
 6177SOL    HW119374   2.748   4.625   3.114 -0.2602 -1.1587 -2.0810
 6177SOL    HW219375   2.636   4.526   3.090 -1.5201 -0.4481  0.6057
 6178SOL     OW19376   2.295   0.379   0.964 -0.5732  0.1316  0.1375
 6178SOL    HW119377   2.361   0.439   0.929 -0.2535 -0.4901 -0.3539
 6178SOL    HW219378   2.332   0.347   1.046 -1.0125  1.0545  0.7121
 6179SOL     OW19379   7.341   5.286   6.028  0.4637  0.3267 -0.1612
 6179SOL    HW119380   7.391   5.350   5.977 -0.5767  0.9584 -0.4224
 6179SOL    HW219381   7.254   5.324   6.035  0.1498 -0.5154  0.7139
 6180SOL     OW19382   5.847   7.385   0.140 -0.5331 -0.0963  0.4020
 6180SOL    HW119383   5.850   7.440   0.061 -0.1483  0.6532  0.9261
 6180SOL    HW219384   5.832   7.297   0.107  4.9275 -0.8227 -1.0335
 6181SOL     OW19385   4.641   0.442   4.848  0.4802 -0.4509 -0.2676
 6181SOL    HW119386   4.639   0.478   4.936  1.0755 -0.4431 -0.2515
 6181SOL    HW219387   4.560   0.392   4.840 -0.3503  0.8613 -0.2938
 6182SOL     OW19388   6.750   2.875   1.369 -0.1315  0.1829 -0.1751
 6182SOL    HW119389   6.734   2.913   1.455 -1.3568 -0.1284 -0.2419
 6182SOL    HW219390   6.801   2.941   1.322 -0.4936  0.8743  0.3831
 6183SOL     OW19391   4.781   7.955   1.405  0.2521 -0.1158 -0.3377
 6183SOL    HW119392   4.869   7.917   1.411 -0.0565 -0.9576 -1.0909
 6183SOL    HW219393   4.787   8.015   1.330  0.5159  0.7548  0.3640
 6184SOL     OW19394   4.365   2.719   1.536  0.3948 -0.0086 -0.1815
 6184SOL    HW119395   4.293   2.674   1.492  1.1468  0.9025 -2.4693
 6184SOL    HW219396   4.337   2.811   1.540 -0.2118 -0.2292  2.5291
 6185SOL     OW19397   8.097   2.707   4.390  0.2161 -0.0891  0.6654
 6185SOL    HW119398   8.060   2.723   4.303 -0.0830 -1.0510  0.5979
 6185SOL    HW219399   8.038   2.753   4.450 -1.0912 -1.5192  0.5475
 6186SOL     OW19400   6.397   6.433   4.842 -0.1659 -0.2060 -0.2130
 6186SOL    HW119401   6.465   6.415   4.906  0.1961 -1.1423 -0.8344
 6186SOL    HW219402   6.430   6.395   4.760  0.4744  2.9815 -1.5902
 6187SOL     OW19403   7.021   0.568   7.117 -0.2109  0.3765  0.2709
 6187SOL    HW119404   7.084   0.529   7.056 -2.2393  0.2884 -1.8906
 6187SOL    HW219405   7.005   0.499   7.182  1.4284  0.1975  0.5383
 6188SOL     OW19406   1.797   6.475   3.964 -0.7693 -0.0168  0.1439
 6188SOL    HW119407   1.758   6.389   3.951  0.9723 -1.0391  1.1649
 6188SOL    HW219408   1.838   6.496   3.881 -1.7713  0.1513 -0.3179
 6189SOL     OW19409   3.378   1.508   5.673  0.0564 -0.5582 -0.1929
 6189SOL    HW119410   3.383   1.414   5.655 -0.3689 -0.4641 -0.8505
 6189SOL    HW219411   3.466   1.541   5.654  0.8730 -1.1621  2.2300
 6190SOL     OW19412   4.323   0.145   6.561 -0.1386 -0.3034  0.4275
 6190SOL    HW119413   4.400   0.197   6.540 -0.2369 -0.4450 -0.3067
 6190SOL    HW219414   4.291   0.113   6.477 -0.5480 -0.8889  0.7907
 6191SOL     OW19415   6.299   5.156   7.326  0.1394  0.4788  0.1628
 6191SOL    HW119416   6.309   5.186   7.416 -0.8500  0.7827  0.1769
 6191SOL    HW219417   6.389   5.142   7.295  0.4808  0.2674  1.2257
 6192SOL     OW19418   6.666   5.932   4.682 -0.0633  0.0153  0.2011
 6192SOL    HW119419   6.689   5.985   4.605 -0.8514 -1.4440 -1.0968
 6192SOL    HW219420   6.694   5.844   4.658 -2.9897 -1.0313  0.3324
 6193SOL     OW19421   5.373   5.586   2.604  0.3144 -0.4737  0.2485
 6193SOL    HW119422   5.440   5.611   2.540 -0.0244 -2.1300 -0.8184
 6193SOL    HW219423   5.377   5.654   2.670  1.8016  0.4448 -0.7172
 6194SOL     OW19424   0.672   6.844   1.658  0.1574 -0.1737  0.1011
 6194SOL    HW119425   0.704   6.755   1.676 -0.4100 -0.0653  1.8246
 6194SOL    HW219426   0.580   6.841   1.682 -0.2254  0.5149 -1.2370
 6195SOL     OW19427   5.489   5.809   3.024  0.6005 -0.0439 -0.6434
 6195SOL    HW119428   5.535   5.785   2.944  1.0729  0.4325 -0.5151
 6195SOL    HW219429   5.485   5.728   3.075  0.1582 -0.3888 -1.2096
 6196SOL     OW19430   1.251   7.484   7.069  0.3063 -0.0899 -0.3006
 6196SOL    HW119431   1.233   7.570   7.108  0.1647 -0.2719  0.0365
 6196SOL    HW219432   1.299   7.504   6.989  1.2416  0.2734  0.3236
 6197SOL     OW19433   1.412   7.557   3.370 -0.8591 -0.2199 -0.3094
 6197SOL    HW119434   1.437   7.542   3.279 -0.8245 -0.8281 -0.2051
 6197SOL    HW219435   1.465   7.495   3.420 -0.5867  0.3826  0.1658
 6198SOL     OW19436   2.774   2.248   6.304  0.0765  0.2770 -0.0130
 6198SOL    HW119437   2.849   2.241   6.364  1.2566 -0.6930 -1.5200
 6198SOL    HW219438   2.813   2.267   6.219 -1.2855 -1.2893 -1.0486
 6199SOL     OW19439   8.014   6.067   6.380 -0.2028  0.0178 -0.6110
 6199SOL    HW119440   7.941   6.017   6.342 -0.9248  0.3070  0.3438
 6199SOL    HW219441   8.083   6.002   6.394  0.1245 -0.0734 -2.4764
 6200SOL     OW19442   1.210   2.256   1.158 -0.3842 -0.0984 -0.0633
 6200SOL    HW119443   1.285   2.226   1.209 -0.3417  0.1742  0.0337
 6200SOL    HW219444   1.159   2.176   1.142  0.0402 -0.3187 -0.3232
 6201SOL     OW19445   3.040   6.991   2.745 -0.8142  0.7615  0.1569
 6201SOL    HW119446   3.049   7.019   2.654 -0.7132  0.4269  0.0634
 6201SOL    HW219447   2.975   6.921   2.743  0.7158 -0.7075  0.0365
 6202SOL     OW19448   3.944   7.046   3.613 -0.0906  0.1199  0.3785
 6202SOL    HW119449   3.991   7.118   3.571 -1.6075  0.3399 -1.0512
 6202SOL    HW219450   3.870   7.087   3.657  0.7182 -0.2714  2.1903
 6203SOL     OW19451   5.844   1.372   4.848  0.1216 -0.4269 -0.7662
 6203SOL    HW119452   5.878   1.296   4.894 -0.3080  0.5547  1.3094
 6203SOL    HW219453   5.822   1.434   4.918 -0.2727  1.2910 -2.3411
 6204SOL     OW19454   4.218   3.111   2.221  0.0129  0.2240 -0.0727
 6204SOL    HW119455   4.172   3.082   2.299 -1.1062 -1.6855 -1.3361
 6204SOL    HW219456   4.179   3.060   2.150 -0.5338  3.4093 -2.2642
 6205SOL     OW19457   1.578   5.998   2.945 -0.4176  0.1342 -0.5431
 6205SOL    HW119458   1.495   6.026   2.907 -0.5148  1.2056  0.4091
 6205SOL    HW219459   1.641   6.063   2.914  0.0872 -0.7253 -1.3329
 6206SOL     OW19460   3.953   7.809   2.184  0.0748  0.0859  0.1457
 6206SOL    HW119461   3.994   7.757   2.253 -1.4003 -0.6506  0.5179
 6206SOL    HW219462   3.988   7.773   2.102  0.7636  0.0183  0.4690
 6207SOL     OW19463   2.944   5.278   6.843 -0.3597 -0.2651 -0.3915
 6207SOL    HW119464   2.853   5.307   6.847 -0.4767 -0.7354  0.3543
 6207SOL    HW219465   2.992   5.340   6.897 -0.3623 -0.4850 -0.1332
 6208SOL     OW19466   0.360   3.891   3.916 -0.1585 -0.0255  0.2110
 6208SOL    HW119467   0.453   3.887   3.895 -0.3219  0.3641 -0.6479
 6208SOL    HW219468   0.327   3.804   3.895 -0.0544 -0.0573  0.1791
 6209SOL     OW19469   0.724   0.793   1.936 -0.7977  0.0091 -0.0669
 6209SOL    HW119470   0.804   0.743   1.948 -0.8405  0.0885  0.5614
 6209SOL    HW219471   0.700   0.779   1.844  0.8379  1.3404 -0.7477
 6210SOL     OW19472   5.866   4.401   7.604 -0.5879  0.2463  0.1299
 6210SOL    HW119473   5.796   4.463   7.584 -1.7919 -0.6913  1.2566
 6210SOL    HW219474   5.841   4.321   7.558  0.9544  0.5501 -1.3168
 6211SOL     OW19475   1.078   4.171   4.135 -0.1296 -0.2034 -0.0002
 6211SOL    HW119476   1.099   4.263   4.149  0.3155 -0.3142  0.0855
 6211SOL    HW219477   0.983   4.170   4.120  0.3119  0.7289 -3.7208
 6212SOL     OW19478   0.313   3.703   0.945  0.0033 -0.0237  0.0916
 6212SOL    HW119479   0.270   3.619   0.931 -0.0962  0.0139  0.1739
 6212SOL    HW219480   0.399   3.681   0.982  1.0147 -0.2454 -2.2079
 6213SOL     OW19481   5.766   8.052   3.260 -0.2222 -0.0600  0.6602
 6213SOL    HW119482   5.778   7.958   3.249  1.1796  0.1636  0.1368
 6213SOL    HW219483   5.691   8.060   3.319 -0.4485 -1.4925  0.5990
 6214SOL     OW19484   4.308   3.921   1.593  0.2303 -0.3313  0.7002
 6214SOL    HW119485   4.311   3.844   1.649  2.7568  0.3673  1.6297
 6214SOL    HW219486   4.288   3.994   1.652  0.9737  0.1491  0.3695
 6215SOL     OW19487   6.220   0.005   5.824 -0.5393 -0.1484  0.5009
 6215SOL    HW119488   6.305  -0.035   5.803 -1.4688 -1.4050 -1.0782
 6215SOL    HW219489   6.240   0.098   5.836  0.9055 -0.1882 -1.1558
 6216SOL     OW19490   6.704   7.012   1.852  0.2136 -0.5883  0.0116
 6216SOL    HW119491   6.614   6.984   1.834 -0.1375  0.4800 -0.0070
 6216SOL    HW219492   6.752   6.931   1.868 -0.5476 -1.2446 -0.8854
 6217SOL     OW19493   1.456   1.361   4.471 -0.6475 -0.3719 -0.0237
 6217SOL    HW119494   1.463   1.322   4.558  0.8134  0.9857  0.5183
 6217SOL    HW219495   1.461   1.287   4.411  1.5325 -1.1130  0.9726
 6218SOL     OW19496   6.932   4.689   4.799 -0.8811 -0.1370 -0.2112
 6218SOL    HW119497   6.985   4.714   4.875 -0.8845  1.4636 -0.7148
 6218SOL    HW219498   6.989   4.629   4.750  0.4378  1.4093 -0.6552
 6219SOL     OW19499   5.620   0.622   3.371 -0.0608  0.0794  0.2116
 6219SOL    HW119500   5.650   0.690   3.311  1.6207 -0.5153  0.3426
 6219SOL    HW219501   5.637   0.658   3.458 -2.3315  0.8654  0.4040
 6220SOL     OW19502   4.406   1.158   0.361  0.2768 -0.3870 -0.2761
 6220SOL    HW119503   4.408   1.088   0.427 -2.5159 -0.8214 -0.5275
 6220SOL    HW219504   4.436   1.116   0.280  0.0756 -0.8821 -0.0979
 6221SOL     OW19505   7.494   0.915   1.828  0.0029 -0.0692  0.7967
 6221SOL    HW119506   7.541   0.889   1.749  0.4314  0.9510  0.6994
 6221SOL    HW219507   7.502   0.840   1.887 -0.5958 -0.9644 -0.2298
 6222SOL     OW19508   6.634   4.862   0.890 -0.0015  0.1840  0.3720
 6222SOL    HW119509   6.569   4.918   0.931 -0.4060 -0.0954  0.1169
 6222SOL    HW219510   6.696   4.842   0.961 -0.9003 -0.6125  0.9668
 6223SOL     OW19511   7.404   4.243   1.028  0.4714  0.2424 -0.1100
 6223SOL    HW119512   7.342   4.260   1.100 -2.9263 -0.9700 -2.5086
 6223SOL    HW219513   7.446   4.161   1.053  0.5664  0.6584  1.2070
 6224SOL     OW19514   7.665   3.436   0.486  0.3876 -0.3626  0.0732
 6224SOL    HW119515   7.639   3.345   0.499  1.8716 -0.7752  0.3134
 6224SOL    HW219516   7.657   3.449   0.391 -0.4044 -0.5493  0.1063
 6225SOL     OW19517   2.710   5.444   6.875  0.0709  0.3054 -0.4754
 6225SOL    HW119518   2.762   5.520   6.904 -0.0282  0.1218  0.2027
 6225SOL    HW219519   2.626   5.481   6.850 -0.1163  0.3819  0.2382
 6226SOL     OW19520   7.094   7.877   2.553 -0.5629  0.8198  0.2305
 6226SOL    HW119521   7.183   7.904   2.529 -0.2908 -1.2287 -1.3797
 6226SOL    HW219522   7.039   7.950   2.525  0.3364  0.7915 -1.8321
 6227SOL     OW19523   5.117   5.204   3.268 -0.0936  0.1510 -0.3809
 6227SOL    HW119524   5.072   5.122   3.248 -0.6498 -0.3005  2.2843
 6227SOL    HW219525   5.046   5.265   3.289  0.3936  0.2223  1.1814
 6228SOL     OW19526   6.163   5.022   2.639 -0.0277 -0.1836  0.3085
 6228SOL    HW119527   6.127   4.934   2.626  0.6723 -0.5089  0.5149
 6228SOL    HW219528   6.214   5.040   2.560 -0.1886  0.0497  0.2557
 6229SOL     OW19529   1.920   7.745   2.168  0.1886 -0.2739 -0.2445
 6229SOL    HW119530   2.001   7.779   2.131  0.6974 -2.2654 -1.1078
 6229SOL    HW219531   1.941   7.724   2.259  0.3562  0.0488 -0.2072
 6230SOL     OW19532   4.586   8.218   3.125  0.0517 -0.0295 -0.2655
 6230SOL    HW119533   4.654   8.285   3.114 -0.2689  0.2501 -0.5933
 6230SOL    HW219534   4.506   8.268   3.140 -0.1074 -0.3545 -0.0308
 6231SOL     OW19535   2.000   2.012   8.157 -1.0037 -0.0230  0.4388
 6231SOL    HW119536   1.954   2.012   8.241 -2.6567  2.6663 -0.3470
 6231SOL    HW219537   1.930   2.004   8.092  0.0532  0.0661 -0.7394
 6232SOL     OW19538   0.835   2.523   2.283 -0.1400  0.1091 -0.4940
 6232SOL    HW119539   0.773   2.576   2.334  1.2049  2.2363 -0.9302
 6232SOL    HW219540   0.780   2.466   2.230 -1.6575  0.4377  0.6469
 6233SOL     OW19541   2.991   4.347   6.609  0.5029 -0.3527 -0.0246
 6233SOL    HW119542   2.913   4.360   6.555  0.3785  1.8828  0.5827
 6233SOL    HW219543   3.053   4.413   6.578  1.9271 -1.6300 -0.0261
 6234SOL     OW19544   0.349   6.692   3.595  0.1697  0.4393  0.2338
 6234SOL    HW119545   0.257   6.670   3.607  0.2250 -0.5249 -0.9500
 6234SOL    HW219546   0.392   6.662   3.676 -0.1548 -1.5652 -0.2904
 6235SOL     OW19547   2.033   1.206   7.098 -0.4263 -0.1621  0.1797
 6235SOL    HW119548   2.065   1.165   7.178  0.3825 -1.2482 -0.6764
 6235SOL    HW219549   2.111   1.240   7.055 -0.8185  0.1927 -0.2743
 6236SOL     OW19550   2.146   2.333   7.127 -0.0231  0.2459  0.1963
 6236SOL    HW119551   2.080   2.293   7.183 -0.6983 -0.5414 -1.1027
 6236SOL    HW219552   2.101   2.407   7.085 -0.2683 -0.5423 -1.0100
 6237SOL     OW19553   8.100   7.022   3.156  0.4601  0.1233  0.0393
 6237SOL    HW119554   8.079   6.930   3.138  1.6415  0.1515 -1.7508
 6237SOL    HW219555   8.015   7.065   3.166 -0.1610 -0.7969 -1.1155
 6238SOL     OW19556   6.893   8.042   2.463  0.3460  0.0328 -0.0632
 6238SOL    HW119557   6.840   7.978   2.415 -0.2734 -0.3354  1.0672
 6238SOL    HW219558   6.875   8.125   2.420  0.6199 -0.4428 -1.1193
 6239SOL     OW19559   1.752   3.424   5.701  0.3623  0.2024 -0.9854
 6239SOL    HW119560   1.787   3.377   5.776 -0.5360 -0.6160 -1.0737
 6239SOL    HW219561   1.813   3.498   5.689  0.0728  0.8043  1.0042
 6240SOL     OW19562   0.371   7.374   5.521  0.2489  0.5650  0.5925
 6240SOL    HW119563   0.307   7.416   5.578  0.0841  0.6377  0.3490
 6240SOL    HW219564   0.444   7.352   5.580  1.3193  3.1725  0.3542
 6241SOL     OW19565   3.064   4.342   1.545 -0.0783 -0.4413  0.3908
 6241SOL    HW119566   2.992   4.312   1.601 -0.6002  1.6833  0.9376
 6241SOL    HW219567   3.030   4.331   1.456 -0.8700 -0.0543  0.6300
 6242SOL     OW19568   1.288   0.429   7.690  0.1094 -0.1636  0.0579
 6242SOL    HW119569   1.236   0.350   7.678 -1.0112  0.5203  0.2193
 6242SOL    HW219570   1.302   0.461   7.600 -0.0133 -0.1886  0.0291
 6243SOL     OW19571   7.361   1.783   6.031 -0.2724 -0.7523 -0.8841
 6243SOL    HW119572   7.427   1.852   6.016  0.3241 -1.0578  0.2247
 6243SOL    HW219573   7.332   1.798   6.121 -1.9192 -0.4822 -1.4268
 6244SOL     OW19574   6.978   6.923   0.486 -0.2593 -0.2005 -0.5304
 6244SOL    HW119575   7.041   6.993   0.504  0.0141 -0.8819  1.4286
 6244SOL    HW219576   6.900   6.969   0.454 -0.3974  1.1366  1.4974
 6245SOL     OW19577   4.741   1.913   7.285 -0.8161  0.1561 -0.2645
 6245SOL    HW119578   4.720   1.960   7.366 -0.4767 -1.6389  0.9214
 6245SOL    HW219579   4.660   1.915   7.235 -1.5463 -0.1090  0.8669
 6246SOL     OW19580   0.436   2.622   3.888  0.0305  0.1786 -0.4675
 6246SOL    HW119581   0.344   2.647   3.897  0.0836  0.5769 -1.0075
 6246SOL    HW219582   0.444   2.589   3.799  0.4416  0.2811 -0.4713
 6247SOL     OW19583   0.388   6.350   3.475 -0.6361 -0.3409  0.2960
 6247SOL    HW119584   0.423   6.313   3.394 -0.0853  0.4531  0.1611
 6247SOL    HW219585   0.331   6.281   3.510 -0.3767 -0.9401 -0.4309
 6248SOL     OW19586   6.817   5.455   2.434 -0.1327  0.6257 -0.5333
 6248SOL    HW119587   6.824   5.408   2.351  0.3275  0.2995 -0.3085
 6248SOL    HW219588   6.901   5.501   2.443 -0.5937  1.5463 -0.7793
 6249SOL     OW19589   5.000   3.289   6.772  0.0805 -0.6982 -0.4240
 6249SOL    HW119590   5.014   3.256   6.683  0.9480 -2.9784  0.4757
 6249SOL    HW219591   5.048   3.227   6.828 -0.5082  0.6201  1.6384
 6250SOL     OW19592   2.744   6.093   2.375  0.0954  0.2036 -0.4008
 6250SOL    HW119593   2.683   6.050   2.314 -0.4927  1.3512 -0.6394
 6250SOL    HW219594   2.822   6.038   2.373 -0.2731 -0.3043 -1.4603
 6251SOL     OW19595   2.296   3.530   5.323 -0.2362 -0.4743  0.1678
 6251SOL    HW119596   2.258   3.556   5.239 -1.2469 -1.6698  0.2342
 6251SOL    HW219597   2.306   3.435   5.317  1.5597 -0.3551  0.6567
 6252SOL     OW19598   4.695   0.275   4.579 -0.8360  0.2698 -0.1032
 6252SOL    HW119599   4.641   0.244   4.652 -2.3917  0.4678 -1.1005
 6252SOL    HW219600   4.655   0.359   4.555  1.3913  1.6189  0.5837
 6253SOL     OW19601   2.385   2.419   7.509  0.3428  0.0028  0.2281
 6253SOL    HW119602   2.307   2.474   7.505 -1.1536 -1.9947  0.0073
 6253SOL    HW219603   2.452   2.469   7.462 -0.3220  2.4368  1.7285
 6254SOL     OW19604   0.338   3.400   5.684 -0.0422 -0.1267 -0.7404
 6254SOL    HW119605   0.351   3.362   5.771 -2.3223 -1.8268 -1.0617
 6254SOL    HW219606   0.244   3.420   5.680  0.5246  2.8610 -1.7364
 6255SOL     OW19607   0.691   5.930   0.114  0.6769 -0.2520  0.0070
 6255SOL    HW119608   0.648   6.014   0.129  3.2966  1.9584 -3.3789
 6255SOL    HW219609   0.756   5.923   0.184  1.3778  1.3065 -0.4473
 6256SOL     OW19610   1.739   5.931   3.722  0.2429  0.4495 -0.0254
 6256SOL    HW119611   1.725   5.904   3.631 -0.1067 -1.1870  0.4691
 6256SOL    HW219612   1.833   5.921   3.736  0.1377 -0.5045  0.1129
 6257SOL     OW19613   3.178   7.193   2.909  0.4225  0.5817 -0.2753
 6257SOL    HW119614   3.121   7.134   2.860  0.5422  0.1043  0.1539
 6257SOL    HW219615   3.142   7.194   2.997  1.1961  0.1193  0.0507
 6258SOL     OW19616   0.771   5.415   4.336  0.0515 -0.0080  0.1025
 6258SOL    HW119617   0.733   5.411   4.248  0.5621 -1.3023 -0.0802
 6258SOL    HW219618   0.737   5.338   4.380 -0.2047  0.6336  1.0663
 6259SOL     OW19619   2.917   2.275   1.068 -0.3474  0.0885  0.4208
 6259SOL    HW119620   2.844   2.313   1.018  0.4725  1.0421 -0.0970
 6259SOL    HW219621   2.938   2.194   1.021 -1.9088 -0.9126  1.3515
 6260SOL     OW19622   2.483   7.082   6.512 -0.0896  0.2874  0.2793
 6260SOL    HW119623   2.397   7.125   6.519 -0.0997  0.1136  1.5588
 6260SOL    HW219624   2.543   7.153   6.487 -0.3394  0.7752  1.0231
 6261SOL     OW19625   7.515   4.554   1.500 -0.2621  0.3760  0.0580
 6261SOL    HW119626   7.447   4.491   1.476 -1.7422  2.0371 -0.2661
 6261SOL    HW219627   7.565   4.510   1.569 -1.4800 -1.0004  0.1061
 6262SOL     OW19628   7.872   4.034   3.932 -0.0837 -0.5976 -0.3168
 6262SOL    HW119629   7.786   4.020   3.894 -1.2286  0.0607  1.8722
 6262SOL    HW219630   7.878   3.969   4.002  0.0904  0.9894  1.2086
 6263SOL     OW19631   4.529   3.276   1.862 -0.1621  0.4304 -0.2205
 6263SOL    HW119632   4.578   3.354   1.888  1.1251 -0.3731 -0.1633
 6263SOL    HW219633   4.596   3.212   1.837 -1.1890 -0.6551 -0.2957
 6264SOL     OW19634   6.548   7.926   1.591 -0.0813 -0.2403 -0.4472
 6264SOL    HW119635   6.580   8.013   1.613  1.5842 -0.3123 -2.2936
 6264SOL    HW219636   6.453   7.933   1.597  0.0224  1.7121 -0.5560
 6265SOL     OW19637   4.228   6.580   5.910 -0.3567  0.0304  0.8682
 6265SOL    HW119638   4.138   6.590   5.878 -0.0866  0.0058  0.0772
 6265SOL    HW219639   4.250   6.489   5.893  0.3310  0.4015 -0.3586
 6266SOL     OW19640   6.572   1.174   3.121  0.2414 -0.2634 -0.0978
 6266SOL    HW119641   6.590   1.113   3.050 -1.2412  0.6720 -1.3424
 6266SOL    HW219642   6.510   1.128   3.177  0.4799 -0.5420 -0.0582
 6267SOL     OW19643   6.957   7.325   0.916 -0.5956  0.9885  0.0041
 6267SOL    HW119644   6.928   7.237   0.895  0.2644  0.8268 -0.5633
 6267SOL    HW219645   6.877   7.376   0.927 -1.0967  0.1228  0.4288
 6268SOL     OW19646   1.489   2.775   7.425 -0.0414  0.0741  0.4203
 6268SOL    HW119647   1.416   2.764   7.487 -1.2413  1.8105 -0.6060
 6268SOL    HW219648   1.481   2.865   7.394  3.1613  0.6717  0.9822
 6269SOL     OW19649   2.509   3.634   6.848  0.0696  0.5521  0.7434
 6269SOL    HW119650   2.574   3.564   6.856  1.7658  2.0458  0.4169
 6269SOL    HW219651   2.445   3.615   6.917  0.3203 -1.4470  0.5067
 6270SOL     OW19652   6.423   0.653   0.412  0.0367  0.1310 -0.2072
 6270SOL    HW119653   6.382   0.628   0.329  1.4572  0.0526 -0.9148
 6270SOL    HW219654   6.496   0.591   0.422  2.6015  2.7536 -1.1469
 6271SOL     OW19655   7.884   6.675   1.031  0.5066  0.1431 -0.1764
 6271SOL    HW119656   7.978   6.691   1.028  0.3869  0.9922  0.3624
 6271SOL    HW219657   7.844   6.762   1.029 -0.3121 -0.2280 -1.4208
 6272SOL     OW19658   3.627   0.689   7.281 -0.0650  0.1884 -0.8455
 6272SOL    HW119659   3.553   0.698   7.221 -0.4583  0.3882 -0.3436
 6272SOL    HW219660   3.598   0.624   7.345 -0.4887  1.4636  0.3167
 6273SOL     OW19661   0.451   1.720   2.613 -0.7616 -0.4471  0.1700
 6273SOL    HW119662   0.455   1.625   2.620 -0.1786 -0.3259  2.2053
 6273SOL    HW219663   0.389   1.747   2.681 -1.4529  0.5966 -0.8435
 6274SOL     OW19664   2.062   4.901   0.316  0.1426 -0.2951 -0.5221
 6274SOL    HW119665   2.154   4.912   0.337 -0.2185  0.3275  0.8366
 6274SOL    HW219666   2.022   4.871   0.398 -0.6666 -1.7823 -1.4106
 6275SOL     OW19667   2.524   0.150   4.910 -0.1730  0.2742  0.1505
 6275SOL    HW119668   2.438   0.184   4.883 -0.2665  0.3103  0.4873
 6275SOL    HW219669   2.568   0.225   4.948 -0.8943 -0.2439  2.1468
 6276SOL     OW19670   3.177   3.028   5.856 -0.1707 -0.7064 -0.2023
 6276SOL    HW119671   3.136   3.011   5.771 -0.6409  1.4048 -0.4347
 6276SOL    HW219672   3.271   3.028   5.838 -0.2464 -0.8026 -0.6063
 6277SOL     OW19673   0.001   3.041   2.031  0.1559 -0.1190 -0.5681
 6277SOL    HW119674  -0.087   3.015   2.001  0.0858 -2.2523  1.2020
 6277SOL    HW219675  -0.009   3.132   2.057 -0.8365  0.4940 -2.8325
 6278SOL     OW19676   2.452   7.651   0.842 -0.1015  0.1887  0.1674
 6278SOL    HW119677   2.515   7.580   0.857 -0.4714 -0.3131 -0.6152
 6278SOL    HW219678   2.460   7.706   0.920  0.5912 -0.4078  0.5346
 6279SOL     OW19679   5.711   6.434   2.223 -0.0477  0.9306  0.6801
 6279SOL    HW119680   5.688   6.342   2.228 -1.5267  1.3329  1.5838
 6279SOL    HW219681   5.800   6.434   2.187 -0.8662 -0.7288 -1.5411
 6280SOL     OW19682   3.853   2.188   2.028  0.9360 -0.0846  0.1914
 6280SOL    HW119683   3.910   2.172   2.103  1.4451  1.8925  0.2782
 6280SOL    HW219684   3.769   2.213   2.067  1.2469  1.1048  0.1587
 6281SOL     OW19685   0.810   7.930   7.272 -0.4351 -0.1517 -0.3666
 6281SOL    HW119686   0.855   8.014   7.274  0.6659 -0.7341  0.2785
 6281SOL    HW219687   0.871   7.870   7.231  0.2291 -1.3795  2.1992
 6282SOL     OW19688   3.472   5.257   0.151 -0.4453  0.4653 -0.4166
 6282SOL    HW119689   3.478   5.348   0.181 -2.1627  0.2178  0.8192
 6282SOL    HW219690   3.479   5.205   0.231 -1.3493 -0.3900 -0.8675
 6283SOL     OW19691   5.554   6.964   6.583  0.7771 -0.2341 -0.4688
 6283SOL    HW119692   5.551   7.059   6.583  0.1208 -0.1851  1.9175
 6283SOL    HW219693   5.466   6.937   6.609  1.7632 -1.3136  2.1860
 6284SOL     OW19694   7.391   0.090   5.461 -0.1306 -0.1345  0.0857
 6284SOL    HW119695   7.359   0.085   5.551 -1.2081 -1.4355 -0.3412
 6284SOL    HW219696   7.327   0.147   5.416 -0.0682 -0.1693 -0.0470
 6285SOL     OW19697   2.390   6.788   4.716  0.1827  0.0908 -0.0581
 6285SOL    HW119698   2.383   6.741   4.632  0.3362  0.8624 -0.5061
 6285SOL    HW219699   2.343   6.732   4.778 -0.9238  0.0643 -0.8889
 6286SOL     OW19700   7.074   7.512   6.879 -0.1070  0.5419 -0.0683
 6286SOL    HW119701   7.011   7.568   6.925  0.0553  0.0871  0.7163
 6286SOL    HW219702   7.150   7.509   6.937  0.3273  0.4247 -0.6369
 6287SOL     OW19703   5.772   4.409   3.865  0.4303  0.4185 -0.2087
 6287SOL    HW119704   5.709   4.452   3.923 -1.1000  0.6187 -1.9459
 6287SOL    HW219705   5.798   4.477   3.804 -0.2399 -0.5019 -1.5550
 6288SOL     OW19706   3.550   4.879   0.639  0.1984 -0.0765 -0.5811
 6288SOL    HW119707   3.540   4.922   0.554 -2.6272  0.0769 -0.2736
 6288SOL    HW219708   3.502   4.797   0.630  2.0335 -1.2796  0.1299
 6289SOL     OW19709   3.816   3.431   6.480 -0.0458 -0.0590  0.3508
 6289SOL    HW119710   3.880   3.431   6.552 -0.1065  1.4076  0.4235
 6289SOL    HW219711   3.761   3.508   6.496  0.5681  0.9027 -1.8050
 6290SOL     OW19712   6.994   5.689   2.615  0.3298 -0.2785 -0.1292
 6290SOL    HW119713   6.957   5.753   2.555 -0.0544 -0.6273 -0.2631
 6290SOL    HW219714   6.919   5.654   2.663  0.6394  0.1044  0.6673
 6291SOL     OW19715   6.420   2.696   3.784  0.0752 -0.3156 -0.2590
 6291SOL    HW119716   6.491   2.631   3.779  2.9885  2.6520 -0.6072
 6291SOL    HW219717   6.395   2.710   3.693 -0.0385 -0.4216 -0.2442
 6292SOL     OW19718   5.733   6.596   6.139  0.2458 -0.1395 -0.0891
 6292SOL    HW119719   5.714   6.645   6.060 -2.8237 -0.4083  0.3693
 6292SOL    HW219720   5.819   6.557   6.123  1.1022  2.2629 -1.9730
 6293SOL     OW19721   3.761   1.707   6.873 -0.2931 -0.9229  0.1798
 6293SOL    HW119722   3.805   1.707   6.958  0.6121 -1.5138 -0.2843
 6293SOL    HW219723   3.825   1.742   6.812 -0.6788 -1.2087 -0.3980
 6294SOL     OW19724   2.788   7.647   0.725  0.0121 -0.0958  0.0334
 6294SOL    HW119725   2.779   7.573   0.785 -0.4294 -0.4945 -0.5074
 6294SOL    HW219726   2.878   7.642   0.694 -0.0154 -0.4145 -0.0051
 6295SOL     OW19727   4.692   2.570   4.731  0.2869 -0.0154  0.1880
 6295SOL    HW119728   4.784   2.591   4.750 -0.3661  1.4203  2.0440
 6295SOL    HW219729   4.644   2.599   4.809 -1.9545  0.7968 -1.3912
 6296SOL     OW19730   1.776   0.318   6.618  0.1767 -0.0518  0.1620
 6296SOL    HW119731   1.736   0.241   6.658 -0.7404  1.7197  2.8414
 6296SOL    HW219732   1.859   0.328   6.664  0.7333  0.0806 -0.8318
 6297SOL     OW19733   2.271   4.339   3.619 -0.1012  0.0366 -1.5928
 6297SOL    HW119734   2.323   4.330   3.539  0.9154  1.5401 -1.1340
 6297SOL    HW219735   2.289   4.427   3.650 -2.7291  0.5323 -1.2295
 6298SOL     OW19736   7.925   0.774   4.821 -0.0362  0.0589  0.1749
 6298SOL    HW119737   7.872   0.697   4.839  1.6931 -1.1538  0.3389
 6298SOL    HW219738   7.866   0.848   4.835 -1.8487 -1.2267 -0.3734
 6299SOL     OW19739   4.764   7.399   1.295  0.1610 -0.2453  0.0852
 6299SOL    HW119740   4.847   7.353   1.304 -0.2859 -1.1182 -0.1542
 6299SOL    HW219741   4.785   7.479   1.247  1.2336  0.6442  1.9273
 6300SOL     OW19742   6.939   6.380   3.570  0.3507  0.4471 -0.2906
 6300SOL    HW119743   7.014   6.410   3.620 -0.0400  1.0890 -0.0861
 6300SOL    HW219744   6.961   6.290   3.544  0.3748 -0.0480  1.3815
 6301SOL     OW19745   1.854   1.929   5.415  0.3625 -0.1951  0.5789
 6301SOL    HW119746   1.817   1.908   5.330 -0.1297  0.6417  0.5714
 6301SOL    HW219747   1.780   1.924   5.476  0.0819  1.8813  0.4963
 6302SOL     OW19748   7.385   1.472   6.106  0.8571  0.1358 -0.1316
 6302SOL    HW119749   7.401   1.539   6.040  2.0621 -0.7771 -0.7960
 6302SOL    HW219750   7.421   1.391   6.069 -0.7871 -0.9634  0.5323
 6303SOL     OW19751   6.507   5.973   2.687  0.1424  0.1126  0.0638
 6303SOL    HW119752   6.556   6.055   2.693 -0.4565  0.4295  0.7766
 6303SOL    HW219753   6.417   6.001   2.667 -0.2326 -0.3041  1.0846
 6304SOL     OW19754   6.531   6.383   8.147  0.0786  0.5212 -0.3203
 6304SOL    HW119755   6.437   6.389   8.132 -0.0171 -0.9969 -0.5490
 6304SOL    HW219756   6.540   6.322   8.221  0.8804  0.5700 -0.3651
 6305SOL     OW19757   6.762   0.050   5.838  0.2236  0.3525  0.2604
 6305SOL    HW119758   6.799   0.109   5.772 -0.4877 -1.2109 -1.6458
 6305SOL    HW219759   6.788  -0.037   5.808 -0.7593 -0.4514  1.6544
 6306SOL     OW19760   7.157   0.000   5.243  0.1314 -0.4433 -0.6213
 6306SOL    HW119761   7.183   0.092   5.249  0.5409 -0.6667  1.8510
 6306SOL    HW219762   7.234  -0.048   5.272 -1.0196 -1.4070  0.9257
 6307SOL     OW19763   5.318   7.499   4.983  0.2236 -0.8915 -0.2170
 6307SOL    HW119764   5.260   7.535   5.049  1.5237  0.4533  0.2493
 6307SOL    HW219765   5.272   7.423   4.949 -2.1074  0.4916 -0.3611
 6308SOL     OW19766   3.483   1.770   1.178  0.6095 -0.6560  0.3092
 6308SOL    HW119767   3.506   1.757   1.086 -0.4590 -1.4461  0.1269
 6308SOL    HW219768   3.534   1.846   1.205 -0.9343  1.2568 -1.6893
 6309SOL     OW19769   5.880   3.480   1.481  0.6106 -0.1437  0.4456
 6309SOL    HW119770   5.846   3.536   1.411 -1.7301 -1.2740  0.5834
 6309SOL    HW219771   5.976   3.487   1.473  0.4166  0.3806 -2.3451
 6310SOL     OW19772   6.095   4.074   3.822 -0.0682  0.2045 -0.0045
 6310SOL    HW119773   6.052   3.993   3.851 -0.9442  0.7481  0.2870
 6310SOL    HW219774   6.048   4.143   3.870  0.8070  0.8626 -0.0847
 6311SOL     OW19775   3.072   6.470   3.954  0.6638  0.4124  0.3540
 6311SOL    HW119776   3.016   6.547   3.947  0.7555  0.5043  0.6053
 6311SOL    HW219777   3.139   6.483   3.887  1.0427  0.8613  0.8146
 6312SOL     OW19778   3.341   1.552   1.030  0.4781 -0.5502 -0.1046
 6312SOL    HW119779   3.407   1.553   0.961 -0.5261  0.1943 -1.0996
 6312SOL    HW219780   3.287   1.476   1.011  0.5177 -0.6485  0.1761
 6313SOL     OW19781   6.190   1.485   5.463  0.2440  0.0817  0.1472
 6313SOL    HW119782   6.175   1.578   5.446 -1.0864  0.0283  0.8343
 6313SOL    HW219783   6.200   1.479   5.558  2.0206 -0.2929 -0.0233
 6314SOL     OW19784   4.682   3.285   4.346 -0.6492 -0.0394 -0.0919
 6314SOL    HW119785   4.714   3.319   4.262 -1.2256  1.0003  0.0978
 6314SOL    HW219786   4.674   3.190   4.331 -2.1774  0.2847 -1.7018
 6315SOL     OW19787   2.296   0.319   8.202  0.2707  0.1184  0.2966
 6315SOL    HW119788   2.272   0.309   8.110  1.0012 -1.5660  0.2491
 6315SOL    HW219789   2.388   0.347   8.200  0.2543  0.1920  0.5047
 6316SOL     OW19790   3.462   5.349   3.976  0.1818 -0.0811 -0.1135
 6316SOL    HW119791   3.510   5.407   3.916  0.2147 -0.4638 -0.4646
 6316SOL    HW219792   3.377   5.337   3.934  1.2896 -2.9465 -1.7951
 6317SOL     OW19793   7.528   5.581   1.389 -0.7333  0.3618  0.2201
 6317SOL    HW119794   7.438   5.578   1.357 -0.5838 -2.4714 -0.1742
 6317SOL    HW219795   7.546   5.492   1.418  2.5977  0.3118 -1.5544
 6318SOL     OW19796   2.651   0.774   7.405 -0.0355 -0.0742 -0.2841
 6318SOL    HW119797   2.654   0.755   7.311  0.8797  1.8607 -0.7006
 6318SOL    HW219798   2.738   0.810   7.424 -0.4546  0.1947  1.1696
 6319SOL     OW19799   3.952   5.344   1.976  0.1148 -0.0316 -0.0275
 6319SOL    HW119800   3.881   5.394   2.017  1.6039  0.7599  1.7390
 6319SOL    HW219801   3.909   5.296   1.905 -1.7077  2.3447 -0.6672
 6320SOL     OW19802   5.075   5.512   0.924 -0.4602  0.2308  0.3012
 6320SOL    HW119803   5.122   5.429   0.930  0.2952  0.6884  0.9337
 6320SOL    HW219804   5.082   5.537   0.832 -0.5907 -0.3435  0.1317
 6321SOL     OW19805   5.712   6.152   2.481 -0.0930 -0.7779 -0.1469
 6321SOL    HW119806   5.724   6.071   2.432 -1.7866 -0.9099 -0.3954
 6321SOL    HW219807   5.621   6.178   2.463  0.0495  0.5355  0.8776
 6322SOL     OW19808   4.562   5.573   8.144  0.8738  0.5673  0.2442
 6322SOL    HW119809   4.476   5.531   8.146  1.2391 -0.2111  0.4349
 6322SOL    HW219810   4.624   5.499   8.147  1.5529  1.0662 -1.0736
 6323SOL     OW19811   6.272   0.423   0.779 -0.2085  0.1029  0.3615
 6323SOL    HW119812   6.355   0.455   0.815 -0.7719  1.1856  0.7434
 6323SOL    HW219813   6.298   0.362   0.710  0.9676  2.1209 -1.0993
 6324SOL     OW19814   2.252   3.735   1.971  0.8228 -0.3200  0.4593
 6324SOL    HW119815   2.244   3.799   1.900 -2.7476 -0.1144  0.8563
 6324SOL    HW219816   2.270   3.652   1.926 -0.8969 -0.1106 -0.6944
 6325SOL     OW19817   6.693   0.646   1.451 -0.0003  0.0566 -0.0276
 6325SOL    HW119818   6.752   0.573   1.470 -0.5156 -0.0731  1.1381
 6325SOL    HW219819   6.716   0.672   1.362  0.7072 -1.0363 -0.1868
 6326SOL     OW19820   3.025   4.222   5.082 -0.4903 -0.1246 -0.2054
 6326SOL    HW119821   2.944   4.173   5.094 -0.4843 -0.5415 -1.7099
 6326SOL    HW219822   3.086   4.184   5.145 -0.9177 -1.0694 -0.3486
 6327SOL     OW19823   0.040   6.393   1.593  0.1590  0.4939  0.3793
 6327SOL    HW119824  -0.048   6.361   1.573  0.6710 -1.0447  0.4666
 6327SOL    HW219825   0.026   6.481   1.628 -1.1924  1.0927 -1.4685
 6328SOL     OW19826   0.886   3.130   3.259 -0.1250  0.6271 -0.2255
 6328SOL    HW119827   0.902   3.090   3.344 -0.0266 -1.7578 -1.2898
 6328SOL    HW219828   0.930   3.072   3.197 -0.5400  2.0807 -1.9486
 6329SOL     OW19829   3.044   3.773   1.746 -0.1891 -0.1277  0.2902
 6329SOL    HW119830   3.129   3.731   1.736  0.2679  0.9997 -0.7682
 6329SOL    HW219831   3.003   3.764   1.660 -1.2621 -0.8660  0.8459
 6330SOL     OW19832   7.002   0.587   2.867 -0.3479  0.8896  0.2649
 6330SOL    HW119833   7.093   0.579   2.838 -0.7010 -1.6536 -0.3949
 6330SOL    HW219834   6.951   0.581   2.786 -1.1500  2.2102  0.6344
 6331SOL     OW19835   0.176   4.712   0.975  0.5410  0.2117 -0.4525
 6331SOL    HW119836   0.178   4.794   1.024 -1.1616  0.6736 -1.0552
 6331SOL    HW219837   0.252   4.663   1.005  1.0407  1.6045  0.6412
 6332SOL     OW19838   3.233   2.258   3.007  0.3378  0.2129 -0.1012
 6332SOL    HW119839   3.153   2.261   3.060  1.3261 -0.3942  1.4994
 6332SOL    HW219840   3.267   2.348   3.010 -0.4142  0.5547 -1.0635
 6333SOL     OW19841   0.871   4.631   5.545  0.5708  0.2196 -0.1891
 6333SOL    HW119842   0.815   4.555   5.533  2.1603 -1.0287 -0.1108
 6333SOL    HW219843   0.837   4.696   5.483 -1.4767 -0.1251  0.4975
 6334SOL     OW19844   8.169   3.138   7.800 -0.4666 -0.2331  0.4569
 6334SOL    HW119845   8.119   3.173   7.727  1.1338 -0.4634 -0.8096
 6334SOL    HW219846   8.261   3.149   7.774  0.1283 -1.6204  1.7994
 6335SOL     OW19847   4.056   7.225   6.665  0.0084  0.0583  0.3667
 6335SOL    HW119848   4.083   7.177   6.587  0.3453 -1.4605  1.3848
 6335SOL    HW219849   3.970   7.190   6.687 -0.3962  0.9792  0.2889
 6336SOL     OW19850   2.653   3.200   6.746  0.1321  0.1481  0.4020
 6336SOL    HW119851   2.677   3.108   6.758  0.2202  0.1491  0.2510
 6336SOL    HW219852   2.654   3.211   6.651 -1.4118 -0.0950  0.3376
 6337SOL     OW19853   5.103   7.417   5.738 -0.0892 -0.3973 -0.3556
 6337SOL    HW119854   5.120   7.324   5.756  1.9121  0.0867  0.5474
 6337SOL    HW219855   5.095   7.457   5.825 -0.3990  0.3719 -0.7288
 6338SOL     OW19856   1.209   7.629   0.675 -0.0011 -0.3095 -0.0889
 6338SOL    HW119857   1.130   7.600   0.628 -0.2439  0.5424 -0.2394
 6338SOL    HW219858   1.196   7.600   0.765  0.6078 -2.2376 -0.5778
 6339SOL     OW19859   0.029   2.455   2.266 -0.1293  0.6533 -0.1203
 6339SOL    HW119860  -0.061   2.448   2.297 -0.4095  0.2160 -1.0046
 6339SOL    HW219861   0.070   2.372   2.292  0.3907  1.3415  1.3802
 6340SOL     OW19862   6.773   3.412   3.639 -0.2859 -0.1737  0.0665
 6340SOL    HW119863   6.686   3.447   3.621  0.1547  0.0273 -1.8956
 6340SOL    HW219864   6.826   3.439   3.564  1.3836 -0.6234  1.0236
 6341SOL     OW19865   3.791   3.243   5.881 -0.1188  0.1168  0.1163
 6341SOL    HW119866   3.774   3.308   5.949  0.4856 -0.1406  0.5164
 6341SOL    HW219867   3.859   3.186   5.918 -0.3147 -0.4702 -0.4066
 6342SOL     OW19868   7.578   1.507   2.815 -0.0147  0.7771 -0.9164
 6342SOL    HW119869   7.669   1.511   2.846  0.5438 -1.7515 -1.9709
 6342SOL    HW219870   7.548   1.420   2.842 -1.8754  1.2759 -1.2828
 6343SOL     OW19871   1.235   2.257   0.229  0.3878 -0.4495 -0.3530
 6343SOL    HW119872   1.325   2.284   0.246  1.0411 -1.7379 -1.5790
 6343SOL    HW219873   1.188   2.277   0.310  1.6550  0.7064  0.1287
 6344SOL     OW19874   5.217   5.211   3.015  0.0506 -0.2528 -0.2026
 6344SOL    HW119875   5.178   5.215   3.102 -0.7415  0.0208 -0.5611
 6344SOL    HW219876   5.310   5.193   3.031 -0.1490 -0.5328  0.6779
 6345SOL     OW19877   1.763   0.674   6.901  0.6754 -0.0355 -0.4023
 6345SOL    HW119878   1.707   0.714   6.835  1.1627  1.4013  0.0236
 6345SOL    HW219879   1.708   0.606   6.940 -1.2856  2.1291  0.8583
 6346SOL     OW19880   5.797   2.352   6.286 -0.3162  0.1278  0.0286
 6346SOL    HW119881   5.831   2.337   6.375 -1.5330  0.7561  0.6178
 6346SOL    HW219882   5.750   2.435   6.292  0.0743  0.4748 -1.3682
 6347SOL     OW19883   5.844   2.894   2.608  0.1715  0.9783 -0.1091
 6347SOL    HW119884   5.877   2.804   2.605 -0.0422  0.9079 -3.0706
 6347SOL    HW219885   5.749   2.886   2.600  0.2074  1.4655 -1.1763
 6348SOL     OW19886   1.795   1.137   1.732 -1.0141 -0.2926 -0.3038
 6348SOL    HW119887   1.859   1.127   1.662 -1.8628 -2.2242 -0.8626
 6348SOL    HW219888   1.846   1.167   1.807  0.1858  0.1886 -1.2874
 6349SOL     OW19889   5.451   7.858   5.240  0.7106  0.1959 -0.3891
 6349SOL    HW119890   5.532   7.907   5.254 -0.4996  1.7733  1.7659
 6349SOL    HW219891   5.403   7.909   5.175  0.5123  0.5362  0.0157
 6350SOL     OW19892   5.646   2.470   5.952  0.3396 -0.4453 -0.1884
 6350SOL    HW119893   5.585   2.407   5.990 -1.6595  1.2434 -0.4572
 6350SOL    HW219894   5.626   2.552   5.996  1.3514  0.5034 -1.4330
 6351SOL     OW19895   3.382   7.314   2.397  0.0343  0.1245 -0.1115
 6351SOL    HW119896   3.345   7.356   2.475 -0.9469 -1.0760  0.1060
 6351SOL    HW219897   3.408   7.386   2.341 -1.1017  1.0339  0.4756
 6352SOL     OW19898   5.089   2.838   4.770 -0.0618 -0.2018  0.3518
 6352SOL    HW119899   5.153   2.778   4.731 -2.6717 -2.1869 -1.2356
 6352SOL    HW219900   5.065   2.797   4.853  1.3786  1.0668  1.4345
 6353SOL     OW19901   2.755   0.818   0.241  0.2558 -0.6271 -0.3153
 6353SOL    HW119902   2.781   0.902   0.203  1.6334 -0.1862  1.4365
 6353SOL    HW219903   2.780   0.753   0.176 -1.9895  0.3221 -2.2729
 6354SOL     OW19904   3.051   6.773   1.698  0.0532 -0.2129  0.4346
 6354SOL    HW119905   3.079   6.817   1.779  0.9711  1.4052 -0.6959
 6354SOL    HW219906   3.127   6.723   1.670 -0.0821 -0.3380  0.2897
 6355SOL     OW19907   2.287   0.380   2.751 -0.3687  0.0361  0.0052
 6355SOL    HW119908   2.260   0.370   2.659 -1.7630  0.9262  0.2813
 6355SOL    HW219909   2.351   0.451   2.749  1.9058 -1.9253 -0.6305
 6356SOL     OW19910   2.623   5.674   4.709  0.3492  0.5190 -0.2137
 6356SOL    HW119911   2.678   5.671   4.630 -0.9374 -1.1677 -1.1140
 6356SOL    HW219912   2.534   5.685   4.676 -0.2093 -0.1844  0.9803
 6357SOL     OW19913   2.644   8.104   4.365 -0.3195  0.2920  0.2289
 6357SOL    HW119914   2.698   8.026   4.368 -0.5850  0.0018 -1.6149
 6357SOL    HW219915   2.562   8.078   4.408  0.2988  0.2037  1.4138
 6358SOL     OW19916   0.238   0.015   1.147 -0.2197  0.1183 -0.3344
 6358SOL    HW119917   0.156  -0.028   1.170 -1.0338  1.1889 -1.1173
 6358SOL    HW219918   0.259   0.070   1.223 -1.7197  1.9308 -1.1405
 6359SOL     OW19919   6.655   3.388   2.519  0.1522 -0.0165  0.3473
 6359SOL    HW119920   6.737   3.432   2.542 -0.0349  0.8307 -0.5580
 6359SOL    HW219921   6.642   3.408   2.427 -1.4532  0.4716  0.6457
 6360SOL     OW19922   2.929   3.746   4.173 -0.3941  0.1471  0.1773
 6360SOL    HW119923   2.959   3.792   4.252 -1.9484  0.3469  0.7009
 6360SOL    HW219924   2.834   3.737   4.186 -0.2102 -3.3026  0.1552
 6361SOL     OW19925   7.570   7.756   8.165  0.3892  0.5319  0.7452
 6361SOL    HW119926   7.585   7.754   8.070 -0.0604  1.4736  0.6474
 6361SOL    HW219927   7.477   7.774   8.174  0.2842 -0.2832  1.3749
 6362SOL     OW19928   5.589   2.118   4.999  0.2092 -0.4907 -0.0613
 6362SOL    HW119929   5.649   2.175   4.951 -1.4938  0.2128 -1.4185
 6362SOL    HW219930   5.621   2.122   5.090  1.9739  0.1468 -0.6624
 6363SOL     OW19931   0.641   1.078   1.579 -0.2431  0.0483 -0.4667
 6363SOL    HW119932   0.661   1.165   1.614  0.0405 -0.1128 -0.2221
 6363SOL    HW219933   0.722   1.049   1.538 -0.1004 -0.4270  0.1424
 6364SOL     OW19934   2.684   2.467   0.754  0.3114 -0.2587  0.1685
 6364SOL    HW119935   2.634   2.388   0.774  1.0371 -0.7577  0.0344
 6364SOL    HW219936   2.622   2.523   0.708 -0.6199 -0.1599  1.4771
 6365SOL     OW19937   4.943   3.589   6.007 -0.0815  0.1595  0.2099
 6365SOL    HW119938   4.854   3.618   6.026 -0.2185 -0.4974  0.6207
 6365SOL    HW219939   4.931   3.521   5.941  0.0626 -0.3205  0.6713
 6366SOL     OW19940   6.759   6.531   8.161  0.2369  0.1536  0.3236
 6366SOL    HW119941   6.719   6.573   8.237 -0.7336  0.6005 -0.4228
 6366SOL    HW219942   6.692   6.473   8.126  0.1007  1.1099 -1.0982
 6367SOL     OW19943   0.470   4.933   6.989 -0.5432 -0.4544  0.0120
 6367SOL    HW119944   0.409   4.983   6.935  0.2879 -0.5146 -1.0114
 6367SOL    HW219945   0.555   4.978   6.977 -0.3899 -0.2707  1.5242
 6368SOL     OW19946   1.440   3.834   3.161 -0.0102 -0.3360 -0.6331
 6368SOL    HW119947   1.384   3.819   3.084 -0.8162 -0.4101 -0.0485
 6368SOL    HW219948   1.393   3.791   3.233  0.1457  0.7128  0.1219
 6369SOL     OW19949   3.534   6.983   1.344  0.0021  0.0322  0.2155
 6369SOL    HW119950   3.537   6.951   1.435  0.0898 -0.1965  0.1334
 6369SOL    HW219951   3.476   6.922   1.299  0.2354 -0.0589  0.0376
 6370SOL     OW19952   7.969   1.070   3.005 -0.0914 -0.2803 -0.2517
 6370SOL    HW119953   8.006   1.047   3.089  2.8391  2.6187 -0.5330
 6370SOL    HW219954   7.988   0.996   2.948  0.3077 -1.1354  0.9640
 6371SOL     OW19955   5.202   5.463   7.613  0.2367  0.0160  0.0113
 6371SOL    HW119956   5.178   5.472   7.705 -1.3952 -1.6998 -0.1949
 6371SOL    HW219957   5.291   5.499   7.608  0.4962 -0.1674  2.2972
 6372SOL     OW19958   7.383   7.083   2.180  0.3775 -0.2000 -0.4811
 6372SOL    HW119959   7.411   7.154   2.122  0.8333 -0.5506 -0.6977
 6372SOL    HW219960   7.338   7.127   2.253 -2.8925  0.1492 -2.4869
 6373SOL     OW19961   5.079   6.050   0.243  0.4534 -0.0608 -0.3139
 6373SOL    HW119962   5.024   5.975   0.220  0.3464  0.6350 -2.5944
 6373SOL    HW219963   5.092   6.043   0.338 -0.7465 -2.1247 -0.2561
 6374SOL     OW19964   2.838   6.538   3.452 -0.0234  0.3606  0.1511
 6374SOL    HW119965   2.860   6.574   3.366 -1.4613  0.5839 -0.1448
 6374SOL    HW219966   2.881   6.452   3.454 -0.3231  0.1694 -0.9704
 6375SOL     OW19967   4.688   3.408   0.374 -0.5816  0.6625  0.2763
 6375SOL    HW119968   4.728   3.494   0.361  0.5062  0.0653 -0.5318
 6375SOL    HW219969   4.760   3.354   0.408 -0.8104 -0.3235 -0.7434
 6376SOL     OW19970   1.082   1.586   0.025  0.3289  0.2437 -0.1891
 6376SOL    HW119971   1.080   1.558  -0.067  0.0967 -1.4989  0.3248
 6376SOL    HW219972   1.032   1.520   0.071  1.7077  0.2757  1.4290
 6377SOL     OW19973   1.699   0.380   3.035 -0.1256 -0.0921  0.1149
 6377SOL    HW119974   1.692   0.445   2.965 -0.8118 -0.1860  0.0968
 6377SOL    HW219975   1.673   0.298   2.994  0.4885 -0.3415  0.2080
 6378SOL     OW19976   2.795   6.568   5.146  0.4061 -0.5338 -0.2054
 6378SOL    HW119977   2.804   6.480   5.184 -1.0780 -0.1038  1.2348
 6378SOL    HW219978   2.838   6.561   5.060  1.5208 -2.2746  0.4355
 6379SOL     OW19979   6.793   0.920   1.357  0.2466  0.5681  0.4154
 6379SOL    HW119980   6.826   0.854   1.417 -1.7260 -0.0231  0.9421
 6379SOL    HW219981   6.708   0.886   1.329  0.4390  1.5469 -1.5418
 6380SOL     OW19982   5.875   6.295   6.552 -0.3280 -0.2094  0.9743
 6380SOL    HW119983   5.908   6.217   6.596 -0.4432 -0.4411  0.6444
 6380SOL    HW219984   5.882   6.276   6.459  0.5129  0.5248  0.8718
 6381SOL     OW19985   7.598   1.246   5.503 -0.1954  0.4094  0.3033
 6381SOL    HW119986   7.631   1.298   5.430  0.3932  0.3558  0.5245
 6381SOL    HW219987   7.590   1.307   5.576 -1.0334  0.5179  0.1294
 6382SOL     OW19988   4.022   0.554   0.340  0.1189  0.3119 -0.2660
 6382SOL    HW119989   4.086   0.532   0.271  2.0537 -0.1447  1.5734
 6382SOL    HW219990   3.953   0.488   0.330  2.7575 -2.9805  1.1652
 6383SOL     OW19991   2.500   5.135   5.409 -0.0785 -0.1936  0.6686
 6383SOL    HW119992   2.542   5.205   5.458 -0.9098  0.7080  0.1259
 6383SOL    HW219993   2.455   5.083   5.475 -1.8257  1.4436  0.8461
 6384SOL     OW19994   0.314   4.921   5.378 -0.2878  0.4255 -0.1027
 6384SOL    HW119995   0.320   4.853   5.445  1.4974 -0.3688 -1.0163
 6384SOL    HW219996   0.221   4.945   5.376 -0.5339 -0.2486  1.9190
 6385SOL     OW19997   6.079   7.904   6.364  0.0282  0.2935 -0.4221
 6385SOL    HW119998   6.061   7.813   6.337  0.0187  0.3433 -0.5828
 6385SOL    HW219999   6.173   7.907   6.378  0.1493  0.4852 -1.2586
 6386SOL     OW20000   8.148   6.702   6.948  0.5546  0.3384  0.4635
 6386SOL    HW120001   8.079   6.725   7.010 -0.5169  1.5782 -1.1101
 6386SOL    HW220002   8.106   6.641   6.887  1.0711  0.4829 -0.0482
 6387SOL     OW20003   5.421   7.999   1.585  0.0984 -0.5226  0.0481
 6387SOL    HW120004   5.510   7.971   1.563  0.0845 -0.6354  0.1341
 6387SOL    HW220005   5.426   8.027   1.676 -0.0109 -0.7796  0.1358
 6388SOL     OW20006   5.626   6.139   0.649 -0.1065  0.0484  0.3100
 6388SOL    HW120007   5.700   6.148   0.589  0.6271  0.4255  1.2485
 6388SOL    HW220008   5.550   6.160   0.595  0.3897 -0.8905 -0.8159
 6389SOL     OW20009   1.456   0.510   6.183 -0.6004  0.1908 -0.0445
 6389SOL    HW120010   1.379   0.482   6.133 -0.3052 -2.2208  0.7609
 6389SOL    HW220011   1.419   0.550   6.262 -1.0788 -1.2503  0.4944
 6390SOL     OW20012   0.879   1.355   4.133  0.1622 -0.2226 -0.9148
 6390SOL    HW120013   0.956   1.398   4.096  1.4129 -1.7248 -0.1962
 6390SOL    HW220014   0.878   1.268   4.093 -0.2530 -0.7721  0.2200
 6391SOL     OW20015   1.422   7.279   2.866 -0.3597  0.0676  0.2540
 6391SOL    HW120016   1.517   7.292   2.862 -0.1162 -1.5881  0.1425
 6391SOL    HW220017   1.391   7.306   2.779 -0.0294  0.8092  0.3587
 6392SOL     OW20018   7.345   0.806   5.007  0.2025 -0.0150 -0.5590
 6392SOL    HW120019   7.311   0.843   4.925 -0.0772  1.5460  0.2137
 6392SOL    HW220020   7.326   0.873   5.072 -1.2979 -2.0153  1.1743
 6393SOL     OW20021   2.410   1.289   8.062 -0.3426 -0.0330 -0.3139
 6393SOL    HW120022   2.408   1.360   7.998  0.9382  1.5499  1.2697
 6393SOL    HW220023   2.328   1.298   8.111 -0.1239  0.4566 -0.0325
 6394SOL     OW20024   1.715   5.739   2.983 -0.3459 -0.0543 -0.5319
 6394SOL    HW120025   1.769   5.752   3.060 -1.4682 -0.5863  0.3765
 6394SOL    HW220026   1.704   5.827   2.947 -2.1040  0.6659  1.5438
 6395SOL     OW20027   8.106   1.365   2.127  0.2081  0.4123  0.3191
 6395SOL    HW120028   8.054   1.442   2.104  0.7690  1.3067  1.8944
 6395SOL    HW220029   8.093   1.354   2.221  3.6277  1.3350  1.0436
 6396SOL     OW20030   3.803   6.985   3.903  0.4373 -0.2475 -0.6918
 6396SOL    HW120031   3.798   6.891   3.888  1.9371 -0.3664 -0.5647
 6396SOL    HW220032   3.885   7.011   3.861 -0.5082  1.2119 -1.7533
 6397SOL     OW20033   0.989   6.892   3.538  0.0616 -0.5518  1.0082
 6397SOL    HW120034   0.913   6.837   3.553  2.0604 -3.0303  3.1090
 6397SOL    HW220035   1.012   6.927   3.624  2.8613 -2.3030  1.1298
 6398SOL     OW20036   5.037   7.824   3.149 -0.4412  0.1596  0.7966
 6398SOL    HW120037   5.075   7.772   3.220 -0.1002 -0.0178  0.4867
 6398SOL    HW220038   5.034   7.913   3.184  0.0467  0.1348  0.9085
 6399SOL     OW20039   6.260   1.851   7.895 -0.2182  0.0245 -0.1360
 6399SOL    HW120040   6.324   1.792   7.855  0.2151  0.7874 -0.6086
 6399SOL    HW220041   6.247   1.817   7.983 -0.5067 -1.1680 -0.6334
 6400SOL     OW20042   6.327   6.273   0.279 -0.3208  0.2585  0.2151
 6400SOL    HW120043   6.374   6.217   0.341  1.3105 -0.0451 -1.2193
 6400SOL    HW220044   6.336   6.228   0.195 -2.8522  0.4284 -0.2294
 6401SOL     OW20045   6.654   8.213   6.247  0.0854 -0.5677  0.5616
 6401SOL    HW120046   6.622   8.182   6.332 -1.3985  2.6872  1.3705
 6401SOL    HW220047   6.579   8.259   6.209  1.8513  1.5362 -0.6211
 6402SOL     OW20048   2.577   2.460   0.303  0.2770 -0.4879 -0.2067
 6402SOL    HW120049   2.554   2.530   0.241  2.9189 -0.3220 -1.1208
 6402SOL    HW220050   2.656   2.492   0.347  0.8409 -2.3652  0.2314
 6403SOL     OW20051   6.761   3.821   5.005 -0.3451  0.1582  0.3151
 6403SOL    HW120052   6.856   3.812   5.018 -0.4672 -0.1305  1.0293
 6403SOL    HW220053   6.753   3.891   4.940  0.3378  0.7601  0.8614
 6404SOL     OW20054   5.650   6.942   1.443 -0.1990 -0.5562  0.2928
 6404SOL    HW120055   5.680   6.972   1.358 -0.1857 -1.3845 -0.0071
 6404SOL    HW220056   5.556   6.932   1.434 -0.0208 -2.1135 -0.1190
 6405SOL     OW20057   4.461   7.325   5.860  0.1804  0.5048 -0.0225
 6405SOL    HW120058   4.412   7.293   5.785  1.2013 -0.7518 -0.2004
 6405SOL    HW220059   4.407   7.395   5.897 -1.3225 -0.2746 -0.6765
 6406SOL     OW20060   4.983   1.850   6.207  0.2184 -0.6402  0.2168
 6406SOL    HW120061   5.010   1.912   6.275  0.6465  1.7786 -2.0120
 6406SOL    HW220062   5.061   1.798   6.189 -0.1141 -1.8495  2.0321
 6407SOL     OW20063   0.584   2.412   4.223  0.2854 -0.0019  0.4468
 6407SOL    HW120064   0.511   2.464   4.190 -1.1157 -1.2065  1.4980
 6407SOL    HW220065   0.604   2.351   4.152 -1.0061 -0.8846  0.7996
 6408SOL     OW20066   3.521   1.065   8.195 -0.3227 -0.1994 -0.6395
 6408SOL    HW120067   3.434   1.079   8.232 -0.3748  1.0066 -1.1695
 6408SOL    HW220068   3.535   0.971   8.201 -1.9927 -0.5209 -1.2775
 6409SOL     OW20069   4.098   0.653   7.913  0.2288 -0.3160  0.0683
 6409SOL    HW120070   4.100   0.582   7.849  2.5289 -0.5122  0.2799
 6409SOL    HW220071   4.116   0.732   7.862 -0.9055 -0.0473  0.0550
 6410SOL     OW20072   1.680   1.835   6.178  0.1697 -0.2805 -0.1487
 6410SOL    HW120073   1.613   1.896   6.209  0.8602  0.3925  0.0324
 6410SOL    HW220074   1.752   1.891   6.148  0.9573 -1.0074  0.3458
 6411SOL     OW20075   3.921   7.255   6.349  0.0921  0.0046 -0.9332
 6411SOL    HW120076   3.838   7.293   6.320  0.2543 -0.2115 -1.6888
 6411SOL    HW220077   3.895   7.173   6.392 -0.0474 -0.3668 -1.7079
 6412SOL     OW20078   7.479   7.643   2.059 -0.3297 -0.2937  0.2164
 6412SOL    HW120079   7.434   7.632   2.143 -0.0374 -0.5821  0.3371
 6412SOL    HW220080   7.496   7.737   2.052 -1.9892  0.0118 -0.3680
 6413SOL     OW20081   7.032   0.884   4.611  0.0397  0.0800  0.3728
 6413SOL    HW120082   7.008   0.915   4.699 -2.1422  1.5132 -0.6108
 6413SOL    HW220083   7.017   0.960   4.555  0.4638 -1.0682 -1.3670
 6414SOL     OW20084   1.029   2.622   4.218 -0.0105 -0.0618 -0.0732
 6414SOL    HW120085   1.085   2.548   4.241  0.0305 -0.2089 -0.6254
 6414SOL    HW220086   1.064   2.696   4.267  0.0070 -0.3854  0.4087
 6415SOL     OW20087   6.591   7.143   3.601  0.2710 -0.3679 -0.5093
 6415SOL    HW120088   6.598   7.049   3.588  0.4491 -0.2973 -0.9279
 6415SOL    HW220089   6.580   7.153   3.696  0.8100 -0.7762 -0.3963
 6416SOL     OW20090   7.263   0.077   7.958  0.1338  0.2431 -0.0365
 6416SOL    HW120091   7.301   0.035   8.035 -1.5670 -0.4614  0.4427
 6416SOL    HW220092   7.247   0.004   7.897 -0.1181  0.5852 -0.3803
 6417SOL     OW20093   7.319   4.394   2.545 -0.1980 -0.1519  0.9396
 6417SOL    HW120094   7.337   4.464   2.608 -0.4405 -0.6815  1.6098
 6417SOL    HW220095   7.386   4.406   2.477 -1.4274  1.9322  0.0022
 6418SOL     OW20096   4.732   7.298   1.712 -0.0591  0.5775  0.2400
 6418SOL    HW120097   4.725   7.358   1.786 -0.0032 -0.5241  1.1601
 6418SOL    HW220098   4.761   7.353   1.639  1.5806  1.3795  1.4503
 6419SOL     OW20099   5.326   1.332   2.062  0.5057  0.2673  0.3566
 6419SOL    HW120100   5.247   1.299   2.019 -0.9178  0.0209  2.9682
 6419SOL    HW220101   5.389   1.261   2.056 -0.2726 -0.4216  0.2170
 6420SOL     OW20102   4.783   1.184   7.065  0.6484  0.4324 -0.3362
 6420SOL    HW120103   4.691   1.159   7.060  0.8341 -0.1728 -1.0905
 6420SOL    HW220104   4.829   1.101   7.080  1.1881  0.4588 -1.6787
 6421SOL     OW20105   5.180   2.264   1.626 -0.2219 -0.0704 -0.0703
 6421SOL    HW120106   5.126   2.235   1.553  0.4326 -0.8697 -0.2549
 6421SOL    HW220107   5.269   2.238   1.602  0.0473 -0.0827  0.8755
 6422SOL     OW20108   1.684   5.563   6.610 -0.5190 -0.2531  0.1079
 6422SOL    HW120109   1.710   5.488   6.663 -2.8464 -3.0758 -2.4422
 6422SOL    HW220110   1.617   5.607   6.663  0.5782 -0.1273  1.4587
 6423SOL     OW20111   3.770   7.506   0.941  0.0995 -0.4431  0.0900
 6423SOL    HW120112   3.821   7.425   0.936 -0.0836 -0.5851  0.5251
 6423SOL    HW220113   3.680   7.479   0.925  0.2038 -0.1189 -1.2086
 6424SOL     OW20114   6.920   0.148   7.307  0.0468 -0.2531 -0.1141
 6424SOL    HW120115   7.008   0.133   7.342 -0.3913 -2.2659  0.2596
 6424SOL    HW220116   6.866   0.079   7.346 -1.7490  1.0200 -0.2166
 6425SOL     OW20117   4.220   0.728   8.160  0.4221  0.1442 -0.1924
 6425SOL    HW120118   4.152   0.783   8.198  0.8460  1.5819 -1.4315
 6425SOL    HW220119   4.177   0.684   8.087  0.3490 -0.4418  0.1905
 6426SOL     OW20120   4.593   6.571   3.743 -0.5340 -0.1302 -0.5578
 6426SOL    HW120121   4.650   6.523   3.683 -0.3839  1.8498 -2.0976
 6426SOL    HW220122   4.505   6.536   3.727 -0.0811 -1.8254  0.4191
 6427SOL     OW20123   7.526   7.108   3.739  0.3026 -0.1409 -0.3370
 6427SOL    HW120124   7.535   7.054   3.661 -1.8468 -0.9597 -0.0944
 6427SOL    HW220125   7.500   7.046   3.808  2.2696  0.5361  1.1216
 6428SOL     OW20126   5.654   3.818   4.144  0.2588 -0.0219  0.3594
 6428SOL    HW120127   5.559   3.815   4.143  0.2483 -2.7107 -0.7639
 6428SOL    HW220128   5.678   3.860   4.062  0.1011  1.4562  1.0330
 6429SOL     OW20129   4.382   1.374   3.041 -0.0936 -0.2938  0.5605
 6429SOL    HW120130   4.459   1.419   3.006 -1.1462  0.6980 -0.5745
 6429SOL    HW220131   4.332   1.347   2.964 -1.0117 -0.7132  1.2726
 6430SOL     OW20132   5.817   1.898   3.488 -0.4243  0.1703 -0.6439
 6430SOL    HW120133   5.821   1.918   3.582  0.2082 -0.2186 -0.5777
 6430SOL    HW220134   5.850   1.977   3.445  1.1466 -0.3446 -0.4346
 6431SOL     OW20135   0.168   7.081   0.060 -1.0038 -0.0644 -0.2467
 6431SOL    HW120136   0.169   7.162   0.010 -1.6797  0.1454  0.0656
 6431SOL    HW220137   0.180   7.108   0.151 -0.9411 -0.3388 -0.1705
 6432SOL     OW20138   4.276   1.799   3.731 -1.2514 -0.1580 -0.1087
 6432SOL    HW120139   4.352   1.764   3.686 -1.0587 -0.7945  0.6950
 6432SOL    HW220140   4.256   1.735   3.800 -0.8687  1.2998  1.4277
 6433SOL     OW20141   0.668   1.103   3.803 -0.0003 -0.1017 -0.1544
 6433SOL    HW120142   0.718   1.162   3.859  0.9641 -1.4104  0.3948
 6433SOL    HW220143   0.637   1.034   3.861  0.8453 -1.3780 -1.1712
 6434SOL     OW20144   3.134   6.985   1.096 -0.5991  0.3324 -1.2991
 6434SOL    HW120145   3.114   7.078   1.107 -1.9678  0.4290 -3.7699
 6434SOL    HW220146   3.229   6.979   1.105 -0.4147  2.0964 -1.7614
 6435SOL     OW20147   2.509   2.205   3.108 -0.3464  0.0121 -0.1281
 6435SOL    HW120148   2.466   2.285   3.136 -1.4495 -0.7603  0.4733
 6435SOL    HW220149   2.447   2.135   3.130  1.3096 -1.1830  1.0538
 6436SOL     OW20150   0.971   0.156   2.260  0.1044 -0.1759  0.6036
 6436SOL    HW120151   0.994   0.118   2.175  0.3896 -1.0984  1.0830
 6436SOL    HW220152   0.916   0.090   2.302  0.5441 -0.0393  1.4193
 6437SOL     OW20153   4.722   0.010   7.501  0.0031  0.2409 -0.3767
 6437SOL    HW120154   4.798   0.008   7.442 -0.8223  0.1382 -1.4634
 6437SOL    HW220155   4.753   0.059   7.577  1.5178 -0.7972 -0.2734
 6438SOL     OW20156   5.235   0.181   0.890  0.1235 -0.4491  0.0616
 6438SOL    HW120157   5.290   0.208   0.964  1.0642  1.4429 -1.2408
 6438SOL    HW220158   5.291   0.194   0.814 -1.3940 -0.6726 -1.1215
 6439SOL     OW20159   5.880   6.941   5.271 -0.6354 -0.2697 -0.5519
 6439SOL    HW120160   5.815   6.951   5.340 -0.3252 -0.0155 -0.2911
 6439SOL    HW220161   5.902   6.848   5.272  0.1107 -0.1102  0.3935
 6440SOL     OW20162   1.453   2.420   7.556 -0.0613  0.0489 -0.1510
 6440SOL    HW120163   1.533   2.383   7.518 -1.4941 -1.3147 -1.9806
 6440SOL    HW220164   1.388   2.415   7.486 -2.9441 -2.7492  2.3976
 6441SOL     OW20165   5.829   5.748   7.962 -0.3193  0.7039  0.1598
 6441SOL    HW120166   5.876   5.689   8.021 -0.8429  1.5425  1.4598
 6441SOL    HW220167   5.738   5.717   7.965 -0.8858  2.3181  1.9280
 6442SOL     OW20168   6.473   1.455   5.834 -0.5111 -0.0750 -0.5852
 6442SOL    HW120169   6.520   1.523   5.787  0.1577 -0.1867 -0.0874
 6442SOL    HW220170   6.500   1.466   5.925  1.0050 -2.1103 -0.7194
 6443SOL     OW20171   3.343   0.667   6.655 -0.0015  0.2969  0.5661
 6443SOL    HW120172   3.376   0.606   6.589 -1.8146 -1.0288  0.8283
 6443SOL    HW220173   3.420   0.718   6.681  1.1654 -0.5454 -1.0672
 6444SOL     OW20174   8.082   2.680   3.800 -0.4845 -0.1397  0.1039
 6444SOL    HW120175   8.006   2.693   3.857 -1.6852 -1.1110 -1.2151
 6444SOL    HW220176   8.064   2.733   3.723  1.0892  1.0917  0.5186
 6445SOL     OW20177   0.781   6.187   7.180  0.6098 -0.4074 -0.0981
 6445SOL    HW120178   0.800   6.245   7.106 -3.0623  0.9512 -0.1921
 6445SOL    HW220179   0.795   6.242   7.258  0.7443 -0.6097  0.0223
 6446SOL     OW20180   8.212   7.681   5.557 -0.1392 -0.2565 -0.1511
 6446SOL    HW120181   8.283   7.695   5.619 -0.1473 -1.2676  0.1002
 6446SOL    HW220182   8.160   7.761   5.560  1.1443  0.6097 -0.5450
 6447SOL     OW20183   7.495   3.227   0.510 -0.6276 -0.4548 -0.5185
 6447SOL    HW120184   7.438   3.162   0.550 -2.6225  0.7566 -1.1800
 6447SOL    HW220185   7.521   3.189   0.426 -2.4819 -0.1490 -1.2898
 6448SOL     OW20186   6.337   1.590   3.637  0.6430 -0.7870 -0.4364
 6448SOL    HW120187   6.419   1.636   3.618  1.5085 -0.5804  3.1265
 6448SOL    HW220188   6.359   1.529   3.707 -2.5753  0.7466  2.1980
 6449SOL     OW20189   6.585   6.371   4.270  0.2438 -0.3400  0.6455
 6449SOL    HW120190   6.678   6.384   4.291 -0.1966  0.2642  2.3357
 6449SOL    HW220191   6.538   6.404   4.346 -1.3747 -0.7926 -0.1142
 6450SOL     OW20192   5.303   1.424   2.393  0.2377  0.5240 -0.5767
 6450SOL    HW120193   5.280   1.395   2.305 -0.1744 -0.1075 -0.2643
 6450SOL    HW220194   5.297   1.345   2.447 -0.8539  1.1582  0.2825
 6451SOL     OW20195   5.451   4.502   5.807  0.5138  0.0205 -0.3016
 6451SOL    HW120196   5.490   4.415   5.803  0.7804  0.1797 -1.6619
 6451SOL    HW220197   5.372   4.491   5.859  0.6877 -0.9744 -0.2300
 6452SOL     OW20198   1.015   7.479   4.186 -0.1250  0.0271 -0.6445
 6452SOL    HW120199   0.986   7.389   4.175  0.1493 -0.1448  0.0148
 6452SOL    HW220200   1.095   7.485   4.132  0.0987 -0.2467 -0.3456
 6453SOL     OW20201   4.255   7.595   2.666  1.1436  0.0685 -0.4938
 6453SOL    HW120202   4.327   7.533   2.676  0.3582 -1.0887 -1.6935
 6453SOL    HW220203   4.295   7.673   2.627  1.8640 -0.2992 -0.5079
 6454SOL     OW20204   5.758   5.414   5.324  0.1606 -0.3916  0.0393
 6454SOL    HW120205   5.676   5.373   5.298  0.0331  0.5461 -1.0860
 6454SOL    HW220206   5.739   5.458   5.406 -0.7070  0.5753 -0.6727
 6455SOL     OW20207   4.474   7.291   7.128 -0.2084  0.8432 -0.6317
 6455SOL    HW120208   4.476   7.375   7.175 -2.6443  0.4319  0.3476
 6455SOL    HW220209   4.381   7.272   7.116  0.0347 -3.2200  1.9968
 6456SOL     OW20210   5.577   5.863   7.440  0.8384  0.4747 -0.0317
 6456SOL    HW120211   5.598   5.956   7.450  2.3528  0.0367  1.4596
 6456SOL    HW220212   5.529   5.840   7.519 -0.7787  0.2586 -1.0284
 6457SOL     OW20213   2.123   3.497   7.603 -0.0278 -0.7780  0.1654
 6457SOL    HW120214   2.215   3.520   7.618  0.2393 -0.5010 -1.6979
 6457SOL    HW220215   2.077   3.533   7.679  1.1234  1.0192  0.0710
 6458SOL     OW20216   5.324   4.395   4.797 -0.2478 -0.1634  0.0816
 6458SOL    HW120217   5.276   4.339   4.858 -1.2286 -0.4585 -0.9281
 6458SOL    HW220218   5.287   4.374   4.711 -1.0272  2.3960 -0.2905
 6459SOL     OW20219   5.184   7.868   0.937 -0.2324  0.3630  0.2120
 6459SOL    HW120220   5.239   7.822   0.874  0.3946  0.6008  0.5660
 6459SOL    HW220221   5.175   7.957   0.901  0.5646  0.6529  0.7025
 6460SOL     OW20222   5.440   2.364   6.396 -0.4324  0.6342  0.5012
 6460SOL    HW120223   5.490   2.306   6.338  0.1693  2.1174 -0.5415
 6460SOL    HW220224   5.401   2.428   6.336 -2.2500  0.4841  1.4692
 6461SOL     OW20225   6.808   0.051   2.375 -0.4857  0.9196 -0.2957
 6461SOL    HW120226   6.722   0.058   2.417  0.4867  1.5633  1.6502
 6461SOL    HW220227   6.809   0.122   2.311 -2.2685 -0.5321 -2.0841
 6462SOL     OW20228   2.067   4.166   6.083 -0.0925 -0.5484 -0.3622
 6462SOL    HW120229   2.145   4.218   6.065 -1.5343  1.4789 -1.2034
 6462SOL    HW220230   2.065   4.158   6.179 -0.6551  2.5141  0.0005
 6463SOL     OW20231   6.811   1.263   1.968 -0.1032 -0.3145 -0.3492
 6463SOL    HW120232   6.887   1.316   1.990 -0.7520  0.0471  1.1709
 6463SOL    HW220233   6.806   1.197   2.037 -0.3302 -1.2648 -1.2448
 6464SOL     OW20234   1.285   1.732   8.060  0.7670  0.2172  0.5091
 6464SOL    HW120235   1.214   1.789   8.029 -0.6645 -1.3574  0.7252
 6464SOL    HW220236   1.257   1.703   8.147  0.4053 -2.3509 -0.3524
 6465SOL     OW20237   7.311   0.657   2.583  0.2084 -0.5000  0.0108
 6465SOL    HW120238   7.393   0.621   2.549  0.2980 -0.6882  0.4204
 6465SOL    HW220239   7.242   0.616   2.531  0.3920 -0.0048 -0.6387
 6466SOL     OW20240   5.312   3.510   5.691  0.4986  0.2843 -0.8142
 6466SOL    HW120241   5.270   3.451   5.753  2.3558 -0.1703  0.0987
 6466SOL    HW220242   5.301   3.467   5.606 -2.3720  1.0888 -0.9514
 6467SOL     OW20243   6.442   2.507   8.158 -0.6981  0.3023 -0.2790
 6467SOL    HW120244   6.490   2.424   8.166 -1.3229  0.0228  0.6930
 6467SOL    HW220245   6.511   2.574   8.162 -0.0066 -0.1488 -2.6039
 6468SOL     OW20246   0.152   4.374   1.818 -0.9506  0.4717  0.2385
 6468SOL    HW120247   0.163   4.291   1.863 -1.4819  1.6872  2.7688
 6468SOL    HW220248   0.207   4.435   1.867  0.3653  1.4633 -2.2567
 6469SOL     OW20249   5.555   4.984   2.774  0.0961 -0.2184  0.3958
 6469SOL    HW120250   5.624   4.926   2.743  0.3480 -0.9796  2.2508
 6469SOL    HW220251   5.595   5.033   2.846 -0.6163  1.0404 -0.0262
 6470SOL     OW20252   0.039   7.967   3.825  0.2536  0.4272 -0.5304
 6470SOL    HW120253   0.071   7.877   3.831 -0.6080  0.2004  1.3336
 6470SOL    HW220254  -0.002   7.972   3.739  0.5134 -0.8879 -0.7563
 6471SOL     OW20255   4.297   6.185   8.005  0.0594 -0.1454  0.0820
 6471SOL    HW120256   4.296   6.141   8.089  1.6249 -1.0258 -0.3233
 6471SOL    HW220257   4.362   6.137   7.953 -0.1377  0.9912 -1.2792
 6472SOL     OW20258   6.900   8.029   4.764 -0.3353 -0.1950 -0.2049
 6472SOL    HW120259   6.909   8.124   4.752 -1.5252 -0.0469 -0.0519
 6472SOL    HW220260   6.967   8.006   4.828  0.9519  0.2849 -1.3477
 6473SOL     OW20261   0.966   3.142   7.767 -0.2315  0.0682 -0.5793
 6473SOL    HW120262   0.906   3.204   7.809  0.2827 -0.2293  0.6518
 6473SOL    HW220263   0.921   3.115   7.687 -0.2275  2.4494 -1.4601
 6474SOL     OW20264   3.461   6.486   3.331  0.2945 -0.3336  0.1926
 6474SOL    HW120265   3.414   6.495   3.414  0.6737  1.7065  0.2410
 6474SOL    HW220266   3.548   6.453   3.356  0.1321 -0.5270  0.5119
 6475SOL     OW20267   1.840   3.104   7.691  0.0461 -0.2108  0.1924
 6475SOL    HW120268   1.925   3.146   7.682 -0.6010  1.3329  0.8990
 6475SOL    HW220269   1.823   3.103   7.785 -2.0429  2.4661 -0.0141
 6476SOL     OW20270   2.002   1.843   3.813  0.5697  0.0726 -0.0211
 6476SOL    HW120271   1.997   1.754   3.850  1.6196  0.0993  0.2296
 6476SOL    HW220272   1.917   1.857   3.771  0.1027 -0.7514  0.6213
 6477SOL     OW20273   3.530   1.660   7.635  0.1637  0.1313 -0.1737
 6477SOL    HW120274   3.592   1.676   7.706  1.6184 -0.2234 -1.3073
 6477SOL    HW220275   3.540   1.736   7.577 -0.8150  0.2947 -0.1438
 6478SOL     OW20276   4.784   1.115   0.346 -0.2164  0.2113 -0.3313
 6478SOL    HW120277   4.748   1.076   0.426 -1.5273  0.8183 -0.5995
 6478SOL    HW220278   4.825   1.041   0.300 -1.3690 -0.5893 -0.1282
 6479SOL     OW20279   8.055   2.349   7.429  0.0438 -0.6851 -0.6466
 6479SOL    HW120280   8.122   2.382   7.489  0.0598 -0.1039 -0.9792
 6479SOL    HW220281   8.023   2.427   7.383 -0.0804 -1.0977 -1.2780
 6480SOL     OW20282   6.585   1.925   1.905  0.2058  0.6088  0.1534
 6480SOL    HW120283   6.588   1.986   1.831 -2.5660  4.0625  2.5216
 6480SOL    HW220284   6.665   1.943   1.954  2.1325 -1.8066 -1.8513
 6481SOL     OW20285   5.680   0.936   0.101 -0.9857  0.2318 -0.1989
 6481SOL    HW120286   5.698   0.876   0.173  0.1988 -0.1667 -0.8044
 6481SOL    HW220287   5.660   0.879   0.027 -0.1661  0.5783 -0.7023
 6482SOL     OW20288   8.016   6.605   6.653  0.0340  0.6370 -0.2692
 6482SOL    HW120289   7.969   6.686   6.629 -0.7786 -0.2674 -1.8873
 6482SOL    HW220290   8.074   6.588   6.578  1.0720  0.3268  0.5776
 6483SOL     OW20291   4.464   7.468   4.385  0.4679  0.2061 -0.4220
 6483SOL    HW120292   4.505   7.405   4.444 -2.2882 -2.1213 -0.7325
 6483SOL    HW220293   4.485   7.436   4.297 -0.5160  0.0030 -0.5942
 6484SOL     OW20294   3.098   5.568   6.950  0.1454  0.3865  0.0306
 6484SOL    HW120295   3.022   5.621   6.928 -0.3738 -0.3961 -0.1078
 6484SOL    HW220296   3.069   5.515   7.025  0.6578  0.3082  0.1774
 6485SOL     OW20297   5.252   2.241   1.879  0.4806 -0.4939  0.0649
 6485SOL    HW120298   5.213   2.252   1.792 -0.9904  0.0468  0.7525
 6485SOL    HW220299   5.180   2.211   1.934  1.7192 -2.2679  0.8173
 6486SOL     OW20300   6.112   5.263   7.099 -0.3068 -0.3754  0.5204
 6486SOL    HW120301   6.117   5.224   7.011 -0.3837 -0.1690  0.4235
 6486SOL    HW220302   6.172   5.211   7.152  1.8552  1.1873 -0.2789
 6487SOL     OW20303   0.267   7.042   1.611  0.2655 -0.6946 -0.7060
 6487SOL    HW120304   0.189   7.096   1.598  1.4909  1.7748  1.3438
 6487SOL    HW220305   0.336   7.087   1.562  1.1142 -0.9396  0.2346
 6488SOL     OW20306   1.582   7.260   1.573  0.1740 -0.3722  0.2549
 6488SOL    HW120307   1.525   7.255   1.650 -0.0144  0.4673  0.1832
 6488SOL    HW220308   1.670   7.252   1.608  0.0382 -1.3975  0.3998
 6489SOL     OW20309   4.987   2.643   0.241 -0.3941 -0.5084 -0.1608
 6489SOL    HW120310   4.903   2.617   0.279 -2.0275  1.2774 -2.2663
 6489SOL    HW220311   4.967   2.724   0.193  2.7135  0.3838 -0.1428
 6490SOL     OW20312   6.331   2.763   4.907 -0.0099 -0.3583 -0.1267
 6490SOL    HW120313   6.342   2.743   5.000  2.4581  0.4391 -0.1678
 6490SOL    HW220314   6.355   2.683   4.861  1.1268 -0.0320 -0.1129
 6491SOL     OW20315   4.775   4.085   0.117 -0.4520  0.0466  0.1278
 6491SOL    HW120316   4.835   4.139   0.168  0.1248  0.0688 -0.5626
 6491SOL    HW220317   4.771   4.002   0.164 -1.6767  0.8025  1.4381
 6492SOL     OW20318   4.653   6.607   7.328 -0.2157  0.0785 -0.1642
 6492SOL    HW120319   4.586   6.623   7.261 -1.7585 -1.4561  0.9291
 6492SOL    HW220320   4.607   6.621   7.411  0.7581 -1.2338  0.6178
 6493SOL     OW20321   7.770   0.323   5.333 -0.0550 -0.0456  0.1442
 6493SOL    HW120322   7.833   0.291   5.398  0.2879  0.0303 -0.1462
 6493SOL    HW220323   7.823   0.372   5.270 -0.5557  0.9505  0.4885
 6494SOL     OW20324   6.940   6.271   4.594  0.1918 -0.2279 -0.1140
 6494SOL    HW120325   6.928   6.363   4.619  1.1533 -0.1986  0.2590
 6494SOL    HW220326   6.974   6.229   4.672  0.1769 -0.8161 -0.4214
 6495SOL     OW20327   0.775   7.216   6.235 -0.1354  0.0736  0.3852
 6495SOL    HW120328   0.861   7.256   6.225  0.6765 -1.8221 -0.8365
 6495SOL    HW220329   0.776   7.175   6.321  1.7164 -3.0686 -0.9320
 6496SOL     OW20330   3.370   3.175   0.252  0.3960 -0.5235 -0.0006
 6496SOL    HW120331   3.465   3.176   0.262  0.9031  3.8082 -2.3858
 6496SOL    HW220332   3.355   3.154   0.160 -0.4787  2.6811 -0.7283
 6497SOL     OW20333   3.175   1.753   8.010  0.0084 -0.3227  0.4011
 6497SOL    HW120334   3.207   1.695   7.941 -0.2164 -1.0103  0.8597
 6497SOL    HW220335   3.206   1.713   8.091 -0.1837  0.1815  0.7322
 6498SOL     OW20336   7.224   4.271   1.256 -0.5734 -0.2511 -0.4439
 6498SOL    HW120337   7.161   4.264   1.185 -0.6635  2.3468 -0.7127
 6498SOL    HW220338   7.216   4.361   1.287  4.0299  0.8305 -1.5062
 6499SOL     OW20339   7.203   1.781   5.776  0.6137  0.1406  0.6664
 6499SOL    HW120340   7.270   1.843   5.747  1.2489 -1.5781 -1.8321
 6499SOL    HW220341   7.250   1.718   5.829  1.1989 -1.3615 -1.5129
 6500SOL     OW20342   5.139   0.685   1.639 -0.2764  0.0250 -0.0038
 6500SOL    HW120343   5.160   0.669   1.547 -1.9296 -1.1566 -0.2188
 6500SOL    HW220344   5.210   0.642   1.688  0.5251  0.5230 -0.7141
 6501SOL     OW20345   3.956   1.825   7.562 -0.1354 -0.0084 -0.4432
 6501SOL    HW120346   3.948   1.742   7.610  0.6823 -0.6938 -1.4330
 6501SOL    HW220347   3.909   1.888   7.615 -1.2235 -1.2131  0.0940
 6502SOL     OW20348   4.105   0.094   5.192  0.4485 -0.1166  0.0670
 6502SOL    HW120349   4.171   0.102   5.124  0.6859 -1.0670  0.1745
 6502SOL    HW220350   4.126   0.162   5.255 -0.6939  1.8349 -1.5351
 6503SOL     OW20351   3.525   1.393   1.974 -0.0637  0.8075  0.0539
 6503SOL    HW120352   3.532   1.484   1.946  1.9264  1.1144  1.3012
 6503SOL    HW220353   3.479   1.397   2.058 -1.0950  0.4936 -0.4773
 6504SOL     OW20354   3.302   6.977   6.573  0.6858 -0.1585 -0.0624
 6504SOL    HW120355   3.361   6.910   6.539 -1.0791 -2.6914  1.5715
 6504SOL    HW220356   3.221   6.966   6.523 -0.3893 -0.8703  1.7542
 6505SOL     OW20357   8.073   5.302   2.777 -0.2229 -0.0281  0.4130
 6505SOL    HW120358   8.082   5.390   2.813 -1.5648  0.3399 -0.0779
 6505SOL    HW220359   8.161   5.265   2.780  0.4077  1.4275  0.3844
 6506SOL     OW20360   5.563   6.876   3.351  0.0857 -0.5185 -0.3193
 6506SOL    HW120361   5.597   6.877   3.441 -0.6146  0.7609 -0.0571
 6506SOL    HW220362   5.630   6.827   3.301  1.0165 -0.3037  0.6756
 6507SOL     OW20363   2.212   1.193   5.595  0.1311  0.3315 -0.6081
 6507SOL    HW120364   2.201   1.226   5.506  0.0469  0.3353 -0.5961
 6507SOL    HW220365   2.133   1.222   5.642  0.4854  0.8935 -0.3594
 6508SOL     OW20366   7.888   1.508   5.816  0.0561  0.3266  0.1713
 6508SOL    HW120367   7.845   1.500   5.731  0.2424 -1.4591  0.2182
 6508SOL    HW220368   7.957   1.442   5.816 -0.8768 -0.7621  2.2329
 6509SOL     OW20369   3.647   0.436   7.423 -0.0063 -0.0111  0.3392
 6509SOL    HW120370   3.578   0.370   7.429  1.5175 -1.6812  0.1729
 6509SOL    HW220371   3.720   0.391   7.381  1.0764  1.8146  0.1703
 6510SOL     OW20372   2.486   1.944   7.618  0.5926  0.3993  0.4656
 6510SOL    HW120373   2.507   1.937   7.711  2.3100  1.4067  0.1815
 6510SOL    HW220374   2.503   2.035   7.596 -0.0454  0.2386 -0.7945
 6511SOL     OW20375   8.177   4.692   7.274  0.0262 -0.1698  0.0331
 6511SOL    HW120376   8.240   4.747   7.228 -0.6031  0.2140 -0.3834
 6511SOL    HW220377   8.226   4.612   7.294  1.1797  0.8062  1.3029
 6512SOL     OW20378   7.727   1.891   1.196 -0.5033 -0.0849  0.1165
 6512SOL    HW120379   7.820   1.871   1.186 -0.5373  0.4284 -1.5227
 6512SOL    HW220380   7.687   1.805   1.213  0.2559 -0.3051  0.8861
 6513SOL     OW20381   1.418   7.359   6.015 -0.0918  0.0887  0.4808
 6513SOL    HW120382   1.462   7.280   6.045  0.8712 -0.4330 -2.0605
 6513SOL    HW220383   1.489   7.414   5.980 -1.0489  0.8410 -0.3348
 6514SOL     OW20384   5.275   3.494   1.243  0.0292  0.0522  0.4028
 6514SOL    HW120385   5.261   3.451   1.327 -0.9802  2.4417  1.5689
 6514SOL    HW220386   5.214   3.451   1.183  0.0180 -1.0093  1.1568
 6515SOL     OW20387   4.851   5.407   0.689  0.7194  0.5941  0.3205
 6515SOL    HW120388   4.844   5.485   0.744  0.3834 -1.4350  3.3563
 6515SOL    HW220389   4.856   5.334   0.750  0.3192 -1.8847 -2.3724
 6516SOL     OW20390   4.104   7.779   0.890  0.1994 -0.4096 -0.6659
 6516SOL    HW120391   4.009   7.782   0.890  0.1526 -0.3957 -2.9792
 6516SOL    HW220392   4.126   7.713   0.956 -1.3294  0.4345  0.7443
 6517SOL     OW20393   0.433   1.537   4.847  0.1924 -0.5276  0.1274
 6517SOL    HW120394   0.405   1.625   4.822  0.2533 -0.5031  0.1440
 6517SOL    HW220395   0.514   1.523   4.799 -0.3447 -0.9754 -0.6772
 6518SOL     OW20396   6.907   6.683   2.836 -0.2223 -0.0101  0.0141
 6518SOL    HW120397   6.871   6.707   2.751  2.7660  0.6455 -1.2180
 6518SOL    HW220398   6.940   6.765   2.873  1.4780 -0.7254  0.2120
 6519SOL     OW20399   7.415   3.123   4.095  0.2762  0.1386 -0.3388
 6519SOL    HW120400   7.353   3.191   4.122  0.2417  0.2334 -0.6572
 6519SOL    HW220401   7.497   3.147   4.138 -0.2036 -0.6373  1.0450
 6520SOL     OW20402   6.836   5.877   2.455  0.0551 -0.8211 -0.4506
 6520SOL    HW120403   6.850   5.968   2.483 -0.4147 -0.6092 -0.8922
 6520SOL    HW220404   6.774   5.842   2.519  0.5708 -0.9674 -0.0238
 6521SOL     OW20405   7.373   0.589   2.863  0.3858  0.6161  0.7908
 6521SOL    HW120406   7.384   0.496   2.844  0.6866  0.5043  1.4746
 6521SOL    HW220407   7.347   0.628   2.779 -0.4019 -0.1831  0.6443
 6522SOL     OW20408   5.305   1.817   2.947 -0.5112  0.3335 -0.4306
 6522SOL    HW120409   5.276   1.862   2.869 -1.1034  1.4298  0.4002
 6522SOL    HW220410   5.400   1.831   2.950 -0.1860 -1.2675 -1.8954
 6523SOL     OW20411   6.484   5.689   4.099  0.0567 -0.8543 -0.9699
 6523SOL    HW120412   6.561   5.673   4.154  0.8948  1.7895 -1.2302
 6523SOL    HW220413   6.421   5.731   4.158  0.3468  0.5294 -1.6082
 6524SOL     OW20414   1.942   6.729   2.363 -0.2193  0.0289 -0.7093
 6524SOL    HW120415   2.002   6.723   2.289  2.2643  0.7564  1.1195
 6524SOL    HW220416   1.915   6.821   2.365  1.6333  0.6000  0.6074
 6525SOL     OW20417   0.206   0.715   3.860 -0.6177 -0.2679 -0.0639
 6525SOL    HW120418   0.238   0.735   3.772 -0.6447  0.6185  0.1188
 6525SOL    HW220419   0.168   0.797   3.891  0.4404 -0.2335  1.2222
 6526SOL     OW20420   3.076   0.237   3.853  0.3572 -0.6754  0.3366
 6526SOL    HW120421   3.025   0.157   3.867 -0.2793 -0.0896  1.5262
 6526SOL    HW220422   3.027   0.305   3.899  1.5478  0.1683  0.4040
 6527SOL     OW20423   7.174   0.940   3.121 -0.3799  0.0459  0.4135
 6527SOL    HW120424   7.195   0.849   3.142 -1.7809 -0.4024 -0.0082
 6527SOL    HW220425   7.082   0.950   3.147 -0.0505  1.5611  1.1223
 6528SOL     OW20426   1.424   2.923   7.675  0.4116  0.2411  0.2029
 6528SOL    HW120427   1.517   2.907   7.685  0.4806  0.3327 -0.2364
 6528SOL    HW220428   1.382   2.859   7.732  0.7465  0.3364  0.5586
 6529SOL     OW20429   2.853   7.997   6.376 -0.4787 -0.1503  0.0632
 6529SOL    HW120430   2.817   7.908   6.384 -1.8682  0.0319 -2.6695
 6529SOL    HW220431   2.944   7.983   6.351 -0.4256 -0.7852  0.5809
 6530SOL     OW20432   4.110   6.468   6.995 -1.1224 -0.6162  0.0250
 6530SOL    HW120433   4.064   6.528   7.053 -1.2408  1.2964 -1.9347
 6530SOL    HW220434   4.185   6.437   7.046 -1.1812  1.0238  1.1619
 6531SOL     OW20435   7.055   7.603   3.465 -0.0864  0.2649 -0.9459
 6531SOL    HW120436   7.031   7.565   3.380 -0.9019 -1.3007 -0.0607
 6531SOL    HW220437   7.071   7.527   3.521 -1.1524  1.2310  0.7480
 6532SOL     OW20438   2.937   3.486   4.316  0.1896 -0.2544  0.1418
 6532SOL    HW120439   2.898   3.573   4.302  0.1162 -0.5090 -1.5212
 6532SOL    HW220440   3.028   3.496   4.287  0.0377 -0.8384 -0.5856
 6533SOL     OW20441   1.133   2.976   5.168 -0.1973  0.4540  0.0467
 6533SOL    HW120442   1.225   2.952   5.169 -0.6348 -1.3518  0.3668
 6533SOL    HW220443   1.120   3.018   5.083  1.1229  1.7030  0.4240
 6534SOL     OW20444   8.051   7.609   6.031 -0.0251 -0.0442 -0.2675
 6534SOL    HW120445   8.127   7.662   6.053 -1.7876  1.4626  3.0048
 6534SOL    HW220446   7.996   7.667   5.978 -0.7769  0.5117  1.0785
 6535SOL     OW20447   2.751   3.045   2.944  0.0090 -0.4164  0.0108
 6535SOL    HW120448   2.704   3.060   3.025 -1.0998 -0.1117 -0.6667
 6535SOL    HW220449   2.833   3.004   2.971 -0.3555 -0.3547  1.2693
 6536SOL     OW20450   1.320   3.041   3.071  0.2508  0.2316 -0.3686
 6536SOL    HW120451   1.253   3.028   3.004 -1.8321  0.5132  1.5632
 6536SOL    HW220452   1.355   2.954   3.089 -1.5436 -0.3526  0.4802
 6537SOL     OW20453   3.164   7.626   3.713  0.2339 -0.3208  0.2695
 6537SOL    HW120454   3.181   7.710   3.669 -0.8951 -0.9178 -1.3900
 6537SOL    HW220455   3.165   7.648   3.806  1.4744  1.2357 -0.0564
 6538SOL     OW20456   6.311   0.875   6.908  0.3895  0.0469 -0.1613
 6538SOL    HW120457   6.368   0.934   6.860  0.5574  0.1677  0.1859
 6538SOL    HW220458   6.251   0.933   6.956 -0.9972 -0.0743 -1.6661
 6539SOL     OW20459   5.364   7.812   6.648 -0.2384  0.0579  0.5076
 6539SOL    HW120460   5.414   7.892   6.662 -0.7299  0.5226 -0.3111
 6539SOL    HW220461   5.422   7.742   6.679  1.4032  0.4715 -1.3788
 6540SOL     OW20462   4.246   7.993   1.957 -0.2695 -0.2561  0.3138
 6540SOL    HW120463   4.269   8.069   1.905  4.1448 -0.3038  1.7235
 6540SOL    HW220464   4.216   7.928   1.894  1.4378  0.8316 -1.7500
 6541SOL     OW20465   7.098   2.549   7.458  0.1619 -0.3728  0.2969
 6541SOL    HW120466   7.133   2.632   7.426  1.4646 -0.9232  0.2520
 6541SOL    HW220467   7.019   2.536   7.406  0.0644  0.7141  0.1354
 6542SOL     OW20468   6.046   4.700   5.469  0.0184 -0.1731  0.3028
 6542SOL    HW120469   6.033   4.605   5.464 -0.3875 -0.0958 -0.2028
 6542SOL    HW220470   5.958   4.737   5.469  0.0975  0.1433  2.4466
 6543SOL     OW20471   8.075   5.405   0.983  0.3415 -0.1667  0.4718
 6543SOL    HW120472   8.169   5.419   0.973  0.2676  0.6344  0.8493
 6543SOL    HW220473   8.049   5.464   1.054 -0.6400  0.4418 -0.3690
 6544SOL     OW20474   4.830   0.924   1.461  0.1302 -0.2278  0.1889
 6544SOL    HW120475   4.910   0.916   1.409  1.4359  1.6822  1.7220
 6544SOL    HW220476   4.759   0.922   1.397  1.6192  1.5916 -1.6617
 6545SOL     OW20477   6.255   1.261   2.989 -0.2258  0.0786  0.2478
 6545SOL    HW120478   6.181   1.215   2.950 -2.0910  1.0833  2.3733
 6545SOL    HW220479   6.293   1.198   3.051  0.5232 -0.3291 -0.6133
 6546SOL     OW20480   0.917   2.202   5.582 -0.7786  0.4412  0.2065
 6546SOL    HW120481   1.009   2.227   5.571 -0.8488  1.2629  1.2959
 6546SOL    HW220482   0.920   2.107   5.597 -0.1885  0.3275 -0.5663
 6547SOL     OW20483   5.196   2.099   0.793 -0.3224  0.1869 -0.5260
 6547SOL    HW120484   5.191   2.014   0.836 -0.4981  0.0894 -0.7401
 6547SOL    HW220485   5.290   2.118   0.786 -0.2987  0.6344  0.7531
 6548SOL     OW20486   6.631   0.657   1.040 -0.7530  0.7791  0.3200
 6548SOL    HW120487   6.696   0.602   1.083 -0.7729 -0.2008 -0.8379
 6548SOL    HW220488   6.588   0.704   1.111  1.6728  2.0150  1.1115
 6549SOL     OW20489   2.848   4.983   1.250  0.4903  0.2434 -0.6357
 6549SOL    HW120490   2.845   5.047   1.322  0.4390  1.1930 -1.4663
 6549SOL    HW220491   2.759   4.947   1.248 -0.7725  3.1062 -2.7331
 6550SOL     OW20492   0.761   1.045   7.540 -0.4055  0.0705 -0.1748
 6550SOL    HW120493   0.780   1.132   7.505 -1.2349  0.1392 -0.4901
 6550SOL    HW220494   0.795   1.046   7.629 -1.0790  0.9840  0.0837
 6551SOL     OW20495   0.824   7.425   1.807  0.1318  0.6646  0.2454
 6551SOL    HW120496   0.872   7.420   1.724 -0.4103  1.1648 -0.1033
 6551SOL    HW220497   0.736   7.453   1.782 -0.6705 -1.2700  0.7758
 6552SOL     OW20498   8.013   6.773   3.080  0.2265  0.9463  0.5258
 6552SOL    HW120499   7.928   6.762   3.039  0.2963  1.1156  0.3350
 6552SOL    HW220500   8.014   6.709   3.151 -0.1961  1.1799  0.7493
 6553SOL     OW20501   3.865   0.869   2.375 -0.1121  0.1996 -0.3830
 6553SOL    HW120502   3.846   0.850   2.467 -2.5191  0.2035 -0.8246
 6553SOL    HW220503   3.867   0.784   2.332 -2.2341  0.3218 -0.8374
 6554SOL     OW20504   4.162   4.673   3.944  0.1687 -0.4654  0.1206
 6554SOL    HW120505   4.084   4.644   3.898  1.4329 -2.4182 -0.9298
 6554SOL    HW220506   4.138   4.669   4.037 -0.7059 -2.0139 -0.1285
 6555SOL     OW20507   0.957   3.335   7.190  0.6639  0.4472 -0.6601
 6555SOL    HW120508   0.913   3.346   7.275 -0.3331  1.2806 -1.2469
 6555SOL    HW220509   0.907   3.266   7.146 -0.2476  1.5573 -1.4232
 6556SOL     OW20510   4.879   6.463   7.470  0.5710 -0.6637 -0.3034
 6556SOL    HW120511   4.820   6.494   7.401 -0.4215  0.6857  1.0585
 6556SOL    HW220512   4.841   6.380   7.498 -0.5994  0.0653  0.3761
 6557SOL     OW20513   3.361   2.262   4.567 -0.5687  0.1773  0.2170
 6557SOL    HW120514   3.383   2.344   4.525  1.9996 -1.1817 -1.2955
 6557SOL    HW220515   3.399   2.269   4.655  0.4610  0.2453 -0.2306
 6558SOL     OW20516   8.191   4.041   6.319  0.1737 -0.0623  0.0127
 6558SOL    HW120517   8.206   3.974   6.252  1.0068 -0.4077  0.5225
 6558SOL    HW220518   8.217   4.123   6.277 -0.2756 -0.1348 -0.4159
 6559SOL     OW20519   1.585   7.906   3.264 -0.3971  0.7668  0.0146
 6559SOL    HW120520   1.578   7.884   3.357  0.1249  0.0725 -0.0997
 6559SOL    HW220521   1.670   7.947   3.255 -0.9475  1.9589  0.0414
 6560SOL     OW20522   7.077   6.587   5.939 -0.4776 -0.1757  0.9080
 6560SOL    HW120523   7.154   6.532   5.951  1.3147  2.1245  0.5100
 6560SOL    HW220524   7.066   6.632   6.022 -3.8491 -3.2246  2.3708
 6561SOL     OW20525   7.002   2.421   4.730  0.2952  0.3164  0.2183
 6561SOL    HW120526   6.960   2.353   4.783  1.0157  1.0949  1.8530
 6561SOL    HW220527   6.933   2.483   4.711 -0.2111 -0.5031 -0.6881
 6562SOL     OW20528   1.755   3.767   6.754  0.0289 -0.3925  0.4938
 6562SOL    HW120529   1.784   3.693   6.701  2.4400 -0.0977  1.2549
 6562SOL    HW220530   1.823   3.776   6.822 -1.6154  0.8254  2.0790
 6563SOL     OW20531   8.022   7.572   3.210  0.2618 -0.0750 -0.1069
 6563SOL    HW120532   7.980   7.653   3.240  2.7843  1.0979  0.4737
 6563SOL    HW220533   7.968   7.502   3.247 -1.0755  1.3136  0.6978
 6564SOL     OW20534   4.746   3.013   0.697 -0.1049 -0.3834  0.2404
 6564SOL    HW120535   4.831   3.033   0.736  0.3330  0.4441 -1.0755
 6564SOL    HW220536   4.711   3.098   0.670 -0.1481 -0.9336 -1.5970
 6565SOL     OW20537   4.769   1.097   1.104 -0.5504  0.1812 -0.1570
 6565SOL    HW120538   4.685   1.123   1.066 -0.7338  0.0197  0.1353
 6565SOL    HW220539   4.747   1.030   1.169 -0.1222 -0.4181 -0.6131
 6566SOL     OW20540   3.397   0.679   6.009  0.0486  0.0683 -0.3714
 6566SOL    HW120541   3.306   0.711   6.009 -0.4587 -1.2874 -1.2412
 6566SOL    HW220542   3.438   0.725   5.936 -0.3824 -0.4560 -0.9554
 6567SOL     OW20543   4.157   4.124   7.735  0.3825 -0.0892  0.5934
 6567SOL    HW120544   4.158   4.070   7.656  0.8760  0.4303  0.2371
 6567SOL    HW220545   4.217   4.196   7.716 -0.5157  0.7749  0.9285
 6568SOL     OW20546   1.737   0.393   1.208 -0.6662  0.0345 -0.5760
 6568SOL    HW120547   1.797   0.319   1.219 -0.4291  0.1343 -1.1711
 6568SOL    HW220548   1.790   0.470   1.229 -0.5460  0.1329 -1.2311
 6569SOL     OW20549   1.992   1.437   1.792  0.4382  0.0523 -0.1625
 6569SOL    HW120550   2.008   1.526   1.759  0.2092 -0.1562 -0.8511
 6569SOL    HW220551   1.951   1.450   1.877  0.3088  0.6105 -0.3050
 6570SOL     OW20552   6.233   3.825   7.488 -0.0991  0.1211  0.0832
 6570SOL    HW120553   6.312   3.786   7.451 -0.3976 -0.3432 -0.0687
 6570SOL    HW220554   6.196   3.757   7.545 -0.0358  0.5709  0.6788
 6571SOL     OW20555   3.864   2.373   0.925 -0.3350  0.0626  0.3224
 6571SOL    HW120556   3.919   2.304   0.963 -0.5342 -0.1345  0.2495
 6571SOL    HW220557   3.794   2.386   0.988 -2.2509 -2.1975 -1.2039
 6572SOL     OW20558   3.842   4.377   6.980  0.1968  0.1476  0.1474
 6572SOL    HW120559   3.778   4.410   7.043 -1.4865 -0.1536 -1.3263
 6572SOL    HW220560   3.854   4.449   6.918  0.5777 -0.1314 -0.1065
 6573SOL     OW20561   1.284   6.057   3.300 -0.3663 -0.1524 -0.7744
 6573SOL    HW120562   1.237   6.024   3.223  0.8029  0.0218 -1.5969
 6573SOL    HW220563   1.264   6.151   3.302  0.8281  0.1515 -1.8130
 6574SOL     OW20564   0.375   4.904   7.253 -0.4754  0.0163  0.0426
 6574SOL    HW120565   0.295   4.860   7.225 -0.8777  0.7817 -0.0091
 6574SOL    HW220566   0.430   4.906   7.174 -0.8613  0.5078 -0.2142
 6575SOL     OW20567   4.193   4.105   8.005  0.5991  0.0528  0.1297
 6575SOL    HW120568   4.170   4.113   7.913 -1.3642 -0.1165  0.5662
 6575SOL    HW220569   4.287   4.125   8.008  0.0521  3.6599 -1.4343
 6576SOL     OW20570   3.247   6.836   2.418  0.2196  0.4721 -0.6666
 6576SOL    HW120571   3.293   6.894   2.357 -0.3906  1.7059  0.0241
 6576SOL    HW220572   3.317   6.792   2.467  0.6824  0.5808 -1.2183
 6577SOL     OW20573   1.486   8.101   1.379  0.5815  0.0772 -0.5780
 6577SOL    HW120574   1.493   8.185   1.333  1.0092  0.2192 -0.2610
 6577SOL    HW220575   1.440   8.122   1.460 -0.4476 -0.2294 -1.0721
 6578SOL     OW20576   5.538   4.340   7.706 -0.2379 -0.4141 -0.1201
 6578SOL    HW120577   5.546   4.358   7.613  1.5746 -0.4010 -0.0095
 6578SOL    HW220578   5.547   4.245   7.714 -1.4259 -0.5338 -0.0210
 6579SOL     OW20579   5.307   1.250   5.485 -0.6688 -0.3121 -0.3971
 6579SOL    HW120580   5.353   1.327   5.519 -1.3944 -0.2103  0.3680
 6579SOL    HW220581   5.215   1.267   5.503 -0.7589 -1.8690  0.8304
 6580SOL     OW20582   3.519   3.675   2.042 -0.4812 -0.1645 -0.4215
 6580SOL    HW120583   3.550   3.649   1.955  1.1239 -0.1806  0.1265
 6580SOL    HW220584   3.597   3.707   2.087 -1.1486 -0.7770  1.2506
 6581SOL     OW20585   3.697   1.326   7.753  0.6878  0.0727  0.2255
 6581SOL    HW120586   3.708   1.409   7.799 -0.4166  0.1420  0.3872
 6581SOL    HW220587   3.707   1.259   7.820  0.5763  0.1140  0.2826
 6582SOL     OW20588   0.722   1.034   5.919 -0.3840  0.4227  0.0820
 6582SOL    HW120589   0.723   0.962   5.981 -0.2270  0.6258  0.3169
 6582SOL    HW220590   0.668   1.003   5.847  0.5522 -0.3367 -0.3134
 6583SOL     OW20591   4.704   0.834   2.959  0.3772 -0.2351  0.5170
 6583SOL    HW120592   4.626   0.799   3.002 -0.5693  1.1102 -0.0405
 6583SOL    HW220593   4.746   0.757   2.920 -1.7176 -0.7762 -0.8274
 6584SOL     OW20594   1.533   0.226   7.024 -0.5422 -0.0059  0.3561
 6584SOL    HW120595   1.503   0.310   7.059  2.3595  1.5412 -0.5924
 6584SOL    HW220596   1.457   0.192   6.977 -1.6992  2.2684  0.4343
 6585SOL     OW20597   0.814   5.277   2.138 -0.4717  0.1312 -0.3281
 6585SOL    HW120598   0.784   5.188   2.123 -0.8284 -0.1523  1.8156
 6585SOL    HW220599   0.886   5.268   2.200  0.8818  1.2107 -1.6486
 6586SOL     OW20600   7.548   2.779   4.005  0.2804  0.3595  0.0516
 6586SOL    HW120601   7.490   2.716   3.961  1.0709 -0.9092  0.7726
 6586SOL    HW220602   7.493   2.819   4.073  0.4692 -1.5946  1.4383
 6587SOL     OW20603   3.114   1.569   5.843 -0.4985  0.4596  0.0871
 6587SOL    HW120604   3.199   1.610   5.826 -0.7835  1.5391  1.1316
 6587SOL    HW220605   3.124   1.529   5.929 -0.2356 -1.7410 -0.8893
 6588SOL     OW20606   2.710   3.303   0.037  0.2852  0.1544  0.3100
 6588SOL    HW120607   2.731   3.396   0.050  1.8714 -0.1962  0.4283
 6588SOL    HW220608   2.793   3.263   0.011 -0.0749 -1.4811  1.5274
 6589SOL     OW20609   5.885   5.922   3.787 -0.0693 -0.4285  0.1244
 6589SOL    HW120610   5.938   5.972   3.849  1.9121  0.1392 -1.8679
 6589SOL    HW220611   5.842   5.854   3.839  1.5476 -0.0311  2.0589
 6590SOL     OW20612   4.223   2.301   6.146  0.5135  0.5604  0.0342
 6590SOL    HW120613   4.217   2.277   6.239 -0.8767 -1.0692 -0.4284
 6590SOL    HW220614   4.160   2.373   6.137 -0.6684 -0.4311  0.0543
 6591SOL     OW20615   7.382   0.807   8.015  0.3599 -0.4489 -0.9766
 6591SOL    HW120616   7.426   0.883   8.052  0.6134 -0.5863 -0.9973
 6591SOL    HW220617   7.397   0.737   8.078 -0.6955 -0.2451 -0.4689
 6592SOL     OW20618   2.319   7.628   2.437 -0.1027  0.3755  0.3804
 6592SOL    HW120619   2.361   7.696   2.490 -2.9166  0.9043  2.1226
 6592SOL    HW220620   2.343   7.546   2.481  0.9215  0.4344 -0.0236
 6593SOL     OW20621   5.434   5.605   3.189  0.4033 -0.3608  0.5862
 6593SOL    HW120622   5.405   5.515   3.203 -1.9085  0.1605 -0.3594
 6593SOL    HW220623   5.510   5.616   3.247  1.4207 -3.2068 -0.0772
 6594SOL     OW20624   7.298   5.870   3.822 -0.2330 -0.1538 -0.3016
 6594SOL    HW120625   7.381   5.843   3.861  0.1286  1.9232  0.5081
 6594SOL    HW220626   7.245   5.791   3.822  1.4400 -1.3357 -0.0463
 6595SOL     OW20627   0.106   2.543   7.371 -0.0482 -0.0064 -0.3514
 6595SOL    HW120628   0.047   2.617   7.355 -0.0850  0.1130  0.2856
 6595SOL    HW220629   0.138   2.557   7.460 -0.5680 -1.1037  0.0302
 6596SOL     OW20630   5.763   2.943   5.895 -0.1322 -0.1563 -0.4074
 6596SOL    HW120631   5.725   2.856   5.907 -2.1128  0.5467 -1.0718
 6596SOL    HW220632   5.712   2.999   5.955  1.0364  0.5751 -0.0704
 6597SOL     OW20633   0.173   7.330   8.146 -0.7458  0.0587  0.2328
 6597SOL    HW120634   0.251   7.377   8.175 -0.9246  0.3789  0.1963
 6597SOL    HW220635   0.108   7.346   8.214 -0.4145 -1.2163  0.8843
 6598SOL     OW20636   4.190   0.719   7.424 -0.4977 -0.0691 -0.2904
 6598SOL    HW120637   4.255   0.691   7.488 -2.2698  1.0108  2.1343
 6598SOL    HW220638   4.139   0.787   7.469 -3.5930 -1.1823 -1.7993
 6599SOL     OW20639   2.455   1.206   5.045 -0.0877 -0.0587  0.0378
 6599SOL    HW120640   2.455   1.248   5.130 -2.2989 -1.3005  0.7192
 6599SOL    HW220641   2.370   1.227   5.007  0.8958  0.5786 -1.9514
 6600SOL     OW20642   7.340   4.063   3.811 -0.6104 -0.2200  0.1639
 6600SOL    HW120643   7.411   4.108   3.857 -0.5504  0.0546 -0.1935
 6600SOL    HW220644   7.282   4.134   3.782 -1.4365 -0.4807  1.1183
 6601SOL     OW20645   3.395   2.457   1.757  0.5132  0.5854  0.0977
 6601SOL    HW120646   3.319   2.400   1.757  1.0003 -0.0746 -0.5581
 6601SOL    HW220647   3.377   2.523   1.690  1.5624 -1.0303 -1.8781
 6602SOL     OW20648   6.808   4.221   2.490 -0.4974 -0.2384  0.0187
 6602SOL    HW120649   6.876   4.160   2.463 -0.3529 -0.1517  0.1826
 6602SOL    HW220650   6.727   4.170   2.484 -0.9825  0.6928 -3.8049
 6603SOL     OW20651   3.643   4.419   5.624 -0.1524 -0.0832 -0.0904
 6603SOL    HW120652   3.705   4.485   5.654 -0.1876  0.4337 -1.1342
 6603SOL    HW220653   3.561   4.467   5.613  0.6917  0.7508 -4.7535
 6604SOL     OW20654   0.418   6.833   7.969  0.6702  0.2409  0.4307
 6604SOL    HW120655   0.423   6.781   8.049 -2.6682  0.6650  1.0782
 6604SOL    HW220656   0.357   6.785   7.913  1.4593  0.9360 -1.0726
 6605SOL     OW20657   6.197   7.549   7.252  0.2914  0.4582  0.2614
 6605SOL    HW120658   6.133   7.541   7.181  1.1911 -2.4646 -0.3481
 6605SOL    HW220659   6.149   7.521   7.330 -0.2371  2.1181  0.5687
 6606SOL     OW20660   5.500   1.919   5.813  0.1942 -0.0511  0.2592
 6606SOL    HW120661   5.480   1.962   5.730  0.6874  0.6374  0.4968
 6606SOL    HW220662   5.415   1.912   5.857  0.1055  0.6717  0.2149
 6607SOL     OW20663   5.688   3.244   3.398  0.7359  0.6776  0.0860
 6607SOL    HW120664   5.762   3.305   3.401 -0.0742  1.7452 -0.7510
 6607SOL    HW220665   5.658   3.248   3.307 -0.5405  0.5108  0.4885
 6608SOL     OW20666   5.675   0.713   3.628 -0.3078  0.1519 -0.3540
 6608SOL    HW120667   5.704   0.803   3.646  0.7125 -0.3141  0.4243
 6608SOL    HW220668   5.734   0.658   3.680 -1.2665 -0.9453 -0.3993
 6609SOL     OW20669   4.069   0.463   6.951  0.3381 -0.0459  0.2734
 6609SOL    HW120670   4.140   0.487   7.010 -0.5010 -1.0026  1.7228
 6609SOL    HW220671   4.106   0.393   6.896  0.5637 -0.4398  0.9210
 6610SOL     OW20672   6.508   3.046   3.594 -0.1143 -0.3532 -0.2378
 6610SOL    HW120673   6.445   3.105   3.636 -1.3364 -2.4931  1.1159
 6610SOL    HW220674   6.516   3.079   3.505 -2.4068  0.6042 -0.1662
 6611SOL     OW20675   1.424   0.649   5.293  0.1700  0.4197 -0.4833
 6611SOL    HW120676   1.469   0.718   5.245  1.8570  0.0716  0.4821
 6611SOL    HW220677   1.385   0.593   5.226 -1.1851  2.2395 -1.2731
 6612SOL     OW20678   5.447   4.786   0.576 -0.0511  0.0786  0.5810
 6612SOL    HW120679   5.430   4.754   0.664  1.0257 -1.7697  0.1811
 6612SOL    HW220680   5.469   4.707   0.526  3.2084  1.4414 -0.4015
 6613SOL     OW20681   2.343   1.169   4.680 -0.6100 -0.1904 -0.5327
 6613SOL    HW120682   2.287   1.174   4.757 -1.5981 -1.1020 -1.1626
 6613SOL    HW220683   2.317   1.243   4.626  0.1641  0.5173  0.0366
 6614SOL     OW20684   3.320   8.107   3.329  0.2807 -0.2776 -0.2528
 6614SOL    HW120685   3.279   8.187   3.294 -0.9592 -1.0189 -0.5686
 6614SOL    HW220686   3.248   8.060   3.371  1.1701 -0.8185  0.7188
 6615SOL     OW20687   7.870   3.871   4.758  0.0660  0.0335 -0.6372
 6615SOL    HW120688   7.886   3.872   4.853  0.5441 -0.2767 -0.7103
 6615SOL    HW220689   7.957   3.867   4.719 -0.0183  2.0109 -1.1496
 6616SOL     OW20690   7.009   4.005   0.476  0.4910  0.0173 -0.1590
 6616SOL    HW120691   6.922   4.043   0.472 -0.1565 -1.2972  0.6420
 6616SOL    HW220692   7.050   4.045   0.553  0.8741  1.1675 -0.9500
 6617SOL     OW20693   1.691   0.699   7.255  0.7135 -0.5219  0.7770
 6617SOL    HW120694   1.629   0.665   7.319  1.3778 -1.5701  0.8902
 6617SOL    HW220695   1.697   0.631   7.188 -1.3671  1.2884 -1.4537
 6618SOL     OW20696   5.454   4.912   2.462 -0.5336  0.4868  0.0233
 6618SOL    HW120697   5.452   4.985   2.524  0.2518 -0.0623  0.7177
 6618SOL    HW220698   5.545   4.883   2.462 -0.8891 -0.6912  0.0138
 6619SOL     OW20699   6.270   6.162   7.435 -0.1461  0.2876 -0.4030
 6619SOL    HW120700   6.223   6.243   7.413 -0.8785  0.0073  0.0822
 6619SOL    HW220701   6.200   6.096   7.443  0.0726  0.2993  2.4698
 6620SOL     OW20702   4.455   0.610   7.283  0.3148  0.3574  0.6506
 6620SOL    HW120703   4.418   0.680   7.336  1.1846  0.5123  1.0818
 6620SOL    HW220704   4.542   0.595   7.321  1.1618  0.7895 -0.9871
 6621SOL     OW20705   3.777   4.637   6.232  0.1156 -0.5458 -0.6183
 6621SOL    HW120706   3.695   4.626   6.184 -0.0695  0.7740 -0.6329
 6621SOL    HW220707   3.839   4.671   6.167  0.8589 -2.0681 -0.7490
 6622SOL     OW20708   4.778   2.146   1.825 -0.4670 -0.1418 -0.1212
 6622SOL    HW120709   4.796   2.174   1.735 -0.2882 -3.8834 -1.4296
 6622SOL    HW220710   4.864   2.137   1.865 -0.4728  0.1717 -0.0367
 6623SOL     OW20711   0.923   2.585   6.453  0.3921  0.5019  0.5373
 6623SOL    HW120712   0.919   2.679   6.435  0.3466  0.0921 -1.8780
 6623SOL    HW220713   0.903   2.543   6.369  0.0811 -1.6870  1.6234
 6624SOL     OW20714   5.456   7.858   0.818 -0.0140  0.6270  0.0117
 6624SOL    HW120715   5.528   7.900   0.771  1.2351 -0.5678  0.8067
 6624SOL    HW220716   5.481   7.863   0.910  0.1355 -1.7293  0.1507
 6625SOL     OW20717   7.280   2.452   6.567 -0.0504  0.2129 -0.2379
 6625SOL    HW120718   7.232   2.423   6.644  0.3787 -1.5561 -0.5990
 6625SOL    HW220719   7.372   2.453   6.595  0.3469 -2.3457 -1.1899
 6626SOL     OW20720   6.037   4.205   5.565 -0.1796  0.0138  0.4034
 6626SOL    HW120721   6.046   4.296   5.537 -3.3641  0.2716 -0.0666
 6626SOL    HW220722   6.041   4.209   5.661 -0.1373  0.6025  0.3791
 6627SOL     OW20723   3.174   3.902   2.991  0.2137  0.4951 -0.2046
 6627SOL    HW120724   3.188   3.992   2.960 -2.2981  1.6326  1.6911
 6627SOL    HW220725   3.119   3.862   2.924 -0.0548  0.9063 -0.2310
 6628SOL     OW20726   8.031   4.456   1.379 -0.3124  0.0494 -0.1888
 6628SOL    HW120727   8.104   4.456   1.317  0.9631  0.0727  1.2520
 6628SOL    HW220728   8.004   4.364   1.385 -0.4996  0.0604 -0.8216
 6629SOL     OW20729   5.288   0.407   6.289  0.1574  0.3710  0.2170
 6629SOL    HW120730   5.338   0.415   6.207  0.1601  1.4728  0.3167
 6629SOL    HW220731   5.226   0.479   6.286  0.2536  0.5033  1.2581
 6630SOL     OW20732   2.173   0.719   6.908  0.8469 -0.6533 -0.4770
 6630SOL    HW120733   2.120   0.798   6.914 -0.8434 -1.7889  0.2660
 6630SOL    HW220734   2.259   0.745   6.940  0.1299  0.7197  0.4037
 6631SOL     OW20735   5.472   5.528   5.858 -0.1729  0.2871 -0.5268
 6631SOL    HW120736   5.535   5.461   5.884  2.1625  2.6305  0.3058
 6631SOL    HW220737   5.464   5.585   5.934 -1.4809  1.4295 -1.4471
 6632SOL     OW20738   6.256   1.962   4.634 -0.1192  0.0307 -0.4004
 6632SOL    HW120739   6.277   1.904   4.706 -0.3553  2.5107  1.8280
 6632SOL    HW220740   6.163   1.949   4.618  0.0015 -0.7551 -0.4949
 6633SOL     OW20741   5.385   4.143   3.011  0.3520  1.3222 -0.5407
 6633SOL    HW120742   5.445   4.146   3.086  1.6540 -2.1569 -1.2676
 6633SOL    HW220743   5.319   4.079   3.036 -0.1808  1.3816 -1.7265
 6634SOL     OW20744   6.609   0.191   2.121  0.7563  0.4255  0.4264
 6634SOL    HW120745   6.705   0.189   2.121  0.7499 -0.8904 -0.4552
 6634SOL    HW220746   6.587   0.281   2.146  2.2354  1.1864 -0.8475
 6635SOL     OW20747   2.651   4.452   4.029 -0.2177  0.0947  0.3816
 6635SOL    HW120748   2.739   4.474   4.001 -0.2508 -1.6259 -1.3119
 6635SOL    HW220749   2.597   4.527   4.003  0.6853  1.1164  1.3588
 6636SOL     OW20750   7.234   3.543   3.265  0.0426  0.6595  0.1706
 6636SOL    HW120751   7.277   3.504   3.340 -0.0161  0.9239  0.3410
 6636SOL    HW220752   7.258   3.486   3.191  1.0321  1.0559  0.1850
 6637SOL     OW20753   7.937   2.449   7.834 -0.3480  0.3769  0.2511
 6637SOL    HW120754   7.869   2.434   7.768 -0.1780  0.3231  0.0867
 6637SOL    HW220755   7.931   2.542   7.854 -0.4216  0.3867  0.1810
 6638SOL     OW20756   6.759   4.240   6.249  0.4212  0.0433  0.3202
 6638SOL    HW120757   6.699   4.180   6.204  1.1104 -0.2682 -0.1996
 6638SOL    HW220758   6.759   4.210   6.340  0.1291 -0.2265  0.2336
 6639SOL     OW20759   7.039   3.671   2.751  0.4647 -0.1857  0.0573
 6639SOL    HW120760   6.991   3.752   2.730  0.4969  0.0401  0.8127
 6639SOL    HW220761   6.990   3.633   2.824  1.2822 -0.0856  0.6747
 6640SOL     OW20762   2.600   3.608   5.173 -0.3888  0.2281 -0.0286
 6640SOL    HW120763   2.634   3.525   5.206  0.9174  0.7485 -0.0051
 6640SOL    HW220764   2.596   3.596   5.078 -1.1541 -0.1854  0.0443
 6641SOL     OW20765   2.142   1.143   3.677 -0.6413 -0.8760  0.6050
 6641SOL    HW120766   2.087   1.194   3.617 -0.5658  0.8768  1.9553
 6641SOL    HW220767   2.085   1.071   3.706 -1.5149 -0.2914  0.3641
 6642SOL     OW20768   3.217   6.016   7.381  0.0598  0.7248 -0.2659
 6642SOL    HW120769   3.249   6.103   7.406  0.9898  0.8472 -1.7917
 6642SOL    HW220770   3.182   5.980   7.463  2.3828  1.3454  1.1040
 6643SOL     OW20771   7.101   0.323   2.923  0.2606  0.0603  0.2490
 6643SOL    HW120772   7.052   0.269   2.985  0.1962 -0.0830  0.0736
 6643SOL    HW220773   7.044   0.399   2.907 -0.3535 -0.5871 -0.7249
 6644SOL     OW20774   3.486   4.405   3.651  0.0809  0.0149 -0.2125
 6644SOL    HW120775   3.449   4.387   3.737 -0.0900  0.2896 -0.2271
 6644SOL    HW220776   3.420   4.459   3.607 -0.0144 -0.4729 -0.6698
 6645SOL     OW20777   6.472   3.414   7.181  0.3253 -0.1797 -0.3943
 6645SOL    HW120778   6.398   3.429   7.240 -0.6247 -1.6365 -1.1704
 6645SOL    HW220779   6.528   3.491   7.193 -0.0442 -0.2154  2.0834
 6646SOL     OW20780   2.647   5.389   2.148  0.5923 -0.3134 -0.6412
 6646SOL    HW120781   2.611   5.311   2.191  0.4080 -0.4569 -1.0529
 6646SOL    HW220782   2.704   5.428   2.214 -1.2731  0.6232  0.5332
 6647SOL     OW20783   2.560   5.774   6.052 -0.2410 -0.2834  0.0706
 6647SOL    HW120784   2.472   5.753   6.084 -0.4494 -0.0921 -0.3607
 6647SOL    HW220785   2.600   5.825   6.122  0.0843 -1.6353  0.9200
 6648SOL     OW20786   6.935   2.184   7.980  0.4302  0.2668 -0.0601
 6648SOL    HW120787   6.953   2.091   7.966  1.1867  0.2586  0.8351
 6648SOL    HW220788   6.857   2.202   7.928  0.4507 -0.7971 -0.4824
 6649SOL     OW20789   0.410   3.710   4.187  1.1065  0.3509  0.4212
 6649SOL    HW120790   0.391   3.628   4.141 -0.4150  0.7058  0.3769
 6649SOL    HW220791   0.443   3.683   4.273  1.2261 -0.3085  0.1696
 6650SOL     OW20792   1.603   2.927   0.911 -0.2176  0.2550  0.3825
 6650SOL    HW120793   1.538   2.895   0.973 -0.1873  1.0698  0.8494
 6650SOL    HW220794   1.682   2.940   0.963  0.6084 -1.4875 -0.3203
 6651SOL     OW20795   1.386   4.512   4.072  0.5973 -0.2622 -0.0170
 6651SOL    HW120796   1.407   4.587   4.128 -0.9995  0.6065 -0.5150
 6651SOL    HW220797   1.406   4.542   3.984 -0.0362 -0.4210 -0.2183
 6652SOL     OW20798   0.061   5.251   6.650  0.3505  0.2941 -1.1897
 6652SOL    HW120799   0.034   5.234   6.559  0.5664  0.8392 -1.3621
 6652SOL    HW220800  -0.018   5.235   6.701  0.6512 -1.6313 -1.2750
 6653SOL     OW20801   6.390   7.416   5.288  0.0193  0.2734  0.1969
 6653SOL    HW120802   6.310   7.452   5.326  0.0216 -0.3170  0.7658
 6653SOL    HW220803   6.455   7.486   5.296  0.0292  0.1506  1.3174
 6654SOL     OW20804   8.122   1.565   5.959  0.1022  0.4656  0.0195
 6654SOL    HW120805   8.048   1.567   5.899 -0.1000 -0.5719  0.2189
 6654SOL    HW220806   8.146   1.657   5.970 -1.1729  0.8288 -0.0241
 6655SOL     OW20807   8.148   4.579   0.695  0.7453  0.7823  0.2840
 6655SOL    HW120808   8.141   4.609   0.786 -0.9132 -0.2321  0.5312
 6655SOL    HW220809   8.125   4.486   0.698  1.2992  0.5705 -1.0988
 6656SOL     OW20810   2.525   0.463   0.056 -0.3642  0.2080  0.0989
 6656SOL    HW120811   2.487   0.523   0.120 -1.2211 -0.2991  0.0823
 6656SOL    HW220812   2.508   0.504  -0.029  0.6313  0.8027  0.1762
 6657SOL     OW20813   0.380   1.845   4.186  0.7551  0.1622  0.0871
 6657SOL    HW120814   0.394   1.755   4.157  2.8584  0.3129  0.4956
 6657SOL    HW220815   0.368   1.838   4.281  2.2287  0.3874  0.3149
 6658SOL     OW20816   1.984   4.591   7.383  0.3243 -0.3251 -0.2263
 6658SOL    HW120817   1.925   4.660   7.413 -0.8237 -1.9509  1.4090
 6658SOL    HW220818   2.068   4.612   7.424 -0.2418 -0.3578  0.9708
 6659SOL     OW20819   3.542   4.078   5.017 -0.0795  0.0280 -0.2595
 6659SOL    HW120820   3.614   4.019   4.995 -0.6376 -1.1987  1.0003
 6659SOL    HW220821   3.554   4.095   5.111  0.7788  2.9807 -0.8311
 6660SOL     OW20822   7.470   4.912   4.628  0.2744 -0.0348  0.2125
 6660SOL    HW120823   7.412   4.839   4.649 -0.7613  0.8571  0.5363
 6660SOL    HW220824   7.535   4.875   4.568 -1.4676 -0.7313 -1.3273
 6661SOL     OW20825   1.868   8.116   8.106  0.2123  1.0052  0.3256
 6661SOL    HW120826   1.926   8.054   8.062 -1.7210 -0.2954 -0.5394
 6661SOL    HW220827   1.843   8.178   8.038  2.5491  3.1768  1.3068
 6662SOL     OW20828   3.523   6.511   5.820  0.0034 -0.2143 -0.1944
 6662SOL    HW120829   3.473   6.593   5.826 -1.2018 -0.9771  0.6482
 6662SOL    HW220830   3.562   6.513   5.732 -1.3734  0.4952 -0.8257
 6663SOL     OW20831   0.166   1.196   4.856 -0.1510 -0.2116 -0.2762
 6663SOL    HW120832   0.206   1.270   4.812  2.7127 -0.1157  2.1190
 6663SOL    HW220833   0.144   1.229   4.943  1.2029 -2.0521  0.8543
 6664SOL     OW20834   4.588   6.272   0.992  0.2453 -0.4922  0.2337
 6664SOL    HW120835   4.636   6.191   1.007  1.4713  0.1630 -0.0754
 6664SOL    HW220836   4.588   6.316   1.077  0.6418 -0.2578  0.1141
 6665SOL     OW20837   7.349   4.219   6.835  0.5215  0.0227 -0.0637
 6665SOL    HW120838   7.406   4.142   6.834 -0.1122 -0.4514 -1.8050
 6665SOL    HW220839   7.263   4.185   6.859  0.3971  0.3134 -0.0927
 6666SOL     OW20840   2.277   6.005   1.062  0.0895 -0.1527 -0.3240
 6666SOL    HW120841   2.292   5.921   1.019  0.7439  0.1507 -0.7055
 6666SOL    HW220842   2.187   6.028   1.039 -0.3480 -1.0777  0.3724
 6667SOL     OW20843   0.845   2.483   1.823  0.5012 -0.6847  0.0032
 6667SOL    HW120844   0.795   2.404   1.845  0.2380 -0.6199 -0.3451
 6667SOL    HW220845   0.817   2.504   1.734 -0.5320  0.6426  0.6123
 6668SOL     OW20846   2.883   7.228   3.847  0.1213 -0.5526 -0.2280
 6668SOL    HW120847   2.789   7.222   3.836 -0.0015  0.1895  0.3695
 6668SOL    HW220848   2.900   7.320   3.867  0.7946 -0.9703  1.2701
 6669SOL     OW20849   5.619   2.056   0.991  0.0870 -0.3369  0.6592
 6669SOL    HW120850   5.587   1.967   0.977 -1.4018  0.2766 -0.0824
 6669SOL    HW220851   5.641   2.060   1.084  0.0377 -1.4354  0.7218
 6670SOL     OW20852   2.289   6.857   8.193 -0.2829  0.0728  0.2522
 6670SOL    HW120853   2.256   6.916   8.261  0.7037 -0.4491  1.2218
 6670SOL    HW220854   2.296   6.772   8.236 -0.5358 -0.4878 -0.7827
 6671SOL     OW20855   1.957   3.810   0.519  0.0132 -0.0109  0.3960
 6671SOL    HW120856   2.031   3.814   0.579  0.8316 -0.6695 -0.5321
 6671SOL    HW220857   1.922   3.722   0.529 -0.0852  0.0044  0.2010
 6672SOL     OW20858   6.415   0.636   4.522  0.0861 -0.0662 -0.5392
 6672SOL    HW120859   6.368   0.653   4.440 -0.4356 -0.5503 -0.3470
 6672SOL    HW220860   6.435   0.542   4.519  1.0395  0.1232 -0.6093
 6673SOL     OW20861   0.379   7.636   4.603 -0.1616  0.2583  0.0426
 6673SOL    HW120862   0.442   7.697   4.640  0.0982 -0.6926  1.2502
 6673SOL    HW220863   0.430   7.558   4.581 -0.6238  0.1415 -0.6780
 6674SOL     OW20864   4.278   3.357   2.309  0.5792 -0.3327 -0.2618
 6674SOL    HW120865   4.198   3.410   2.302  0.3000 -0.6970  0.1107
 6674SOL    HW220866   4.251   3.269   2.284  0.7587 -0.5512  0.2941
 6675SOL     OW20867   1.454   6.578   2.272  0.1954  0.5480  0.1913
 6675SOL    HW120868   1.440   6.488   2.301  1.0289  1.2745  3.1626
 6675SOL    HW220869   1.373   6.601   2.227 -0.7364 -1.1018  0.9274
 6676SOL     OW20870   7.265   3.664   6.537 -0.4906  0.0542  0.4664
 6676SOL    HW120871   7.201   3.729   6.508 -0.0315  0.3513  0.1071
 6676SOL    HW220872   7.218   3.581   6.533 -1.0010  0.3272  0.6733
 6677SOL     OW20873   4.616   1.688   3.557  0.6097 -0.9343  0.1972
 6677SOL    HW120874   4.683   1.754   3.571 -0.2137  0.0902 -0.5829
 6677SOL    HW220875   4.592   1.658   3.645 -0.1787  1.0066  0.6866
 6678SOL     OW20876   6.367   2.588   6.118 -0.1358 -0.2477  0.4995
 6678SOL    HW120877   6.375   2.683   6.123  0.9047 -0.3163  0.3320
 6678SOL    HW220878   6.433   2.554   6.178 -0.8796 -0.8751  0.9977
 6679SOL     OW20879   6.139   1.461   5.756 -0.2547 -0.4481 -0.0637
 6679SOL    HW120880   6.046   1.479   5.764 -0.3441  0.0817 -1.8261
 6679SOL    HW220881   6.159   1.402   5.828 -2.4275 -2.3793 -0.9407
 6680SOL     OW20882   4.228   3.477   0.394 -0.6481 -0.5430 -0.3096
 6680SOL    HW120883   4.188   3.503   0.311  0.3737  2.2044 -0.0317
 6680SOL    HW220884   4.314   3.442   0.370  0.1865  1.4392 -0.4200
 6681SOL     OW20885   7.110   5.285   3.708  0.3954 -0.1669  0.1045
 6681SOL    HW120886   7.201   5.309   3.728 -0.3343  2.3069  0.8614
 6681SOL    HW220887   7.094   5.205   3.759  1.5778  0.4727  1.5619
 6682SOL     OW20888   7.079   2.738   5.114  0.0015  0.5355 -0.0008
 6682SOL    HW120889   7.168   2.764   5.089 -0.3118 -0.3156 -2.1841
 6682SOL    HW220890   7.027   2.754   5.036 -1.2526 -1.4604  0.3684
 6683SOL     OW20891   3.272   0.011   1.116 -0.6098  0.2230 -0.2445
 6683SOL    HW120892   3.293  -0.040   1.194  2.3711  1.4019 -0.1296
 6683SOL    HW220893   3.184   0.046   1.132 -1.2346 -1.8900  1.2381
 6684SOL     OW20894   6.687   2.253   3.153  0.0620 -0.5875 -0.4043
 6684SOL    HW120895   6.656   2.181   3.098 -0.0378 -0.1631 -0.9121
 6684SOL    HW220896   6.697   2.326   3.093  0.2758 -0.2062  0.0891
 6685SOL     OW20897   2.745   7.102   4.725 -0.4370 -0.0909  0.2525
 6685SOL    HW120898   2.712   7.154   4.652 -1.9267  0.1617  1.0645
 6685SOL    HW220899   2.749   7.163   4.799 -0.1160 -0.6239  0.6897
 6686SOL     OW20900   6.467   4.988   7.636 -0.0214  0.0216  0.1458
 6686SOL    HW120901   6.408   5.062   7.651 -0.3612 -0.4416  1.1497
 6686SOL    HW220902   6.424   4.914   7.679  0.5845 -0.6483 -0.3722
 6687SOL     OW20903   3.456   4.839   3.759 -0.5338  0.0857  0.3241
 6687SOL    HW120904   3.368   4.819   3.790  0.0924  0.4546  2.4710
 6687SOL    HW220905   3.513   4.779   3.806  0.4323  0.3143 -0.5177
 6688SOL     OW20906   5.295   2.341   4.495  0.8250  0.6519 -0.2394
 6688SOL    HW120907   5.276   2.268   4.436  2.2831  1.0562 -1.2641
 6688SOL    HW220908   5.357   2.306   4.559  0.7736  0.7295 -0.1459
 6689SOL     OW20909   7.205   1.245   3.088  0.3020 -0.2636 -0.0311
 6689SOL    HW120910   7.211   1.279   2.999  0.6160 -1.8358 -0.6502
 6689SOL    HW220911   7.174   1.155   3.077 -4.9957  0.9489  1.7253
 6690SOL     OW20912   7.550   3.963   2.047 -0.5261 -0.3874 -0.1410
 6690SOL    HW120913   7.592   3.938   2.129  2.9862  0.4088 -1.4738
 6690SOL    HW220914   7.508   4.046   2.065  0.6855  0.0625  0.7704
 6691SOL     OW20915   7.155   0.961   7.725 -0.1126 -0.4448  0.1725
 6691SOL    HW120916   7.148   1.026   7.655  0.8281 -0.7558 -0.2230
 6691SOL    HW220917   7.107   0.885   7.692 -0.6189 -0.1972  0.3382
 6692SOL     OW20918   6.895   3.238   6.043 -0.2360 -0.3358  0.1658
 6692SOL    HW120919   6.910   3.182   5.967 -1.0031 -0.8875  0.4117
 6692SOL    HW220920   6.920   3.326   6.013 -1.2082 -0.4194 -0.9515
 6693SOL     OW20921   4.888   4.712   1.117  0.3918 -0.6068  0.1304
 6693SOL    HW120922   4.862   4.804   1.122  1.8173 -0.1749 -0.0150
 6693SOL    HW220923   4.805   4.664   1.107 -0.2856  0.7696 -1.3461
 6694SOL     OW20924   4.184   0.471   5.147 -0.1789 -0.7818  0.1965
 6694SOL    HW120925   4.151   0.491   5.060  1.9297  2.3221 -0.0488
 6694SOL    HW220926   4.142   0.535   5.205  0.3007 -1.1969  1.0329
 6695SOL     OW20927   7.697   8.004   5.863 -0.2749 -0.2822 -0.3120
 6695SOL    HW120928   7.622   8.061   5.881  0.4160  0.2880  0.8377
 6695SOL    HW220929   7.750   8.054   5.800  0.0934  0.1606  0.3367
 6696SOL     OW20930   7.766   4.833   0.223 -0.4895  0.3509  0.4884
 6696SOL    HW120931   7.778   4.750   0.176  0.1463  0.5628  0.2607
 6696SOL    HW220932   7.745   4.896   0.154  1.0723  0.7939  0.3855
 6697SOL     OW20933   1.823   0.877   2.993  0.7051 -0.5918  0.8736
 6697SOL    HW120934   1.890   0.823   3.037  0.6507  0.4788  2.3490
 6697SOL    HW220935   1.749   0.876   3.053  0.4323  0.5077  0.5756
 6698SOL     OW20936   5.428   5.037   3.694 -0.4074 -0.2186  0.3714
 6698SOL    HW120937   5.487   5.071   3.628  0.3769 -3.2691 -0.6928
 6698SOL    HW220938   5.345   5.024   3.648  0.0107 -1.9139  0.0068
 6699SOL     OW20939   3.105   1.899   1.963 -0.0622 -0.0990  0.3909
 6699SOL    HW120940   3.057   1.890   2.046  0.1125 -1.6553  0.3500
 6699SOL    HW220941   3.135   1.810   1.943 -1.3036 -0.0531 -2.0644
 6700SOL     OW20942   6.007   6.528   6.134 -0.5386 -0.2837  0.1760
 6700SOL    HW120943   5.995   6.614   6.095 -0.2321 -0.1818  0.3026
 6700SOL    HW220944   6.097   6.504   6.113 -0.2769 -0.1098  1.0342
 6701SOL     OW20945   5.431   1.178   3.124  0.1149 -0.5482 -0.2459
 6701SOL    HW120946   5.364   1.218   3.068  0.2409 -1.1259 -0.8206
 6701SOL    HW220947   5.469   1.252   3.172 -0.5556 -0.1501 -0.3194
 6702SOL     OW20948   5.792   5.067   3.610  0.3031  0.3390 -0.0905
 6702SOL    HW120949   5.701   5.048   3.588 -0.5562  1.4676  2.1752
 6702SOL    HW220950   5.822   5.125   3.540 -0.8537  0.2647 -0.6695
 6703SOL     OW20951   7.232   0.017   6.949  0.0387 -0.2363  0.1828
 6703SOL    HW120952   7.160  -0.010   6.891 -0.1063 -0.8351  0.6275
 6703SOL    HW220953   7.194   0.087   7.002  0.5274  1.1451 -1.2266
 6704SOL     OW20954   7.215   1.492   1.603 -0.9740 -0.9203  0.5371
 6704SOL    HW120955   7.286   1.449   1.652 -0.9398  0.9242  2.2575
 6704SOL    HW220956   7.139   1.485   1.661 -1.1871  0.4620  0.4533
 6705SOL     OW20957   7.627   2.783   1.541  0.3797  0.5887 -1.0626
 6705SOL    HW120958   7.633   2.713   1.476 -1.2880  1.4564 -2.2321
 6705SOL    HW220959   7.669   2.858   1.499 -0.8309  1.1911 -1.2651
 6706SOL     OW20960   0.806   3.268   5.345 -0.0574  0.2866 -0.2676
 6706SOL    HW120961   0.716   3.299   5.354 -0.8083 -1.5561 -1.0717
 6706SOL    HW220962   0.841   3.270   5.434 -1.6217 -0.9919  0.4266
 6707SOL     OW20963   5.237   7.612   0.686 -0.2143  0.0631  0.1489
 6707SOL    HW120964   5.210   7.704   0.683 -1.7974 -0.3024  1.2623
 6707SOL    HW220965   5.170   7.570   0.741  1.2026 -1.5064  0.7589
 6708SOL     OW20966   4.076   4.264   8.176  0.2899 -0.5672 -0.7653
 6708SOL    HW120967   4.032   4.337   8.133  0.9578  0.0369 -0.4305
 6708SOL    HW220968   4.125   4.221   8.106 -0.1030 -0.6983 -0.9622
 6709SOL     OW20969   2.721   5.922   6.715  0.0185  0.0984 -0.0255
 6709SOL    HW120970   2.758   5.974   6.787 -0.3888 -0.1852  0.3979
 6709SOL    HW220971   2.644   5.971   6.687 -0.6386 -0.4914  0.6899
 6710SOL     OW20972   3.196   7.023   7.811  0.2918 -0.3735  0.4030
 6710SOL    HW120973   3.283   7.007   7.776  0.8007 -0.2663  1.5642
 6710SOL    HW220974   3.212   7.061   7.898 -0.8985  0.8984  0.0964
 6711SOL     OW20975   4.868   7.876   1.725  0.2633  0.1619 -1.1395
 6711SOL    HW120976   4.779   7.905   1.743  0.0714  0.0417 -1.8663
 6711SOL    HW220977   4.858   7.807   1.659  0.8408 -0.3539 -0.7076
 6712SOL     OW20978   6.456   4.003   7.263  0.1989  0.6852 -0.3411
 6712SOL    HW120979   6.515   3.997   7.338 -1.4098  1.1000  1.0152
 6712SOL    HW220980   6.485   4.082   7.217  1.8669 -0.1404 -0.7949
 6713SOL     OW20981   5.650   5.724   2.811 -0.2954 -0.0463  0.4737
 6713SOL    HW120982   5.722   5.784   2.794 -0.3468  0.4459  1.9314
 6713SOL    HW220983   5.691   5.644   2.844 -0.2822 -0.5742 -0.7617
 6714SOL     OW20984   7.105   5.118   4.645 -0.4306  0.6892 -0.1352
 6714SOL    HW120985   7.199   5.103   4.651 -0.9927 -3.2467  0.9446
 6714SOL    HW220986   7.080   5.084   4.559 -1.0445  0.5176  0.1017
 6715SOL     OW20987   4.955   2.152   3.519 -0.6776  0.2049 -0.3744
 6715SOL    HW120988   5.019   2.223   3.523 -1.0372  0.5205 -0.1997
 6715SOL    HW220989   4.870   2.196   3.530 -0.8767 -0.2942  0.0626
 6716SOL     OW20990   4.850   2.645   8.200 -0.2111 -0.9125  0.4402
 6716SOL    HW120991   4.872   2.577   8.137  1.0872 -1.6879  1.6834
 6716SOL    HW220992   4.916   2.713   8.186  0.3531 -1.2869  1.2510
 6717SOL     OW20993   1.505   4.683   3.348  0.5470 -0.0447 -0.0236
 6717SOL    HW120994   1.503   4.710   3.440  2.2585  0.5599 -0.1365
 6717SOL    HW220995   1.541   4.758   3.302  0.7119 -0.7328 -1.0512
 6718SOL     OW20996   3.650   3.289   0.250 -0.6201 -0.2435  0.0896
 6718SOL    HW120997   3.661   3.380   0.222 -0.2577  0.6544  2.7726
 6718SOL    HW220998   3.710   3.280   0.325 -1.6362 -2.2747  0.7373
 6719SOL     OW20999   1.696   5.399   4.471 -0.1405 -0.0561 -0.3514
 6719SOL    HW121000   1.727   5.477   4.518  1.3645 -1.9032  1.9805
 6719SOL    HW221001   1.690   5.427   4.380  1.4987  2.4575  0.1995
 6720SOL     OW21002   7.583   3.654   5.355  0.0427 -0.3446  0.0622
 6720SOL    HW121003   7.651   3.590   5.374  0.3605 -0.7402 -2.1600
 6720SOL    HW221004   7.514   3.604   5.311 -1.3455  0.2081  1.5215
 6721SOL     OW21005   5.551   1.242   4.707 -0.4109 -0.1219  0.0450
 6721SOL    HW121006   5.537   1.191   4.786 -0.2325  1.0926  0.8975
 6721SOL    HW221007   5.643   1.268   4.711 -0.1815 -0.7258 -0.9898
 6722SOL     OW21008   4.369   6.015   5.911  0.3159  0.0490 -0.0594
 6722SOL    HW121009   4.465   6.019   5.903  0.2839  3.0047 -0.3497
 6722SOL    HW221010   4.338   6.010   5.820  0.1920 -0.8207  0.0306
 6723SOL     OW21011   1.165   1.233   3.147 -0.7808 -0.2014 -0.3786
 6723SOL    HW121012   1.095   1.248   3.211 -1.1508 -0.0066 -0.8286
 6723SOL    HW221013   1.185   1.319   3.112 -0.1942 -0.2312 -0.1400
 6724SOL     OW21014   5.630   3.156   0.385 -0.0709  0.4055 -0.1690
 6724SOL    HW121015   5.534   3.152   0.384 -0.0487 -0.4458 -1.7982
 6724SOL    HW221016   5.656   3.086   0.445 -0.4679 -0.5736 -1.0951
 6725SOL     OW21017   2.567   3.714   4.007 -0.0660 -0.3564  0.4188
 6725SOL    HW121018   2.536   3.702   4.097 -1.0337 -0.3372  0.1024
 6725SOL    HW221019   2.487   3.725   3.956  0.4455 -0.8912 -0.5231
 6726SOL     OW21020   2.940   8.002   1.860  0.6232  0.3401 -0.1833
 6726SOL    HW121021   2.981   7.939   1.919  1.5939 -0.1421 -1.3093
 6726SOL    HW221022   2.867   8.038   1.909  1.3651 -0.0644  1.2788
 6727SOL     OW21023   4.909   1.787   4.899  0.4700 -0.1710  0.1764
 6727SOL    HW121024   4.952   1.733   4.832  1.1679  0.4711  0.0888
 6727SOL    HW221025   4.877   1.863   4.851 -0.3837 -0.4276  0.3245
 6728SOL     OW21026   6.720   7.930   0.258 -0.4553  0.4211 -0.7305
 6728SOL    HW121027   6.670   7.991   0.203  0.2888  0.9615 -0.8161
 6728SOL    HW221028   6.766   7.874   0.196 -0.3439  0.4286 -0.6550
 6729SOL     OW21029   2.144   6.910   3.945  0.2450  0.4884 -0.1174
 6729SOL    HW121030   2.090   6.912   3.866  0.4378 -1.1024 -0.3197
 6729SOL    HW221031   2.216   6.850   3.924 -0.4873 -1.1526  1.7269
 6730SOL     OW21032   2.857   0.991   1.514  0.4406 -0.0348  0.6017
 6730SOL    HW121033   2.829   0.991   1.422 -0.1519 -0.7547  0.7711
 6730SOL    HW221034   2.887   1.080   1.530  1.2104 -0.0877 -0.4843
 6731SOL     OW21035   0.556   0.131   5.985 -0.5200 -0.5327  0.3649
 6731SOL    HW121036   0.554   0.186   5.907  1.7105 -1.2538 -0.2692
 6731SOL    HW221037   0.544   0.192   6.058 -1.1155  0.3528 -0.4536
 6732SOL     OW21038   6.208   0.889   1.109 -0.3714 -0.0713 -0.2911
 6732SOL    HW121039   6.216   0.806   1.157 -2.3474 -0.7831 -1.0860
 6732SOL    HW221040   6.171   0.864   1.024 -1.8289  1.6866 -0.2420
 6733SOL     OW21041   4.541   6.153   0.062  0.4187 -0.1638 -0.2383
 6733SOL    HW121042   4.510   6.225   0.006 -0.1970 -0.4546 -0.2754
 6733SOL    HW221043   4.602   6.104   0.006 -2.1668 -2.0216 -1.6288
 6734SOL     OW21044   1.841   4.095   1.586  0.3528 -0.2528 -0.1343
 6734SOL    HW121045   1.885   4.023   1.541  0.7501 -0.0298 -0.1090
 6734SOL    HW221046   1.762   4.056   1.623  0.3392 -0.5755 -0.5004
 6735SOL     OW21047   0.941   1.329   2.039  0.0041  0.2820  0.3046
 6735SOL    HW121048   0.975   1.357   2.124 -0.0884  2.6509 -0.3492
 6735SOL    HW221049   0.853   1.297   2.058 -0.4777  1.8909  1.0201
 6736SOL     OW21050   2.629   7.638   2.974  0.4917 -0.5956 -0.0997
 6736SOL    HW121051   2.663   7.711   2.922  2.7334  0.1993  2.2845
 6736SOL    HW221052   2.620   7.673   3.062 -2.6276 -2.0583  0.3027
 6737SOL     OW21053   6.263   3.374   5.579  0.1579 -0.2869 -0.1306
 6737SOL    HW121054   6.221   3.295   5.612  0.5655 -0.3007  0.3615
 6737SOL    HW221055   6.212   3.446   5.616  0.0728 -0.3120 -0.1978
 6738SOL     OW21056   7.170   7.954   6.059  0.0875  0.1889  0.0141
 6738SOL    HW121057   7.188   7.859   6.058  0.6270  0.2367  1.5797
 6738SOL    HW221058   7.114   7.967   6.135 -1.3407  0.9554 -1.1104
 6739SOL     OW21059   0.878   5.274   0.111  0.2452 -0.4433 -0.6911
 6739SOL    HW121060   0.892   5.191   0.156 -2.7519 -0.6738  0.0211
 6739SOL    HW221061   0.828   5.251   0.033 -1.4495  0.7155 -0.0051
 6740SOL     OW21062   6.409   2.532   5.336 -0.3791  0.0344 -0.2242
 6740SOL    HW121063   6.482   2.498   5.284  1.4835  1.0364  1.5685
 6740SOL    HW221064   6.333   2.483   5.306  0.9195 -0.6972 -2.5533
 6741SOL     OW21065   7.105   6.183   4.397 -0.0307 -0.1583 -0.1292
 6741SOL    HW121066   7.073   6.094   4.383  0.4640 -0.2606 -0.6278
 6741SOL    HW221067   7.044   6.221   4.461  0.3324 -1.1753  0.8524
 6742SOL     OW21068   5.471   5.194   0.719  0.0016  0.0207  0.0097
 6742SOL    HW121069   5.440   5.148   0.641 -0.7083  0.0435  0.2744
 6742SOL    HW221070   5.513   5.125   0.772 -0.4458 -0.1963  0.0864
 6743SOL     OW21071   2.838   5.101   7.215 -0.2928 -0.0515  0.1532
 6743SOL    HW121072   2.777   5.167   7.247 -0.0954  2.3444 -3.7571
 6743SOL    HW221073   2.787   5.048   7.153  0.6434 -0.6014 -0.1794
 6744SOL     OW21074   4.824   5.683   0.400 -0.6461  0.4260 -0.3377
 6744SOL    HW121075   4.768   5.605   0.401  0.3286 -0.2795 -0.0561
 6744SOL    HW221076   4.795   5.732   0.323 -0.9619 -0.4345 -0.7781
 6745SOL     OW21077   7.243   0.691   7.808  0.2632  0.4159  0.3662
 6745SOL    HW121078   7.249   0.746   7.731  2.9463 -0.8946 -0.4760
 6745SOL    HW221079   7.262   0.750   7.881 -4.2659  2.1380  0.4719
 6746SOL     OW21080   3.381   0.895   0.861 -0.8846 -0.3395 -0.3566
 6746SOL    HW121081   3.417   0.925   0.945 -1.7258  0.3912 -0.2436
 6746SOL    HW221082   3.409   0.960   0.798 -2.0252  0.2770 -0.2565
 6747SOL     OW21083   0.688   6.640   2.207  0.2722 -0.2171  0.7044
 6747SOL    HW121084   0.682   6.640   2.302  0.2684  0.7270  0.7140
 6747SOL    HW221085   0.597   6.651   2.178  0.3014 -0.2635  0.5959
 6748SOL     OW21086   4.491   5.543   0.222 -0.2832  0.4955 -0.0834
 6748SOL    HW121087   4.533   5.521   0.138  0.7799 -1.4863  0.9066
 6748SOL    HW221088   4.419   5.481   0.229 -0.7170  1.0258  0.2494
 6749SOL     OW21089   1.191   4.765   6.216  0.1189  0.1294 -0.1084
 6749SOL    HW121090   1.192   4.811   6.132  1.5197  0.5327  0.0978
 6749SOL    HW221091   1.148   4.682   6.198 -0.1405  0.4603 -1.0778
 6750SOL     OW21092   6.199   3.761   0.697  0.2728 -0.1147  0.4009
 6750SOL    HW121093   6.212   3.675   0.736  0.9528  0.0846  0.6227
 6750SOL    HW221094   6.176   3.818   0.771  1.7836  0.3105  0.5769
 6751SOL     OW21095   0.333   2.753   6.977 -0.8759 -0.2177 -0.2129
 6751SOL    HW121096   0.305   2.664   6.957 -0.0620 -0.7096  0.7403
 6751SOL    HW221097   0.294   2.772   7.062  1.9346 -1.1220  1.4205
 6752SOL     OW21098   1.377   4.611   2.385 -0.1625 -0.2963  0.3098
 6752SOL    HW121099   1.447   4.569   2.435  1.8650  0.8216 -1.4169
 6752SOL    HW221100   1.358   4.551   2.314  2.2600  1.1902 -1.7648
 6753SOL     OW21101   7.766   1.380   5.273  0.2808 -0.1238  0.5940
 6753SOL    HW121102   7.815   1.462   5.261 -1.3435  0.8568  0.2286
 6753SOL    HW221103   7.730   1.361   5.186 -0.7657 -0.2574  1.0398
 6754SOL     OW21104   0.969   8.184   1.969 -0.2267 -0.1591 -0.0092
 6754SOL    HW121105   0.961   8.130   1.890  0.6408 -2.4211  1.3535
 6754SOL    HW221106   0.946   8.125   2.040 -1.6067  2.0015  1.4338
 6755SOL     OW21107   1.122   7.414   0.054  0.1905 -1.1069  0.4339
 6755SOL    HW121108   1.183   7.482   0.083  1.2667 -1.7548 -0.2385
 6755SOL    HW221109   1.035   7.453   0.065  0.7520  0.0905  0.7574
 6756SOL     OW21110   7.103   0.059   6.600 -0.3866 -0.0578  0.3848
 6756SOL    HW121111   7.076   0.113   6.675  0.0627 -0.2155  0.6669
 6756SOL    HW221112   7.036   0.075   6.534 -1.2834 -0.5974  1.1333
 6757SOL     OW21113   2.577   1.344   1.898 -0.2831  0.1241  0.1056
 6757SOL    HW121114   2.528   1.261   1.900  0.7192 -0.4817  1.3341
 6757SOL    HW221115   2.510   1.411   1.908 -1.1587 -0.5028 -1.2706
 6758SOL     OW21116   7.364   2.617   2.302  0.1121  0.5000  0.6511
 6758SOL    HW121117   7.380   2.608   2.208 -1.3501  0.6180  0.3605
 6758SOL    HW221118   7.427   2.558   2.343  0.0431 -0.3809 -0.4710
 6759SOL     OW21119   0.794   5.761   2.099 -0.4503 -0.2660 -0.3649
 6759SOL    HW121120   0.746   5.680   2.080  0.6269 -0.6992 -1.3771
 6759SOL    HW221121   0.803   5.762   2.195 -0.1701 -1.5467 -0.3572
 6760SOL     OW21122   6.847   7.726   5.003 -0.0059 -0.2267  0.6621
 6760SOL    HW121123   6.896   7.659   5.049 -0.7462 -1.0198  0.3188
 6760SOL    HW221124   6.902   7.749   4.928  1.3135  1.2301  1.9791
 6761SOL     OW21125   1.116   6.889   6.053 -0.0968  0.0728 -0.2400
 6761SOL    HW121126   1.040   6.841   6.086 -0.2735  0.9970  0.7501
 6761SOL    HW221127   1.083   6.937   5.977 -0.0461 -0.9367 -0.9139
 6762SOL     OW21128   0.029   4.175   4.792 -0.0141 -0.2847  0.2756
 6762SOL    HW121129  -0.063   4.149   4.795  0.4194 -1.8664  2.4437
 6762SOL    HW221130   0.071   4.110   4.737 -0.3034  1.0938 -1.6780
 6763SOL     OW21131   4.536   8.121   2.200  0.4553 -0.4311 -0.3842
 6763SOL    HW121132   4.480   8.176   2.144  1.8243  2.0396  0.5458
 6763SOL    HW221133   4.623   8.159   2.192  1.4655 -2.4036  0.4851
 6764SOL     OW21134   1.427   3.241   5.099  0.7410 -0.1073  0.5215
 6764SOL    HW121135   1.421   3.287   5.183 -3.1010 -1.9056  1.4447
 6764SOL    HW221136   1.430   3.148   5.122  3.1194 -0.6188 -1.3834
 6765SOL     OW21137   1.402   8.050   0.639 -0.7840  0.6829 -0.2488
 6765SOL    HW121138   1.476   8.108   0.623 -0.8611  0.6056 -0.9001
 6765SOL    HW221139   1.381   8.012   0.554  0.0155 -1.2017  0.3372
 6766SOL     OW21140   8.173   2.286   0.783 -0.3709  0.1529  0.2767
 6766SOL    HW121141   8.111   2.269   0.854  0.4237 -0.7778  0.7616
 6766SOL    HW221142   8.207   2.374   0.803 -1.7668  0.8407 -0.1997
 6767SOL     OW21143   2.246   0.036   0.259 -0.5373  0.3998  0.3741
 6767SOL    HW121144   2.308   0.106   0.241  0.6225 -0.8808 -0.8121
 6767SOL    HW221145   2.201   0.064   0.339  2.3912  0.8485  2.0146
 6768SOL     OW21146   2.523   5.636   7.203  0.1823 -0.3107  0.7958
 6768SOL    HW121147   2.603   5.681   7.175  0.9369 -2.8889 -1.6919
 6768SOL    HW221148   2.478   5.700   7.259  2.7576  2.1546  0.3019
 6769SOL     OW21149   3.640   0.080   6.007  0.4657 -0.0625  0.1327
 6769SOL    HW121150   3.713   0.075   6.069  0.8210  1.1995 -0.1552
 6769SOL    HW221151   3.582   0.147   6.043 -0.0536 -0.3382 -0.1710
 6770SOL     OW21152   6.092   0.407   6.055  0.0146  0.3972  0.4927
 6770SOL    HW121153   6.064   0.496   6.078  1.0585  1.2146 -1.2074
 6770SOL    HW221154   6.179   0.418   6.018  0.8015 -1.5437  1.5817
 6771SOL     OW21155   0.941   4.932   4.773 -0.3526  0.0691  0.7267
 6771SOL    HW121156   0.906   4.854   4.729  0.0681  0.3948 -0.2107
 6771SOL    HW221157   0.980   4.898   4.853  0.3048 -0.7758  0.0785
 6772SOL     OW21158   3.782   3.557   4.633 -0.3681 -0.1461  0.5173
 6772SOL    HW121159   3.743   3.486   4.582  0.8471  0.6961 -1.7746
 6772SOL    HW221160   3.710   3.617   4.650 -0.5542  0.4437 -1.9386
 6773SOL     OW21161   5.804   7.325   7.547 -0.3402 -0.1304  0.1298
 6773SOL    HW121162   5.778   7.270   7.620  1.5331 -0.4208  0.6347
 6773SOL    HW221163   5.867   7.273   7.498 -0.5660  0.5628 -0.9464
 6774SOL     OW21164   7.442   3.543   6.852  0.1299 -0.4373 -0.4508
 6774SOL    HW121165   7.465   3.536   6.760 -0.7350  0.1455 -0.7290
 6774SOL    HW221166   7.388   3.466   6.870  0.7285 -0.8261 -0.2838
 6775SOL     OW21167   5.031   4.504   2.023  0.1463 -0.2527 -0.1289
 6775SOL    HW121168   4.974   4.545   1.958  0.4910  0.9653  0.3151
 6775SOL    HW221169   5.040   4.570   2.092  1.9599 -0.4896 -0.1072
 6776SOL     OW21170   2.427   0.088   1.930 -0.2193 -0.7566  0.0021
 6776SOL    HW121171   2.350   0.101   1.985  0.1417 -0.6213  0.4848
 6776SOL    HW221172   2.447   0.176   1.897  0.7430 -0.4733  1.2659
 6777SOL     OW21173   1.484   4.021   8.037  0.6682  0.0685 -0.1209
 6777SOL    HW121174   1.450   4.014   7.947 -0.8530  0.5805  0.3867
 6777SOL    HW221175   1.529   3.938   8.052  0.9648 -0.0156 -1.3678
 6778SOL     OW21176   7.118   8.099   3.461  0.0750  0.2881  0.3980
 6778SOL    HW121177   7.199   8.137   3.496 -0.0191  1.4685 -0.6026
 6778SOL    HW221178   7.143   8.063   3.376 -0.5269  1.1155 -0.1506
 6779SOL     OW21179   6.354   2.945   4.286  0.1772 -0.0730  0.4916
 6779SOL    HW121180   6.277   3.003   4.282  0.2943  0.1216  1.0139
 6779SOL    HW221181   6.360   2.920   4.378 -0.8998 -2.3321  0.0032
 6780SOL     OW21182   1.873   0.697   6.249  0.4259  0.0873  0.2401
 6780SOL    HW121183   1.897   0.642   6.324  1.4167  0.0074 -0.1156
 6780SOL    HW221184   1.850   0.634   6.180 -1.5531  0.1666  0.7812
 6781SOL     OW21185   1.135   6.209   6.358 -0.3935  0.1269 -0.0959
 6781SOL    HW121186   1.094   6.294   6.376  0.3178  0.5320 -0.3320
 6781SOL    HW221187   1.119   6.157   6.437 -1.8271  0.0760 -0.3994
 6782SOL     OW21188   1.528   0.248   7.523  0.3174 -0.6700 -0.1637
 6782SOL    HW121189   1.590   0.182   7.553  0.9245 -0.5099 -1.0268
 6782SOL    HW221190   1.450   0.234   7.576  0.6912 -1.6091  0.1518
 6783SOL     OW21191   1.888   0.941   3.668  0.4821 -0.1008  0.0470
 6783SOL    HW121192   1.823   0.960   3.600  0.7440  1.8547  0.2909
 6783SOL    HW221193   1.908   0.848   3.657  0.0711  0.0213 -2.1552
 6784SOL     OW21194   7.484   5.144   1.793 -0.4802 -0.3656  0.4064
 6784SOL    HW121195   7.576   5.117   1.798  0.4380  2.1580 -0.8650
 6784SOL    HW221196   7.446   5.117   1.877  1.7762 -0.3496  1.5041
 6785SOL     OW21197   5.962   6.704   4.234 -0.2585  0.0665  0.0736
 6785SOL    HW121198   5.881   6.709   4.182 -0.6261 -3.4025  0.0692
 6785SOL    HW221199   6.032   6.707   4.169 -0.5650 -0.2680 -0.2832
 6786SOL     OW21200   7.860   2.839   7.558 -0.8022  0.1164 -0.4746
 6786SOL    HW121201   7.881   2.905   7.492  0.7957  0.7036  0.5529
 6786SOL    HW221202   7.789   2.789   7.520 -0.8467  1.2959 -2.0567
 6787SOL     OW21203   7.009   6.990   1.174  0.3887 -0.4824 -0.6432
 6787SOL    HW121204   6.992   7.031   1.089 -0.7250 -0.8329 -0.6027
 6787SOL    HW221205   7.012   7.063   1.236  1.5988 -0.1861 -1.0172
 6788SOL     OW21206   3.400   3.036   2.757 -0.5896 -0.0114 -0.3115
 6788SOL    HW121207   3.447   3.058   2.677  0.1311 -0.1031  0.0827
 6788SOL    HW221208   3.458   3.063   2.828 -1.3123  0.2622  0.1871
 6789SOL     OW21209   5.796   6.122   0.880  0.1693  0.4657  0.0260
 6789SOL    HW121210   5.822   6.032   0.859 -1.0490  0.1125 -0.0202
 6789SOL    HW221211   5.720   6.138   0.824  0.4072  1.5547 -0.0055
 6790SOL     OW21212   2.395   3.532   7.639  0.2157 -0.3956  0.4458
 6790SOL    HW121213   2.411   3.626   7.632 -1.0984 -0.1893 -0.0105
 6790SOL    HW221214   2.431   3.508   7.724 -0.6540  0.7897  1.1704
 6791SOL     OW21215   0.527   7.669   6.300  0.3651  0.3215 -0.3061
 6791SOL    HW121216   0.548   7.710   6.216  0.8513  0.4575 -0.1200
 6791SOL    HW221217   0.529   7.575   6.281  1.4972  0.3170 -0.2203
 6792SOL     OW21218   3.312   4.949   1.007  0.0684 -0.2897 -0.9513
 6792SOL    HW121219   3.249   4.981   1.071  0.6724  0.2842 -0.6210
 6792SOL    HW221220   3.259   4.913   0.937 -0.7033  1.9658 -1.6194
 6793SOL     OW21221   7.921   5.339   3.719 -0.4967 -0.5005  0.2781
 6793SOL    HW121222   7.913   5.316   3.627 -0.4979 -0.9333  0.3841
 6793SOL    HW221223   7.836   5.315   3.757 -1.0306  1.0249  0.1132
 6794SOL     OW21224   5.278   0.205   3.850  0.1008  0.2270  0.7808
 6794SOL    HW121225   5.218   0.247   3.912 -0.0146  0.2489  0.6553
 6794SOL    HW221226   5.244   0.116   3.839 -0.5906  0.5924 -0.1763
 6795SOL     OW21227   4.876   5.627   5.469  0.1343 -0.0581  0.6643
 6795SOL    HW121228   4.880   5.563   5.540  0.0694  1.0965  1.7533
 6795SOL    HW221229   4.816   5.590   5.405  0.6874 -1.4116  0.9027
 6796SOL     OW21230   0.714   6.079   0.387  0.3261 -0.6588  0.5365
 6796SOL    HW121231   0.656   6.003   0.383 -0.3792 -0.0788 -1.0461
 6796SOL    HW221232   0.656   6.153   0.406  1.1414 -0.5894  3.2204
 6797SOL     OW21233   7.712   4.895   6.132 -0.1676  0.0633 -0.7062
 6797SOL    HW121234   7.710   4.869   6.040 -1.2689  0.3892 -0.7955
 6797SOL    HW221235   7.796   4.939   6.143  0.6091 -1.2584 -1.1759
 6798SOL     OW21236   0.750   6.411   3.425 -0.0557  0.2605  0.6184
 6798SOL    HW121237   0.710   6.480   3.372  0.3921 -0.2800 -0.4406
 6798SOL    HW221238   0.686   6.394   3.494 -1.2351  0.0820 -0.4795
 6799SOL     OW21239   7.217   0.726   7.328 -0.2730 -0.1291  0.2797
 6799SOL    HW121240   7.232   0.701   7.237 -0.4425  0.5767  0.0489
 6799SOL    HW221241   7.188   0.646   7.371 -0.3943 -0.4207 -0.3344
 6800SOL     OW21242   5.461   2.227   1.612 -0.3465 -0.4091  0.0545
 6800SOL    HW121243   5.447   2.136   1.641 -1.5303 -0.1682  0.3031
 6800SOL    HW221244   5.513   2.219   1.532  1.2472 -1.1952  1.1262
 6801SOL     OW21245   7.402   8.093   5.277  0.4499 -0.0763  0.5232
 6801SOL    HW121246   7.419   8.139   5.358 -0.7449  1.1443  0.1327
 6801SOL    HW221247   7.459   8.134   5.213 -0.2940  0.5947  0.2700
 6802SOL     OW21248   2.541   4.882   8.026 -0.0942 -0.4781  0.0618
 6802SOL    HW121249   2.569   4.817   8.091  1.3300  0.3703  0.3266
 6802SOL    HW221250   2.548   4.837   7.942 -1.1904 -1.3334  0.4114
 6803SOL     OW21251   1.315   4.903   6.415  0.0402  0.3707 -0.4152
 6803SOL    HW121252   1.262   4.865   6.344  0.7878 -0.9215 -0.3257
 6803SOL    HW221253   1.379   4.958   6.370 -1.0223  1.5307 -0.5554
 6804SOL     OW21254   2.089   8.066   4.621  0.7576 -0.0067 -0.3107
 6804SOL    HW121255   2.110   7.973   4.627  0.6192 -0.0471 -0.4336
 6804SOL    HW221256   2.104   8.100   4.709 -0.1193 -0.3442 -0.0205
 6805SOL     OW21257   5.257   0.191   0.280 -0.4082 -0.1455  0.0117
 6805SOL    HW121258   5.351   0.209   0.275 -0.3831 -0.3849 -0.4034
 6805SOL    HW221259   5.216   0.259   0.227 -0.6066  0.9537  1.5026
 6806SOL     OW21260   4.060   3.520   2.242 -0.0804  0.1313  0.2685
 6806SOL    HW121261   3.972   3.486   2.228 -0.0470 -0.0062  0.3863
 6806SOL    HW221262   4.048   3.593   2.304 -0.0836 -0.0391  0.4697
 6807SOL     OW21263   5.050   0.141   7.900  0.7643  0.2410  0.4406
 6807SOL    HW121264   5.100   0.215   7.866  0.0210  1.1783  1.3462
 6807SOL    HW221265   5.087   0.127   7.988  0.3437  0.0680  0.5889
 6808SOL     OW21266   6.764   3.661   1.654 -0.0822  0.1024 -0.1008
 6808SOL    HW121267   6.745   3.576   1.695 -1.0334 -0.6465 -1.9587
 6808SOL    HW221268   6.851   3.651   1.617 -0.4099 -0.2975 -0.7946
 6809SOL     OW21269   2.437   1.638   1.542  0.5839  0.6249  0.0497
 6809SOL    HW121270   2.500   1.570   1.569  0.7210  0.7284 -0.0061
 6809SOL    HW221271   2.351   1.598   1.557  0.6581  0.0479 -0.9742
 6810SOL     OW21272   7.627   1.250   3.621  0.1334  0.1631  0.1662
 6810SOL    HW121273   7.581   1.285   3.545  0.1538  2.0162  0.9559
 6810SOL    HW221274   7.640   1.157   3.601 -2.3245 -0.0264 -0.8688
 6811SOL     OW21275   4.400   0.256   2.892 -0.2413 -0.0796 -0.1136
 6811SOL    HW121276   4.393   0.264   2.987  0.8064  0.0457 -0.0325
 6811SOL    HW221277   4.318   0.293   2.859  0.5228  2.5871  0.6495
 6812SOL     OW21278   7.435   1.919   2.520 -0.2028  0.5943  0.0202
 6812SOL    HW121279   7.420   1.899   2.612  0.1066  0.2579  0.0004
 6812SOL    HW221280   7.527   1.947   2.517  1.0891 -3.1367 -0.7585
 6813SOL     OW21281   4.888   7.400   4.124 -0.2999 -0.1705 -0.9219
 6813SOL    HW121282   4.927   7.487   4.137  0.5217 -0.5624 -0.6998
 6813SOL    HW221283   4.816   7.415   4.064  1.4537  0.2878 -3.0230
 6814SOL     OW21284   4.080   4.038   5.783 -0.1761 -0.9499 -0.0704
 6814SOL    HW121285   4.129   3.979   5.726  3.2129  2.6037 -1.2455
 6814SOL    HW221286   4.083   3.997   5.869  1.9251 -2.5787 -0.8356
 6815SOL     OW21287   6.441   4.794   1.953 -0.1631 -0.1450 -0.2880
 6815SOL    HW121288   6.350   4.782   1.924  0.2119 -0.3583 -1.4201
 6815SOL    HW221289   6.470   4.874   1.908  0.6749 -0.9115 -1.1716
 6816SOL     OW21290   0.243   7.908   6.396  0.3563 -0.4050  0.1710
 6816SOL    HW121291   0.266   7.984   6.343 -1.5574  0.0624 -0.0785
 6816SOL    HW221292   0.198   7.945   6.472  1.5153 -1.1701  1.2568
 6817SOL     OW21293   4.155   2.309   7.481  0.1588 -0.4077 -0.0184
 6817SOL    HW121294   4.193   2.243   7.424 -0.6053  0.3776 -1.4926
 6817SOL    HW221295   4.072   2.271   7.509  0.1074 -0.4231 -0.1887
 6818SOL     OW21296   5.132   0.501   5.018  0.0926  0.2530 -0.2547
 6818SOL    HW121297   5.066   0.431   5.018 -1.0019  1.2412 -0.0615
 6818SOL    HW221298   5.083   0.579   4.990  1.2097  1.0019 -0.1615
 6819SOL     OW21299   4.670   4.584   6.188 -0.4385  0.3073  0.6003
 6819SOL    HW121300   4.583   4.621   6.177 -1.3218 -1.6107  0.7169
 6819SOL    HW221301   4.655   4.490   6.202  1.6664 -0.1812  0.0319
 6820SOL     OW21302   4.037   3.398   0.610 -0.0168  0.6637  0.1753
 6820SOL    HW121303   4.011   3.476   0.660 -1.0221  0.6540 -0.3015
 6820SOL    HW221304   4.073   3.433   0.529 -1.8979  0.6589 -0.7253
 6821SOL     OW21305   4.369   6.582   5.605  0.1948  0.3917 -0.0113
 6821SOL    HW121306   4.381   6.590   5.511  1.4311  0.9913  0.1751
 6821SOL    HW221307   4.423   6.651   5.642 -0.8735  0.6552  1.1194
 6822SOL     OW21308   1.105   0.717   0.422  0.4707  0.3982  0.2923
 6822SOL    HW121309   1.153   0.799   0.409  1.0177 -0.3273 -3.5157
 6822SOL    HW221310   1.109   0.673   0.337 -3.3971 -1.6813  0.9342
 6823SOL     OW21311   5.727   6.447   0.690 -0.1680  0.4040  0.2480
 6823SOL    HW121312   5.659   6.505   0.725 -0.7804  0.0359 -0.3209
 6823SOL    HW221313   5.709   6.362   0.732 -1.3847 -0.2491 -1.4872
 6824SOL     OW21314   8.063   7.181   2.017 -0.0801 -0.4203 -0.5100
 6824SOL    HW121315   8.115   7.107   1.986  1.6752  0.8822 -0.8083
 6824SOL    HW221316   8.087   7.254   1.960 -1.5182  0.4822 -0.0226
 6825SOL     OW21317   4.285   3.817   3.754 -0.1430  0.2296 -1.2112
 6825SOL    HW121318   4.216   3.823   3.820 -0.8450 -0.6602 -1.8405
 6825SOL    HW221319   4.341   3.746   3.783 -0.6225 -0.3649 -1.7061
 6826SOL     OW21320   2.419   7.734   2.188 -0.6281 -0.0738 -0.0347
 6826SOL    HW121321   2.366   7.659   2.161  0.5486 -0.1984 -2.2097
 6826SOL    HW221322   2.483   7.698   2.249 -1.2739 -0.4443  0.4325
 6827SOL     OW21323   5.596   3.780   2.653 -0.0909  0.6944  0.5217
 6827SOL    HW121324   5.608   3.855   2.595  1.0738  0.8432  0.9167
 6827SOL    HW221325   5.586   3.819   2.740 -0.0694  0.4218  0.6463
 6828SOL     OW21326   6.963   3.180   3.118  0.0315  0.3749  0.4488
 6828SOL    HW121327   6.937   3.233   3.043 -1.3786 -1.7437 -0.6559
 6828SOL    HW221328   6.957   3.240   3.193  0.9105  2.3862 -0.9884
 6829SOL     OW21329   2.671   3.995   0.805 -0.4532  0.1708 -0.1940
 6829SOL    HW121330   2.699   3.992   0.714 -3.0917  0.0273 -1.0681
 6829SOL    HW221331   2.687   3.907   0.838  2.9962  0.8815  0.3832
 6830SOL     OW21332   8.073   3.561   1.704 -0.7829  0.3542 -0.0164
 6830SOL    HW121333   8.055   3.468   1.701  0.6684  0.0607 -0.9759
 6830SOL    HW221334   8.005   3.601   1.649 -2.0165  0.0078  1.2122
 6831SOL     OW21335   3.189   2.407   0.188  0.3458 -1.1682  0.2936
 6831SOL    HW121336   3.125   2.397   0.259  1.4717  0.6552  1.6566
 6831SOL    HW221337   3.139   2.440   0.114 -0.0967  2.6452  2.0418
 6832SOL     OW21338   5.945   1.152   4.964  0.3531 -0.3531  0.4667
 6832SOL    HW121339   5.984   1.081   4.913  1.5048 -0.8653  1.9728
 6832SOL    HW221340   5.861   1.118   4.993  0.1540 -0.4484 -0.2147
 6833SOL     OW21341   2.636   3.343   3.053 -0.3411 -0.0208  0.1426
 6833SOL    HW121342   2.560   3.312   3.004 -0.7834 -0.1219  0.8678
 6833SOL    HW221343   2.653   3.274   3.117  0.0653  0.2140  0.2915
 6834SOL     OW21344   1.616   8.107   0.179 -0.1791  0.3420 -0.4967
 6834SOL    HW121345   1.635   8.155   0.259 -4.7537  1.1667  0.3362
 6834SOL    HW221346   1.624   8.015   0.204  0.0948  0.6015  0.4059
 6835SOL     OW21347   6.253   1.881   6.133  0.5903  0.3414  0.7155
 6835SOL    HW121348   6.204   1.961   6.154 -1.1228 -0.3201 -0.5244
 6835SOL    HW221349   6.299   1.901   6.052  1.4040  0.5638  1.2284
 6836SOL     OW21350   8.022   3.435   6.472 -0.3999  0.3278  0.3893
 6836SOL    HW121351   8.019   3.509   6.412 -0.3297 -0.1182 -0.1733
 6836SOL    HW221352   8.116   3.416   6.481 -0.4485 -0.1476 -0.0465
 6837SOL     OW21353   2.213   2.283   5.940 -0.8058 -0.1148  0.2747
 6837SOL    HW121354   2.275   2.337   5.891 -2.6951  0.7566 -1.3207
 6837SOL    HW221355   2.143   2.344   5.963 -1.7076 -1.3309  0.8119
 6838SOL     OW21356   1.631   5.918   1.675 -0.0387  0.0775 -0.1165
 6838SOL    HW121357   1.630   6.002   1.630 -1.5667 -0.4755 -1.1983
 6838SOL    HW221358   1.567   5.928   1.746 -0.5911 -0.2973 -0.5478
 6839SOL     OW21359   2.326   3.487   7.001 -0.0800  0.0151 -0.1471
 6839SOL    HW121360   2.237   3.478   6.968 -0.4043 -0.4380  0.8181
 6839SOL    HW221361   2.371   3.408   6.970 -0.5436 -0.7000  0.9718
 6840SOL     OW21362   0.478   5.752   6.167  0.0582  0.4744 -0.8476
 6840SOL    HW121363   0.525   5.718   6.091  1.1291  0.2774 -0.1192
 6840SOL    HW221364   0.415   5.684   6.190  2.9925 -1.7389  1.3535
 6841SOL     OW21365   2.463   4.232   7.348  0.0277 -0.1642  0.0009
 6841SOL    HW121366   2.446   4.298   7.281  0.3153 -0.1947 -0.1017
 6841SOL    HW221367   2.378   4.219   7.391  0.0798  0.6227  0.3413
 6842SOL     OW21368   5.996   5.930   6.160 -0.3861 -0.1540 -0.3199
 6842SOL    HW121369   6.013   5.926   6.254  0.7009  0.3511 -0.4816
 6842SOL    HW221370   5.914   5.979   6.153  1.1106  2.6240  0.2552
 6843SOL     OW21371   5.873   7.603   7.766 -0.1865  0.0534 -0.3345
 6843SOL    HW121372   5.960   7.592   7.726 -0.1764  1.2066 -0.6564
 6843SOL    HW221373   5.824   7.527   7.736  0.0132  0.5532 -2.0620
 6844SOL     OW21374   0.720   4.861   5.033 -0.1018 -0.3289 -0.1357
 6844SOL    HW121375   0.806   4.838   5.066 -0.8284  0.0288  2.1947
 6844SOL    HW221376   0.659   4.825   5.098 -1.7528 -0.8820 -1.8917
 6845SOL     OW21377   4.890   7.059   4.850 -0.0763  0.4262 -0.4396
 6845SOL    HW121378   4.866   6.991   4.786  0.7038 -0.7861  0.5065
 6845SOL    HW221379   4.984   7.070   4.839  0.3129 -0.7094  1.2853
 6846SOL     OW21380   4.991   1.308   8.182  0.9993 -0.0347  0.3526
 6846SOL    HW121381   5.005   1.235   8.121 -0.4971  0.2796 -0.4125
 6846SOL    HW221382   5.079   1.336   8.206  1.6129 -2.0030  0.5845
 6847SOL     OW21383   2.785   3.972   4.769  0.1660 -0.2784  1.0354
 6847SOL    HW121384   2.780   3.903   4.835 -0.2218 -0.7220  0.5576
 6847SOL    HW221385   2.744   4.048   4.810  0.3770 -0.4042  1.4820
 6848SOL     OW21386   6.824   0.114   1.092 -0.0572  0.4043 -0.1544
 6848SOL    HW121387   6.857   0.047   1.152 -1.4836  0.8014  1.1327
 6848SOL    HW221388   6.747   0.074   1.051  0.7305  0.2453 -1.5427
 6849SOL     OW21389   0.654   7.915   1.482  0.4878  0.2443  0.4232
 6849SOL    HW121390   0.624   7.991   1.532 -0.1407 -0.2991  0.9076
 6849SOL    HW221391   0.589   7.906   1.412 -0.7811 -1.1648  1.6993
 6850SOL     OW21392   3.418   5.977   4.297  0.4324 -0.0891  0.0830
 6850SOL    HW121393   3.467   5.906   4.340  1.3969  0.6361  0.2245
 6850SOL    HW221394   3.407   6.043   4.364  0.5710  0.3892 -0.3582
 6851SOL     OW21395   2.619   1.486   1.648 -0.0954  0.2468 -0.4249
 6851SOL    HW121396   2.709   1.502   1.674  0.8683 -2.7787 -1.5020
 6851SOL    HW221397   2.587   1.422   1.712 -1.7907  1.7771  0.3629
 6852SOL     OW21398   3.317   5.554   7.816  0.2720 -0.0815  0.7023
 6852SOL    HW121399   3.354   5.642   7.826 -0.4447  0.2963  0.1200
 6852SOL    HW221400   3.393   5.498   7.797  0.4978  0.8165 -1.3347
 6853SOL     OW21401   7.497   6.243   6.024  0.4043 -0.1862 -0.0099
 6853SOL    HW121402   7.525   6.253   5.933  0.4353 -2.2061 -0.2587
 6853SOL    HW221403   7.570   6.279   6.075  1.2960 -0.8881 -0.7585
 6854SOL     OW21404   5.630   7.580   6.717 -0.6501  0.0475 -0.3117
 6854SOL    HW121405   5.649   7.673   6.727  0.9396 -0.4067  1.1961
 6854SOL    HW221406   5.714   7.540   6.695 -1.2942 -1.0582 -0.8526
 6855SOL     OW21407   8.022   0.309   2.311  0.4512 -0.4036 -0.0534
 6855SOL    HW121408   8.104   0.260   2.320  0.7356 -0.1122 -1.0114
 6855SOL    HW221409   7.987   0.283   2.226  0.0796  0.2778 -0.1189
 6856SOL     OW21410   0.644   7.859   3.211  0.0383 -0.1198 -0.1071
 6856SOL    HW121411   0.642   7.777   3.259 -1.5360  0.5140  1.0022
 6856SOL    HW221412   0.722   7.904   3.242  1.2344 -1.4185 -1.1598
 6857SOL     OW21413   8.025   1.797   6.291  0.2328  0.0691 -0.1851
 6857SOL    HW121414   8.019   1.852   6.370 -0.6437  1.8997 -1.4628
 6857SOL    HW221415   8.013   1.858   6.218 -0.9124 -1.8441 -1.6938
 6858SOL     OW21416   7.605   3.773   1.252 -0.1164  0.8234 -0.1162
 6858SOL    HW121417   7.600   3.846   1.191  0.9066  1.9182  1.0665
 6858SOL    HW221418   7.579   3.810   1.336 -1.2354 -0.5941  0.2098
 6859SOL     OW21419   3.130   8.186   1.813 -0.1013 -0.0182 -0.5433
 6859SOL    HW121420   3.057   8.126   1.799 -0.6175  0.4882 -0.0364
 6859SOL    HW221421   3.199   8.153   1.756 -0.9380 -0.1145 -1.5138
 6860SOL     OW21422   4.617   6.887   2.597  0.3817 -0.0336 -0.4037
 6860SOL    HW121423   4.577   6.941   2.529  0.8046 -0.5544 -1.0758
 6860SOL    HW221424   4.631   6.947   2.670  0.7506  0.7506 -1.1026
 6861SOL     OW21425   2.374   0.213   5.627  1.0764  0.0220  0.1397
 6861SOL    HW121426   2.363   0.177   5.715  1.8258 -0.6338 -0.0207
 6861SOL    HW221427   2.289   0.200   5.585  0.3706  1.3320  1.1022
 6862SOL     OW21428   1.731   0.448   2.034  0.2364 -0.3744 -0.2705
 6862SOL    HW121429   1.642   0.422   2.011  0.2432 -1.2163  0.6086
 6862SOL    HW221430   1.777   0.366   2.048  0.6579  0.0666  1.1121
 6863SOL     OW21431   0.512   7.082   7.935  0.1212  0.6596  0.4206
 6863SOL    HW121432   0.438   7.109   7.881 -0.2626 -1.9493 -0.4985
 6863SOL    HW221433   0.491   6.993   7.961  2.4419  0.2472  1.0747
 6864SOL     OW21434   2.115   6.864   7.320 -0.4576 -0.3840  0.5934
 6864SOL    HW121435   2.170   6.804   7.270 -0.7191 -0.0232 -0.1301
 6864SOL    HW221436   2.041   6.811   7.349 -0.6416 -0.4353  0.0364
 6865SOL     OW21437   5.982   1.793   4.392  0.1424 -0.1648 -0.4851
 6865SOL    HW121438   6.028   1.802   4.476  2.1713 -2.6665 -1.1933
 6865SOL    HW221439   6.046   1.822   4.327 -0.2656 -1.0828 -1.3229
 6866SOL     OW21440   6.956   6.721   1.712  0.3055 -0.3093  0.4397
 6866SOL    HW121441   6.877   6.739   1.763  0.5758  0.5655  0.5486
 6866SOL    HW221442   6.972   6.627   1.727  0.2891 -0.1124  1.8268
 6867SOL     OW21443   6.549   0.033   2.860 -0.4273  0.7470  0.1545
 6867SOL    HW121444   6.636  -0.005   2.867 -0.3938  0.7210 -0.3349
 6867SOL    HW221445   6.551   0.110   2.916 -0.9065 -0.6629  2.2486
 6868SOL     OW21446   5.543   6.183   7.208  0.2266 -0.9825  0.0476
 6868SOL    HW121447   5.602   6.210   7.137 -0.3797 -0.3712 -0.2360
 6868SOL    HW221448   5.601   6.169   7.283  0.7822 -0.8278 -0.3414
 6869SOL     OW21449   0.155   5.154   8.162  0.5512 -0.1068 -0.1157
 6869SOL    HW121450   0.140   5.060   8.173  0.3643 -0.0902 -0.2282
 6869SOL    HW221451   0.244   5.168   8.194  0.6928 -0.3751 -0.3842
 6870SOL     OW21452   2.521   2.752   6.358 -0.2059  0.3682  0.3766
 6870SOL    HW121453   2.441   2.701   6.348  0.6673 -1.2332  1.2554
 6870SOL    HW221454   2.542   2.782   6.269 -2.2174  1.5876  0.2439
 6871SOL     OW21455   7.294   6.595   5.004  0.2404 -0.0286 -0.0673
 6871SOL    HW121456   7.327   6.518   5.051 -1.7862 -1.3255 -0.6849
 6871SOL    HW221457   7.277   6.659   5.074 -1.5294 -1.4738  0.9195
 6872SOL     OW21458   5.563   1.637   2.109  0.5439  0.0183 -0.3932
 6872SOL    HW121459   5.544   1.592   2.027 -0.6494 -0.5556  0.1610
 6872SOL    HW221460   5.539   1.573   2.177 -1.6781  1.5814  0.4291
 6873SOL     OW21461   5.710   2.589   1.438  0.6423 -0.3585  0.4119
 6873SOL    HW121462   5.728   2.499   1.466  0.2958 -0.0676  1.6301
 6873SOL    HW221463   5.618   2.603   1.461  0.3736 -0.0482 -0.7933
 6874SOL     OW21464   5.390   3.847   4.121 -0.1788  0.0522 -0.2338
 6874SOL    HW121465   5.356   3.881   4.204 -1.2286  1.9502 -1.3774
 6874SOL    HW221466   5.362   3.756   4.119  0.8289 -0.3733  1.9607
 6875SOL     OW21467   2.478   3.911   1.632  0.5771 -0.3267  0.7934
 6875SOL    HW121468   2.505   3.937   1.544 -0.1530 -1.4178  0.2196
 6875SOL    HW221469   2.529   3.966   1.690 -1.7582  3.3061 -0.2923
 6876SOL     OW21470   1.416   7.241   1.790 -0.8761  0.3560  0.1668
 6876SOL    HW121471   1.322   7.250   1.802 -1.0576  1.4714 -1.7872
 6876SOL    HW221472   1.448   7.206   1.873 -2.9707  0.1875  0.9344
 6877SOL     OW21473   2.764   4.823   4.175  0.1419 -0.5258 -0.1582
 6877SOL    HW121474   2.827   4.796   4.242 -0.8139 -1.7716  0.2815
 6877SOL    HW221475   2.688   4.854   4.225 -0.7927 -1.9778 -0.6108
 6878SOL     OW21476   0.391   3.679   3.339 -0.5768  0.4382  0.0680
 6878SOL    HW121477   0.398   3.727   3.257 -0.7370  0.7775  0.2511
 6878SOL    HW221478   0.469   3.623   3.341 -1.1528 -0.4306 -0.8526
 6879SOL     OW21479   1.459   0.412   0.251  0.2733  0.6951 -0.3056
 6879SOL    HW121480   1.505   0.404   0.335 -1.5462  0.2025  0.6750
 6879SOL    HW221481   1.455   0.507   0.236 -0.1847  0.8307  0.6192
 6880SOL     OW21482   6.096   4.687   3.903 -0.6817 -0.8656 -0.1177
 6880SOL    HW121483   6.147   4.618   3.944 -0.1677 -1.1660 -1.2357
 6880SOL    HW221484   6.053   4.732   3.976  1.1415 -0.6175  0.8396
 6881SOL     OW21485   6.282   6.497   6.117 -0.2137 -0.0830  0.1845
 6881SOL    HW121486   6.325   6.465   6.196  0.3378  2.6118  1.0716
 6881SOL    HW221487   6.353   6.513   6.055 -0.2590  1.2059  0.4498
 6882SOL     OW21488   0.653   6.869   3.008 -0.4584 -0.3740 -0.2996
 6882SOL    HW121489   0.578   6.810   3.017  0.1718 -1.4179 -1.5325
 6882SOL    HW221490   0.684   6.854   2.919  2.0465 -0.9824  0.5859
 6883SOL     OW21491   1.571   1.163   1.396 -0.4463 -0.1244  0.2479
 6883SOL    HW121492   1.570   1.148   1.491 -1.6090  0.1534  0.2910
 6883SOL    HW221493   1.484   1.198   1.376  0.1667  0.9036 -0.7565
 6884SOL     OW21494   7.765   4.973   4.514  0.1609  0.1028 -0.3602
 6884SOL    HW121495   7.832   4.905   4.522  1.7301  1.1965 -2.9974
 6884SOL    HW221496   7.756   5.007   4.603  1.6294 -1.4424  0.4394
 6885SOL     OW21497   1.780   0.662   4.997 -0.0219 -0.3973 -0.5593
 6885SOL    HW121498   1.761   0.755   4.985 -0.6411 -0.5165 -0.5543
 6885SOL    HW221499   1.695   0.619   4.988  0.3188 -1.0020 -0.9213
 6886SOL     OW21500   6.446   8.119   7.922 -0.0447  0.3797  0.3682
 6886SOL    HW121501   6.496   8.143   7.999 -0.8619  1.0343  0.7073
 6886SOL    HW221502   6.393   8.044   7.950  0.2978  0.0615  0.1801
 6887SOL     OW21503   5.077   0.268   3.243  0.3768  0.1539  0.5709
 6887SOL    HW121504   5.128   0.343   3.272 -0.6710  0.3903  1.9196
 6887SOL    HW221505   5.002   0.266   3.302  0.7467 -2.3949  1.0969
 6888SOL     OW21506   5.216   6.431   2.416  0.1415  0.2657  0.0341
 6888SOL    HW121507   5.271   6.496   2.373 -1.1029  0.6691 -0.9973
 6888SOL    HW221508   5.130   6.472   2.422 -1.1584 -1.8955 -2.2411
 6889SOL     OW21509   7.906   2.993   6.512 -0.1032  0.6833  0.1075
 6889SOL    HW121510   7.887   3.084   6.489 -2.8244  0.4992  1.2217
 6889SOL    HW221511   7.867   2.982   6.599  1.1502 -1.2717  0.4845
 6890SOL     OW21512   6.655   2.809   3.681  0.0946  0.2798 -0.1116
 6890SOL    HW121513   6.625   2.738   3.625  0.3329 -1.1880  1.5454
 6890SOL    HW221514   6.596   2.882   3.661  0.4459 -0.0256 -2.5377
 6891SOL     OW21515   6.184   2.363   5.420  0.2076  0.7525  1.0126
 6891SOL    HW121516   6.107   2.311   5.443 -0.0703  1.5134  1.8306
 6891SOL    HW221517   6.255   2.300   5.415 -0.3233  0.1484  0.9701
 6892SOL     OW21518   1.821   8.042   0.708 -0.1127  0.1257 -0.5032
 6892SOL    HW121519   1.864   7.958   0.721  0.2928  0.4342  0.1967
 6892SOL    HW221520   1.890   8.107   0.724 -0.9188  0.6360  1.0040
 6893SOL     OW21521   2.951   4.567   0.321  0.4248  0.2686  0.0811
 6893SOL    HW121522   2.881   4.508   0.293 -0.1927  2.1632 -2.8450
 6893SOL    HW221523   2.907   4.633   0.374  0.3467  0.4267 -0.1814
 6894SOL     OW21524   5.244   4.405   0.615  0.1050  0.9464  0.5418
 6894SOL    HW121525   5.327   4.453   0.619 -0.5777  2.1277  1.4395
 6894SOL    HW221526   5.177   4.474   0.608 -0.7940  0.0120 -0.5441
 6895SOL     OW21527   3.502   7.780   2.737 -0.0827 -0.4388  0.3972
 6895SOL    HW121528   3.498   7.864   2.691 -0.6177 -0.4944  0.3403
 6895SOL    HW221529   3.423   7.779   2.791  0.5082 -0.3927  1.2936
 6896SOL     OW21530   3.505   0.631   4.248 -0.5153  0.4365  0.0542
 6896SOL    HW121531   3.430   0.640   4.189 -1.3084  1.1325  1.1322
 6896SOL    HW221532   3.482   0.559   4.306  0.4466 -0.5271 -0.7132
 6897SOL     OW21533   1.486   0.313   3.559  0.7012  0.0141  0.7038
 6897SOL    HW121534   1.569   0.303   3.513  1.2609 -1.7067  1.9880
 6897SOL    HW221535   1.476   0.232   3.609 -0.7052  1.0876  2.2599
 6898SOL     OW21536   6.627   8.050   5.463  0.0092 -0.8235  0.1983
 6898SOL    HW121537   6.698   8.027   5.522 -0.3348 -1.1758  0.4788
 6898SOL    HW221538   6.582   8.123   5.505  0.8622  0.1397 -0.5049
 6899SOL     OW21539   6.657   4.236   0.062 -0.3856 -0.4647 -0.1915
 6899SOL    HW121540   6.723   4.167   0.068 -0.3247 -0.3573  0.4264
 6899SOL    HW221541   6.574   4.192   0.077 -0.5852 -0.7821 -1.9558
 6900SOL     OW21542   1.725   7.968   1.019  0.2817  0.0023 -0.2514
 6900SOL    HW121543   1.797   7.967   0.956 -0.9544 -0.6165 -1.7287
 6900SOL    HW221544   1.668   7.896   0.990 -0.9781  0.5497  0.7977
 6901SOL     OW21545   0.442   4.402   4.212 -0.3427 -0.0584 -0.4749
 6901SOL    HW121546   0.465   4.425   4.122 -1.7439  2.0407 -0.3609
 6901SOL    HW221547   0.387   4.324   4.202 -2.8671  1.7327 -1.8072
 6902SOL     OW21548   2.810   1.873   0.738  0.2497  0.2875 -0.6386
 6902SOL    HW121549   2.802   1.789   0.783 -0.8692  0.6587 -0.1141
 6902SOL    HW221550   2.728   1.919   0.757  1.7177  2.4536  1.0395
 6903SOL     OW21551   7.298   5.575   4.605  0.0827  0.3548  0.3368
 6903SOL    HW121552   7.373   5.518   4.620  0.1927  0.4910  0.3001
 6903SOL    HW221553   7.283   5.618   4.690 -0.7739 -0.6571  0.7247
 6904SOL     OW21554   8.182   4.269   4.064 -0.5447 -0.5524  0.1018
 6904SOL    HW121555   8.091   4.295   4.077 -0.7415 -1.2990  0.2436
 6904SOL    HW221556   8.178   4.199   3.999 -0.1159 -0.8894  0.4359
 6905SOL     OW21557   0.977   7.598   5.531  0.2767  0.0406  0.1559
 6905SOL    HW121558   1.064   7.588   5.567  0.2260  0.3369  0.3635
 6905SOL    HW221559   0.918   7.574   5.603  0.1805  0.3620  0.1841
 6906SOL     OW21560   2.552   4.332   1.697  0.2029 -0.2199  0.0665
 6906SOL    HW121561   2.464   4.304   1.671  0.3926 -0.7682  0.0017
 6906SOL    HW221562   2.599   4.251   1.713  0.1612  0.0788  1.9503
 6907SOL     OW21563   6.705   1.818   3.762  0.0187  0.1933 -0.0597
 6907SOL    HW121564   6.765   1.789   3.832  0.5008  2.2405  0.4500
 6907SOL    HW221565   6.761   1.870   3.703 -0.7792  0.0952 -0.9215
 6908SOL     OW21566   6.869   3.044   1.873 -0.1862  0.2666 -0.2205
 6908SOL    HW121567   6.827   2.984   1.934 -0.3600 -0.0426 -0.6407
 6908SOL    HW221568   6.852   3.131   1.910  2.2108  0.0055  1.7984
 6909SOL     OW21569   5.066   8.133   6.607 -0.0366 -0.3288  0.2624
 6909SOL    HW121570   5.071   8.126   6.702  0.6579  0.4371  0.2885
 6909SOL    HW221571   5.015   8.057   6.580  0.1317 -0.7862  1.2117
 6910SOL     OW21572   0.382   7.225   7.652  0.2430 -0.2896 -0.6955
 6910SOL    HW121573   0.298   7.184   7.634  0.4973 -0.2279 -2.1098
 6910SOL    HW221574   0.366   7.318   7.643  0.2300 -0.2058  0.1029
 6911SOL     OW21575   0.905   4.769   2.082 -0.0219  0.2417 -0.7212
 6911SOL    HW121576   0.834   4.764   2.018  0.0711  0.3283 -0.8297
 6911SOL    HW221577   0.953   4.687   2.070 -1.0184 -0.5414  0.4160
 6912SOL     OW21578   4.053   0.136   7.986 -0.0352 -0.5656 -0.1325
 6912SOL    HW121579   3.968   0.167   7.955  1.0665  1.6783 -1.1735
 6912SOL    HW221580   4.080   0.072   7.920  0.4200  1.0763 -1.6412
 6913SOL     OW21581   4.300   6.874   0.134  0.1971 -0.0598  0.2707
 6913SOL    HW121582   4.368   6.923   0.089 -0.3111  1.1763  0.7973
 6913SOL    HW221583   4.297   6.790   0.088  0.2907  0.8127 -1.4340
 6914SOL     OW21584   2.407   1.620   6.383  0.1478 -0.2871 -0.0341
 6914SOL    HW121585   2.382   1.663   6.466  1.2914  0.1394  0.1126
 6914SOL    HW221586   2.424   1.529   6.407 -0.5516 -0.4183 -0.0097
 6915SOL     OW21587   1.801   6.482   4.994 -0.1078 -0.5541 -0.2708
 6915SOL    HW121588   1.806   6.394   5.029 -1.0173  0.0905  1.6345
 6915SOL    HW221589   1.712   6.511   5.015 -0.3939  0.2551 -2.3342
 6916SOL     OW21590   2.173   7.091   5.110 -0.3304 -0.4422  0.1225
 6916SOL    HW121591   2.209   7.019   5.057  1.4089 -0.9858  1.9055
 6916SOL    HW221592   2.103   7.050   5.162  0.3004 -0.7688  0.7414
 6917SOL     OW21593   1.338   1.376   2.189  0.1997  0.0182  0.2402
 6917SOL    HW121594   1.264   1.428   2.221 -0.7059 -1.5948  0.9110
 6917SOL    HW221595   1.370   1.330   2.266  1.3790  0.0347 -0.2165
 6918SOL     OW21596   6.371   7.163   1.232 -0.3535 -0.1668 -0.4196
 6918SOL    HW121597   6.370   7.162   1.328 -0.4265  1.1003 -0.3960
 6918SOL    HW221598   6.450   7.113   1.209 -0.2107 -0.2960  0.3054
 6919SOL     OW21599   3.685   2.096   1.489 -0.1776  0.0186 -0.0200
 6919SOL    HW121600   3.659   2.004   1.495  1.0534 -0.2924  0.9329
 6919SOL    HW221601   3.711   2.120   1.577  2.8233  0.2395 -0.8510
 6920SOL     OW21602   8.022   1.649   3.856  0.7008  0.1782  0.1299
 6920SOL    HW121603   7.986   1.660   3.768  1.3889 -1.1473 -0.3473
 6920SOL    HW221604   8.029   1.554   3.866 -0.2686  0.2646  1.9904
 6921SOL     OW21605   1.866   3.623   7.215 -0.3182  0.6142 -0.1025
 6921SOL    HW121606   1.823   3.538   7.204 -0.8652  0.9637 -0.7442
 6921SOL    HW221607   1.856   3.643   7.308 -2.0481  0.9221 -0.3170
 6922SOL     OW21608   5.934   0.709   6.534 -0.3590 -0.0276 -0.2378
 6922SOL    HW121609   6.005   0.772   6.543 -0.5478  0.0353  1.0846
 6922SOL    HW221610   5.936   0.660   6.617  0.6913 -2.7473 -1.7455
 6923SOL     OW21611   0.615   2.706   2.730 -0.6671 -0.8592  0.0325
 6923SOL    HW121612   0.666   2.769   2.679 -0.6207 -2.0807 -1.5066
 6923SOL    HW221613   0.614   2.743   2.819  0.8231  0.4141 -0.4197
 6924SOL     OW21614   0.917   2.653   7.912 -0.2312 -0.5146  0.5688
 6924SOL    HW121615   0.971   2.606   7.975  0.7837 -0.3142 -0.1315
 6924SOL    HW221616   0.930   2.745   7.933  0.0891 -0.4477  0.1064
 6925SOL     OW21617   5.772   3.046   1.529  0.0169 -0.4113 -0.0530
 6925SOL    HW121618   5.720   3.120   1.560  0.8745 -0.1112  0.6913
 6925SOL    HW221619   5.732   2.969   1.570 -1.6337 -0.5498 -1.7689
 6926SOL     OW21620   4.105   1.820   6.495  0.7137  0.2599  0.5010
 6926SOL    HW121621   4.183   1.857   6.456  1.0693 -0.5059  0.4543
 6926SOL    HW221622   4.138   1.756   6.558  0.1322 -0.4487  0.1092
 6927SOL     OW21623   8.208   3.481   5.997 -0.6122 -0.0109 -0.0478
 6927SOL    HW121624   8.184   3.490   6.090 -2.2017 -1.6427 -0.2452
 6927SOL    HW221625   8.173   3.560   5.956 -0.0413  0.6503  0.7097
 6928SOL     OW21626   2.149   6.648   5.442  0.0552  0.0539  0.0036
 6928SOL    HW121627   2.062   6.645   5.483  0.3576  0.7086  0.7138
 6928SOL    HW221628   2.136   6.703   5.364 -0.5307 -1.2339 -0.8546
 6929SOL     OW21629   6.742   7.998   6.475  0.1332 -0.0791 -0.7800
 6929SOL    HW121630   6.737   7.980   6.569  1.3862 -0.3420 -0.7456
 6929SOL    HW221631   6.658   7.969   6.440  0.2798 -1.5505  0.0084
 6930SOL     OW21632   5.597   6.725   4.385 -0.2235 -0.2426  0.0735
 6930SOL    HW121633   5.524   6.727   4.447  0.6371 -1.6646  1.2231
 6930SOL    HW221634   5.638   6.640   4.401  2.2070  0.8717  0.1009
 6931SOL     OW21635   6.989   1.023   3.837  0.5575  0.0595  0.2518
 6931SOL    HW121636   7.078   0.992   3.818  0.3489 -0.2170 -0.2988
 6931SOL    HW221637   6.971   1.086   3.767  1.0874  1.6814  1.5209
 6932SOL     OW21638   2.053   2.922   0.321  0.2285  0.2258 -0.3396
 6932SOL    HW121639   1.974   2.915   0.374 -0.3301 -0.7813 -1.2620
 6932SOL    HW221640   2.053   3.012   0.289  0.0329  0.5417  0.5182
 6933SOL     OW21641   2.784   7.046   6.639 -0.9824 -0.5827 -0.1090
 6933SOL    HW121642   2.764   7.031   6.732  1.5860 -0.2736  0.5654
 6933SOL    HW221643   2.712   7.004   6.592 -2.3731 -0.7129  2.0115
 6934SOL     OW21644   2.300   7.060   4.124  0.2631  0.1218  0.0452
 6934SOL    HW121645   2.316   7.144   4.080  1.8462  0.4142  1.0609
 6934SOL    HW221646   2.242   7.012   4.065 -0.6540  1.9027 -0.5889
 6935SOL     OW21647   4.798   1.103   5.223  0.4459 -0.0906  0.4792
 6935SOL    HW121648   4.832   1.113   5.311 -1.1822  1.9683  0.9592
 6935SOL    HW221649   4.844   1.169   5.171 -1.4650  1.6000  0.7861
 6936SOL     OW21650   1.864   4.965   2.356 -0.4372 -0.1357 -0.0224
 6936SOL    HW121651   1.796   4.946   2.290  0.2055 -2.5265 -0.0857
 6936SOL    HW221652   1.821   4.947   2.440  0.1714 -2.2064 -0.0831
 6937SOL     OW21653   2.403   8.046   2.630  0.0769  0.1328  0.3361
 6937SOL    HW121654   2.419   8.017   2.540  1.5095  1.5219  0.1058
 6937SOL    HW221655   2.475   8.106   2.650  0.1269 -0.5737  2.6264
 6938SOL     OW21656   5.527   2.898   2.950 -0.3198  0.5081  0.3595
 6938SOL    HW121657   5.616   2.894   2.915 -0.3237  0.7328  0.3171
 6938SOL    HW221658   5.474   2.931   2.876 -1.1775 -3.3817 -0.9786
 6939SOL     OW21659   7.597   7.603   1.431  0.1324 -0.4057  0.2226
 6939SOL    HW121660   7.616   7.510   1.447  0.3647 -0.3237  0.4212
 6939SOL    HW221661   7.550   7.603   1.348 -0.4231 -0.7651  0.5283
 6940SOL     OW21662   2.247   0.739   2.254 -0.5965  0.4155  0.3514
 6940SOL    HW121663   2.193   0.742   2.333 -1.8339 -0.9194 -0.4058
 6940SOL    HW221664   2.197   0.787   2.189  0.2726  1.2309  0.2578
 6941SOL     OW21665   3.250   1.448   4.029 -0.0888 -0.1100 -0.5751
 6941SOL    HW121666   3.336   1.409   4.010 -0.0751 -0.2999 -0.1218
 6941SOL    HW221667   3.265   1.505   4.104 -0.6849 -1.3704  0.5369
 6942SOL     OW21668   4.591   5.790   1.467  0.1731 -0.1128  0.2583
 6942SOL    HW121669   4.583   5.695   1.469  1.0251 -0.2433  3.6474
 6942SOL    HW221670   4.589   5.817   1.559  1.8387  2.9700 -0.4400
 6943SOL     OW21671   2.653   3.922   6.216 -0.5477 -0.5010 -0.0932
 6943SOL    HW121672   2.567   3.951   6.248 -0.5372 -0.1822 -0.3523
 6943SOL    HW221673   2.641   3.912   6.122  0.1510  1.1926 -0.3912
 6944SOL     OW21674   7.301   3.646   4.563 -0.9394 -0.1793 -0.0361
 6944SOL    HW121675   7.303   3.575   4.628 -0.0664 -1.8099 -1.7559
 6944SOL    HW221676   7.209   3.653   4.539 -0.9689 -1.1680 -0.2677
 6945SOL     OW21677   6.592   4.906   1.564 -0.7244 -0.4380 -0.4055
 6945SOL    HW121678   6.526   4.897   1.495 -1.2173 -1.1000  0.1398
 6945SOL    HW221679   6.594   5.000   1.583 -0.9730 -0.3212 -0.9488
 6946SOL     OW21680   4.386   6.354   4.053 -0.2597 -0.5116 -0.1501
 6946SOL    HW121681   4.358   6.309   4.133 -0.1755  0.8174  0.6499
 6946SOL    HW221682   4.473   6.319   4.034 -1.4283 -3.0723 -1.4264
 6947SOL     OW21683   2.593   4.851   2.344  0.4212 -0.3511  0.5084
 6947SOL    HW121684   2.650   4.879   2.416 -1.8527  0.5199  2.0947
 6947SOL    HW221685   2.513   4.822   2.387 -1.1208  0.4049 -1.6737
 6948SOL     OW21686   2.373   7.062   7.785  0.4801 -0.4324 -0.0045
 6948SOL    HW121687   2.312   6.994   7.814 -1.9985  0.2827 -3.0047
 6948SOL    HW221688   2.432   7.017   7.724  1.3738 -0.5918  0.9433
 6949SOL     OW21689   5.393   2.425   5.007  0.6557  0.3378  0.0215
 6949SOL    HW121690   5.413   2.475   5.086  2.1332  0.4486 -0.3844
 6949SOL    HW221691   5.479   2.410   4.967 -0.1474  2.0183 -2.6019
 6950SOL     OW21692   0.299   0.655   4.493  0.0269 -0.0770 -0.2883
 6950SOL    HW121693   0.241   0.680   4.564 -0.0868 -0.5545 -0.2117
 6950SOL    HW221694   0.287   0.723   4.426  1.2013  1.1750  0.7193
 6951SOL     OW21695   2.455   7.330   4.049 -0.0832  0.1521 -0.2976
 6951SOL    HW121696   2.403   7.395   4.002 -0.1747 -0.9673 -1.7788
 6951SOL    HW221697   2.545   7.365   4.046 -0.0414 -0.0420 -1.5544
 6952SOL     OW21698   2.728   4.804   0.739  0.3915 -0.1962 -0.3208
 6952SOL    HW121699   2.677   4.846   0.810  0.4649 -0.5530 -0.0537
 6952SOL    HW221700   2.767   4.727   0.781  0.4526 -0.3966 -0.7490
 6953SOL     OW21701   4.866   2.569   7.524 -0.1235  0.1456  0.6212
 6953SOL    HW121702   4.854   2.546   7.616  1.5266 -0.0699  0.8077
 6953SOL    HW221703   4.961   2.569   7.511 -0.3501 -1.4256 -1.4896
 6954SOL     OW21704   0.627   3.506   7.860  0.2352  0.2102  0.2561
 6954SOL    HW121705   0.630   3.519   7.765  2.4519  0.0324  0.2568
 6954SOL    HW221706   0.710   3.465   7.882 -0.2372  0.2119  2.2877
 6955SOL     OW21707   2.613   7.459   5.831  0.4809  0.1085 -0.3326
 6955SOL    HW121708   2.659   7.517   5.891 -0.9135  1.5535 -0.6012
 6955SOL    HW221709   2.522   7.461   5.860  0.0386 -0.3033 -1.6090
 6956SOL     OW21710   1.999   5.918   3.752 -0.3933  0.5888  0.4471
 6956SOL    HW121711   2.051   5.876   3.684 -0.6699  0.3179  0.3993
 6956SOL    HW221712   2.063   5.956   3.811 -0.0544 -1.5823  1.5792
 6957SOL     OW21713   0.007   4.381   1.199 -0.8544 -0.2101  0.2222
 6957SOL    HW121714   0.020   4.354   1.108  0.0886  1.1408 -0.0704
 6957SOL    HW221715   0.042   4.309   1.251  3.3691  1.0447 -0.5290
 6958SOL     OW21716   3.917   4.548   3.945  0.0209  0.3456  0.0142
 6958SOL    HW121717   3.858   4.599   4.002  0.0815  0.7947 -0.3149
 6958SOL    HW221718   3.897   4.457   3.965 -1.9944  0.4230 -1.2526
 6959SOL     OW21719   1.436   4.052   5.362  0.2082  0.3361  0.3798
 6959SOL    HW121720   1.344   4.067   5.339 -0.1425  1.6760  2.4169
 6959SOL    HW221721   1.434   3.972   5.415  0.2562  0.1893  0.1588
 6960SOL     OW21722   5.196   4.982   3.573 -0.1079 -0.3513  0.0305
 6960SOL    HW121723   5.110   4.981   3.532 -1.2068 -1.0405  2.1828
 6960SOL    HW221724   5.249   4.923   3.520 -0.7396  0.5480 -1.6851
 6961SOL     OW21725   2.910   6.767   2.683  0.6634  0.1993  0.1307
 6961SOL    HW121726   2.911   6.691   2.625 -0.3345 -0.4068  0.8740
 6961SOL    HW221727   2.836   6.752   2.741 -0.3004  2.3157 -0.4509
 6962SOL     OW21728   5.753   6.150   4.440  0.2021 -0.0941 -0.0283
 6962SOL    HW121729   5.754   6.059   4.410  0.6333  0.2885 -1.2345
 6962SOL    HW221730   5.671   6.186   4.406  0.4574  0.2060 -0.3434
 6963SOL     OW21731   0.319   7.971   0.875 -0.4892  0.4553 -0.1625
 6963SOL    HW121732   0.342   8.047   0.821  0.1416  1.3065  1.2383
 6963SOL    HW221733   0.247   8.002   0.930 -0.7388 -0.2112 -0.1035
 6964SOL     OW21734   4.987   4.087   4.554  0.2525  0.1436  0.2163
 6964SOL    HW121735   5.048   4.158   4.573 -0.3058  0.2000  2.0231
 6964SOL    HW221736   5.019   4.013   4.605  0.0904 -0.5272 -0.6258
 6965SOL     OW21737   6.527   4.160   2.521 -0.4026  0.3181 -0.1780
 6965SOL    HW121738   6.506   4.205   2.603 -1.6464  1.6716 -1.1742
 6965SOL    HW221739   6.505   4.224   2.453  0.1964 -0.9174 -1.5864
 6966SOL     OW21740   4.580   7.796   1.496 -0.2518  0.0755  0.3780
 6966SOL    HW121741   4.665   7.836   1.480 -0.2599  0.4044  1.0862
 6966SOL    HW221742   4.521   7.835   1.431  0.2703 -0.6616 -0.5628
 6967SOL     OW21743   0.204   5.138   6.232  0.3841  0.0236  0.3086
 6967SOL    HW121744   0.276   5.201   6.234  1.0744 -0.7458  0.6267
 6967SOL    HW221745   0.247   5.053   6.219 -0.6562 -0.2176 -1.9633
 6968SOL     OW21746   1.412   0.495   7.058 -0.1196  0.2511 -0.2927
 6968SOL    HW121747   1.332   0.459   7.097 -0.1284  0.9958  0.3869
 6968SOL    HW221748   1.417   0.585   7.090  0.7913  0.3400 -0.6434
 6969SOL     OW21749   3.082   7.050   3.802  0.4690  0.1256 -0.2134
 6969SOL    HW121750   3.163   7.073   3.847 -0.3520  0.4893  1.1573
 6969SOL    HW221751   3.014   7.099   3.849 -0.5805 -0.4385 -1.0946
 6970SOL     OW21752   2.438   2.497   1.271  0.0915 -0.2036  0.7769
 6970SOL    HW121753   2.496   2.424   1.250  0.5004 -0.0167  1.2464
 6970SOL    HW221754   2.352   2.456   1.283  0.2473 -0.5600  0.6841
 6971SOL     OW21755   8.157   1.576   0.191  0.1273 -0.1290  0.0839
 6971SOL    HW121756   8.150   1.482   0.174  1.2547 -0.6413  2.0974
 6971SOL    HW221757   8.069   1.610   0.172 -1.2209 -2.1373  2.0996
 6972SOL     OW21758   4.752   5.200   3.967 -0.4137  0.6556  0.6892
 6972SOL    HW121759   4.670   5.168   3.929 -0.0821 -1.2806  1.4827
 6972SOL    HW221760   4.732   5.219   4.058  0.2319 -0.9419  1.2012
 6973SOL     OW21761   6.733   8.178   7.418  0.3874 -0.8342  0.3996
 6973SOL    HW121762   6.763   8.113   7.483 -0.5498 -1.9359 -0.2350
 6973SOL    HW221763   6.719   8.127   7.338  1.8103  0.5572 -0.7903
 6974SOL     OW21764   0.316   5.868   1.322  0.2879  0.4792  0.2212
 6974SOL    HW121765   0.362   5.923   1.385  0.5649  1.7650 -1.0534
 6974SOL    HW221766   0.290   5.928   1.252  1.0940 -1.0768 -1.5128
 6975SOL     OW21767   1.787   6.201   7.705 -0.0863 -0.3832 -0.0794
 6975SOL    HW121768   1.787   6.160   7.618  0.9707 -0.5896  0.0046
 6975SOL    HW221769   1.880   6.211   7.727 -0.2399 -2.5091  2.0291
 6976SOL     OW21770   6.426   7.116   5.481  0.2087  0.2296 -0.4004
 6976SOL    HW121771   6.378   7.196   5.502  0.2599 -0.1679  1.4168
 6976SOL    HW221772   6.511   7.127   5.526  0.8527 -0.1490 -1.4917
 6977SOL     OW21773   4.293   8.194   1.763  0.1617  0.2433 -0.1610
 6977SOL    HW121774   4.321   8.279   1.796  1.4725 -0.1591 -0.1609
 6977SOL    HW221775   4.362   8.168   1.702  0.0891 -1.0716  0.2839
 6978SOL     OW21776   6.052   2.866   3.674 -0.3590  0.5273 -0.0143
 6978SOL    HW121777   6.110   2.792   3.657 -2.0606 -0.6786 -0.9068
 6978SOL    HW221778   6.086   2.937   3.620  1.1605  0.3473  0.6635
 6979SOL     OW21779   3.267   6.628   7.412  0.1008  0.2157 -0.0488
 6979SOL    HW121780   3.203   6.557   7.420  1.3294 -0.7720  1.6331
 6979SOL    HW221781   3.351   6.584   7.403  0.9105  1.4457  1.0796
 6980SOL     OW21782   1.730   1.968   7.644 -0.7520  0.0097  0.1110
 6980SOL    HW121783   1.746   2.003   7.732  1.2307  0.5415 -0.4003
 6980SOL    HW221784   1.681   1.887   7.659 -0.3661  0.0418  1.7242
 6981SOL     OW21785   1.040   2.277   1.387  0.1474 -0.1942  0.1619
 6981SOL    HW121786   1.096   2.277   1.309  1.9922  0.0241  1.4270
 6981SOL    HW221787   0.977   2.347   1.370  0.1606 -0.5035 -1.3562
 6982SOL     OW21788   7.158   5.793   5.829 -0.3281 -0.1265 -0.3285
 6982SOL    HW121789   7.248   5.817   5.851 -1.2491  1.2539  2.2448
 6982SOL    HW221790   7.166   5.744   5.747  2.7562 -0.1247 -0.1316
 6983SOL     OW21791   3.764   3.279   7.365 -0.2564 -0.1337 -0.5110
 6983SOL    HW121792   3.675   3.247   7.376 -0.2813  0.3668  0.9993
 6983SOL    HW221793   3.818   3.200   7.365 -0.5258 -0.3333  0.7432
 6984SOL     OW21794   3.656   1.496   7.274  0.1452  0.4038  0.3337
 6984SOL    HW121795   3.675   1.437   7.201 -1.1699  0.4510 -0.0652
 6984SOL    HW221796   3.742   1.524   7.306  0.7898 -1.5195  0.3683
 6985SOL     OW21797   2.983   4.369   4.826  0.1489  0.0387  0.5389
 6985SOL    HW121798   2.972   4.274   4.828 -1.3746  0.1784 -0.2825
 6985SOL    HW221799   3.007   4.391   4.916 -0.1926 -1.0354  0.9170
 6986SOL     OW21800   8.137   2.945   3.950  0.1561 -0.3788  0.5042
 6986SOL    HW121801   8.157   2.927   3.858 -0.7598 -1.5513  0.5118
 6986SOL    HW221802   8.191   3.022   3.972 -0.6504  0.8088 -1.4077
 6987SOL     OW21803   4.868   6.706   3.118 -0.6588  0.5018  0.3019
 6987SOL    HW121804   4.958   6.739   3.116 -0.8126  1.2700 -4.4546
 6987SOL    HW221805   4.813   6.783   3.127 -0.8299  0.9153 -3.0956
 6988SOL     OW21806   4.767   2.478   4.000 -0.4640  0.1025 -0.2954
 6988SOL    HW121807   4.771   2.413   4.070  0.1860  0.0910 -0.3449
 6988SOL    HW221808   4.853   2.518   3.999 -0.7969  0.8320 -0.4001
 6989SOL     OW21809   4.321   1.403   4.559  0.1346  0.4349  0.2942
 6989SOL    HW121810   4.319   1.338   4.629  0.0825 -0.4866 -0.5465
 6989SOL    HW221811   4.382   1.367   4.494  0.2685  1.3277 -0.0936
 6990SOL     OW21812   7.098   4.037   2.844  0.2837  0.1794 -0.5584
 6990SOL    HW121813   7.141   4.078   2.770  1.0226  0.0606 -0.1991
 6990SOL    HW221814   7.100   3.943   2.824 -1.1055  0.2674 -1.2209
 6991SOL     OW21815   5.621   2.679   4.170  0.0608 -0.0191 -0.4329
 6991SOL    HW121816   5.599   2.739   4.240 -1.6325 -1.4763  0.3945
 6991SOL    HW221817   5.624   2.593   4.212 -3.3241 -1.3016 -2.3594
 6992SOL     OW21818   3.252   3.225   6.533  0.2133 -0.7832  0.1253
 6992SOL    HW121819   3.270   3.265   6.618 -0.6275 -1.7692  0.7969
 6992SOL    HW221820   3.338   3.210   6.495  0.7303 -2.0668  1.6586
 6993SOL     OW21821   3.781   4.551   2.604 -0.1327  0.3319 -0.1022
 6993SOL    HW121822   3.731   4.479   2.643  1.7178 -0.3736  1.1184
 6993SOL    HW221823   3.821   4.512   2.526  0.3443  0.2072  0.1993
 6994SOL     OW21824   3.679   0.415   3.790 -0.1447 -0.6835 -0.1546
 6994SOL    HW121825   3.647   0.378   3.707  0.5666 -0.6428 -0.4497
 6994SOL    HW221826   3.635   0.500   3.797 -0.3478 -0.7673 -0.3975
 6995SOL     OW21827   3.629   1.760   0.702  0.5326 -0.0871  0.6869
 6995SOL    HW121828   3.688   1.797   0.637 -2.2548 -1.0674 -2.7208
 6995SOL    HW221829   3.577   1.835   0.731 -1.8607 -0.2452 -2.5772
 6996SOL     OW21830   3.647   4.507   1.412 -0.2548 -0.2143  0.0654
 6996SOL    HW121831   3.677   4.588   1.452  2.2206 -1.1725  0.3031
 6996SOL    HW221832   3.656   4.523   1.318  1.0082 -0.4606  0.1317
 6997SOL     OW21833   6.541   7.725   6.104 -0.0399  0.1127  0.3405
 6997SOL    HW121834   6.486   7.661   6.060  1.5815 -0.0510 -1.5494
 6997SOL    HW221835   6.532   7.805   6.052  0.8536  0.3152  0.4758
 6998SOL     OW21836   2.650   7.036   0.835  0.1077  0.2198  0.0850
 6998SOL    HW121837   2.674   6.969   0.772  0.9932 -1.2443  1.8775
 6998SOL    HW221838   2.724   7.039   0.896 -1.2358  0.6353  1.7758
 6999SOL     OW21839   3.089   7.517   2.458  0.3430  0.1648 -0.3913
 6999SOL    HW121840   3.164   7.550   2.409 -0.1029  2.1470  0.1594
 6999SOL    HW221841   3.127   7.464   2.528  1.1271  0.0020 -0.9275
 7000SOL     OW21842   5.361   4.691   4.786  1.1033  0.1148  0.2510
 7000SOL    HW121843   5.349   4.596   4.795 -0.2210  0.2602  0.2946
 7000SOL    HW221844   5.433   4.712   4.845  1.5791 -0.8935  0.0531
 7001SOL     OW21845   2.114   6.261   6.812  0.5270 -0.2105  0.1931
 7001SOL    HW121846   2.058   6.255   6.889 -2.6505 -1.3736 -1.9987
 7001SOL    HW221847   2.080   6.336   6.764  2.1270  0.1951 -0.3399
 7002SOL     OW21848   6.311   7.316   5.646 -0.1511  0.1616 -0.0719
 7002SOL    HW121849   6.339   7.406   5.663  0.9122 -0.0990 -0.3414
 7002SOL    HW221850   6.238   7.324   5.584 -1.0449  0.8896  1.0387
 7003SOL     OW21851   7.418   3.390   3.056  0.2698  0.3341 -0.1251
 7003SOL    HW121852   7.469   3.309   3.057 -1.1711 -0.6101  0.1297
 7003SOL    HW221853   7.330   3.362   3.031 -0.5903  1.6008  1.3233
 7004SOL     OW21854   5.407   0.453   6.062  0.6034  0.1519 -0.0548
 7004SOL    HW121855   5.386   0.546   6.076  1.6797  0.4311 -0.1732
 7004SOL    HW221856   5.487   0.439   6.112  1.9713  0.0080 -2.1458
 7005SOL     OW21857   4.131   0.449   7.726 -0.1231 -0.1510  0.8682
 7005SOL    HW121858   4.051   0.399   7.708  1.3278 -2.5828  0.7551
 7005SOL    HW221859   4.188   0.431   7.651  1.2989 -0.1570  1.9098
 7006SOL     OW21860   4.384   4.651   6.131  0.2884 -0.1499 -0.6960
 7006SOL    HW121861   4.364   4.715   6.064 -0.1319  0.6103  0.1412
 7006SOL    HW221862   4.382   4.700   6.213  2.4718 -0.6764 -0.2543
 7007SOL     OW21863   5.387   4.729   4.505  0.2522  0.2179  0.3209
 7007SOL    HW121864   5.469   4.712   4.458  0.4697  2.0507 -0.0081
 7007SOL    HW221865   5.408   4.713   4.597  0.2523 -1.8090  0.0263
 7008SOL     OW21866   7.702   6.800   6.779 -0.4618 -0.0667 -0.3261
 7008SOL    HW121867   7.771   6.859   6.748 -0.3895 -0.6070 -1.2291
 7008SOL    HW221868   7.711   6.801   6.874 -0.1266  0.9658 -0.3518
 7009SOL     OW21869   0.542   2.121   1.464 -0.0336  0.0881  0.0583
 7009SOL    HW121870   0.478   2.190   1.486  0.5276  0.3658  0.8773
 7009SOL    HW221871   0.568   2.086   1.549 -0.7984 -1.6096 -0.3742
 7010SOL     OW21872   4.312   7.244   0.067  0.2266  0.1773 -0.3546
 7010SOL    HW121873   4.342   7.267  -0.021 -2.6568  1.1862 -1.1809
 7010SOL    HW221874   4.342   7.154   0.080  1.3623  0.2762 -2.0404
 7011SOL     OW21875   5.598   2.627   1.966  0.3639  0.5188  0.7481
 7011SOL    HW121876   5.526   2.564   1.970  0.3325  0.4962  0.0779
 7011SOL    HW221877   5.557   2.711   1.985  0.3282  0.3870  1.2477
 7012SOL     OW21878   5.759   1.072   1.197  0.0608 -0.0032  0.0753
 7012SOL    HW121879   5.822   1.068   1.125  0.3012 -0.1831  0.2968
 7012SOL    HW221880   5.766   1.162   1.229 -1.6407  0.7856 -1.5500
 7013SOL     OW21881   0.172   4.836   3.641 -0.3363 -0.1835  0.0272
 7013SOL    HW121882   0.081   4.812   3.623 -0.5402  0.5827 -0.0040
 7013SOL    HW221883   0.166   4.924   3.678  0.5427  0.7823 -2.0025
 7014SOL     OW21884   4.545   7.870   5.412 -0.4500  0.6451 -0.0312
 7014SOL    HW121885   4.543   7.792   5.468 -1.3080 -0.6709 -1.7945
 7014SOL    HW221886   4.638   7.887   5.397 -0.2624 -0.6583 -0.4223
 7015SOL     OW21887   2.633   6.243   7.988 -0.2189  0.0805 -0.7138
 7015SOL    HW121888   2.667   6.295   8.061 -2.0061  1.6741 -0.9315
 7015SOL    HW221889   2.635   6.152   8.020  2.1412  0.3296  0.0188
 7016SOL     OW21890   7.179   4.982   7.713 -0.3334  0.0306  0.0615
 7016SOL    HW121891   7.218   4.923   7.648  1.7641  1.1209  0.2485
 7016SOL    HW221892   7.205   5.070   7.685 -0.0458  0.5845  1.9306
 7017SOL     OW21893   7.719   4.635   6.304 -0.1586 -0.2260  0.0302
 7017SOL    HW121894   7.758   4.565   6.355 -2.0047 -2.1472 -1.0598
 7017SOL    HW221895   7.791   4.672   6.254  0.7590 -1.6980  0.2283
 7018SOL     OW21896   2.348   3.775   5.941  0.5086 -0.0586  0.2908
 7018SOL    HW121897   2.268   3.800   5.895  1.9028  2.6468 -0.8520
 7018SOL    HW221898   2.330   3.793   6.033 -0.5711 -0.6765  0.2210
 7019SOL     OW21899   0.651   5.698   3.733 -0.2407 -0.5482 -0.2586
 7019SOL    HW121900   0.687   5.758   3.667  2.5944 -1.5618  0.2290
 7019SOL    HW221901   0.563   5.732   3.750  0.6766  2.6034 -1.0411
 7020SOL     OW21902   4.959   2.081   7.571  0.1903 -0.4225  0.2635
 7020SOL    HW121903   5.012   2.129   7.634  1.8822 -0.2602 -1.2196
 7020SOL    HW221904   4.977   1.989   7.591  0.1951 -0.3807  0.4528
 7021SOL     OW21905   3.134   6.996   1.404 -0.1548  0.1188  0.0678
 7021SOL    HW121906   3.122   6.956   1.318  0.4558  1.5304 -0.7238
 7021SOL    HW221907   3.214   6.956   1.438 -0.6331 -0.7612  0.1869
 7022SOL     OW21908   4.613   6.289   2.892 -0.1680  0.0163  0.1739
 7022SOL    HW121909   4.680   6.222   2.909  1.3292  0.8709 -1.8912
 7022SOL    HW221910   4.645   6.366   2.938  0.3467  0.4477 -0.8783
 7023SOL     OW21911   6.800   3.051   6.653  0.0569 -0.0828  0.3494
 7023SOL    HW121912   6.714   3.033   6.690 -0.3857  1.8427  0.3576
 7023SOL    HW221913   6.815   2.980   6.590 -1.5475 -0.4192  0.3079
 7024SOL     OW21914   2.891   0.088   4.154  0.1482 -0.0998 -0.3693
 7024SOL    HW121915   2.841   0.117   4.078  0.4901 -1.1296 -1.0083
 7024SOL    HW221916   2.825   0.073   4.222 -0.3574 -0.7819 -0.9887
 7025SOL     OW21917   5.288   5.595   6.727 -0.0886 -0.0061 -0.0322
 7025SOL    HW121918   5.198   5.627   6.719 -0.1464 -0.2797 -0.5305
 7025SOL    HW221919   5.280   5.499   6.720  0.2847 -0.0038 -0.5232
 7026SOL     OW21920   7.774   0.161   7.336  0.5170 -0.0026  0.0630
 7026SOL    HW121921   7.853   0.208   7.362  0.0845  1.1687 -0.6437
 7026SOL    HW221922   7.783   0.150   7.241  0.7596 -1.6717  0.2624
 7027SOL     OW21923   7.613   7.283   1.692  0.9195  0.5812  0.3827
 7027SOL    HW121924   7.666   7.267   1.771  0.0143 -0.0319  0.8866
 7027SOL    HW221925   7.623   7.203   1.640  1.2704  0.8628  0.0120
 7028SOL     OW21926   7.196   1.312   7.647  0.4376  0.5921 -0.5058
 7028SOL    HW121927   7.150   1.257   7.584  0.9821 -0.5953  0.0930
 7028SOL    HW221928   7.203   1.397   7.605  0.8402 -0.1883 -2.0793
 7029SOL     OW21929   1.345   3.299   6.958  0.1762 -0.0730 -0.1720
 7029SOL    HW121930   1.343   3.220   6.904  0.9080 -0.1526 -0.0925
 7029SOL    HW221931   1.290   3.278   7.034 -1.0963  0.1454 -1.0065
 7030SOL     OW21932   6.804   1.534   7.178 -0.3991  1.0139 -0.5187
 7030SOL    HW121933   6.721   1.489   7.193 -0.1586  0.3671 -1.0661
 7030SOL    HW221934   6.834   1.560   7.265  0.2023 -1.2587  0.0100
 7031SOL     OW21935   0.023   0.324   1.278 -0.0986 -0.3162  0.2898
 7031SOL    HW121936  -0.031   0.248   1.257 -1.5309 -0.4768  3.9414
 7031SOL    HW221937   0.095   0.288   1.330 -0.5591  0.6806  1.6836
 7032SOL     OW21938   7.858   5.627   6.640  0.1560 -0.3119 -0.6930
 7032SOL    HW121939   7.808   5.640   6.559  0.1985 -1.2541 -0.8903
 7032SOL    HW221940   7.794   5.640   6.710 -0.0055  0.0070 -0.8988
 7033SOL     OW21941   8.093   0.048   5.078  0.3141 -1.2837 -0.5656
 7033SOL    HW121942   8.112   0.072   5.168  0.1410 -2.6546 -0.1426
 7033SOL    HW221943   8.096   0.131   5.030  0.3856 -0.5324  0.6910
 7034SOL     OW21944   7.439   7.414   7.693 -0.6261 -0.0038  0.1703
 7034SOL    HW121945   7.372   7.447   7.632  0.9233  0.6461 -1.2370
 7034SOL    HW221946   7.407   7.327   7.717 -3.2428  1.2066  1.5432
 7035SOL     OW21947   4.877   5.053   1.710 -0.5455  0.7347  0.2939
 7035SOL    HW121948   4.925   4.972   1.728  1.3650  2.0023  1.2416
 7035SOL    HW221949   4.899   5.110   1.783 -0.4756  2.6969 -1.1732
 7036SOL     OW21950   1.492   6.689   3.345 -0.7293  0.2864 -0.1214
 7036SOL    HW121951   1.513   6.595   3.347 -0.1485  0.4198  0.9608
 7036SOL    HW221952   1.397   6.692   3.341 -0.7385 -0.3467 -0.6112
 7037SOL     OW21953   1.833   2.881   3.639  0.6642 -0.6180 -0.6482
 7037SOL    HW121954   1.911   2.826   3.653  1.1214 -0.0289 -0.8131
 7037SOL    HW221955   1.869   2.966   3.613 -0.0896 -0.8197 -2.4703
 7038SOL     OW21956   3.716   1.099   4.410 -0.2660  0.5235  0.0661
 7038SOL    HW121957   3.773   1.035   4.452  1.2066  0.4145 -1.9258
 7038SOL    HW221958   3.638   1.050   4.386  0.7016 -0.5221 -1.1234
 7039SOL     OW21959   1.013   0.561   5.571  0.3563  0.1233  0.0733
 7039SOL    HW121960   1.026   0.535   5.480  0.3615  0.2877  0.0270
 7039SOL    HW221961   0.969   0.646   5.566 -0.5481 -0.3347  0.2343
 7040SOL     OW21962   7.676   1.035   6.019  0.3889  0.8046 -1.0510
 7040SOL    HW121963   7.722   1.092   5.957  0.0557  1.8285 -0.3684
 7040SOL    HW221964   7.706   1.063   6.105  2.6345 -2.1230 -0.7161
 7041SOL     OW21965   4.347   0.213   1.532 -0.1495 -0.2784 -0.0143
 7041SOL    HW121966   4.293   0.219   1.453 -1.9568 -0.8477  1.0903
 7041SOL    HW221967   4.353   0.119   1.550 -0.0083 -0.1474  0.6560
 7042SOL     OW21968   2.932   5.465   5.684 -0.5571 -0.4521 -0.1169
 7042SOL    HW121969   2.893   5.421   5.609 -0.3701 -1.5048  0.3963
 7042SOL    HW221970   2.870   5.534   5.706 -1.7896 -1.6500  0.2487
 7043SOL     OW21971   8.008   4.794   6.367  0.4009  0.4225  0.4535
 7043SOL    HW121972   8.005   4.719   6.309  0.9621  0.2982  0.5784
 7043SOL    HW221973   8.089   4.783   6.417  0.2360  0.8438  0.8263
 7044SOL     OW21974   6.810   5.074   4.693 -0.3365 -0.3471  0.5600
 7044SOL    HW121975   6.903   5.092   4.685 -0.6684  0.7986 -1.2223
 7044SOL    HW221976   6.790   5.089   4.785  0.9064  1.1085  0.6121
 7045SOL     OW21977   4.171   7.013   5.951 -0.2659  0.1844 -0.4831
 7045SOL    HW121978   4.250   6.962   5.968  1.5912  2.0639 -2.8187
 7045SOL    HW221979   4.181   7.091   6.006 -0.9177  0.1080 -0.2381
 7046SOL     OW21980   1.139   5.028   3.373 -0.8820 -0.0596  0.3086
 7046SOL    HW121981   1.156   5.120   3.351 -0.5380 -0.0618  0.5590
 7046SOL    HW221982   1.076   5.032   3.444  0.1758  0.0327  1.2774
 7047SOL     OW21983   4.469   7.893   7.870  0.1717 -0.1769 -0.3748
 7047SOL    HW121984   4.432   7.855   7.790  4.8446 -3.6280 -1.3371
 7047SOL    HW221985   4.429   7.844   7.941 -2.5290  1.5429 -0.5744
 7048SOL     OW21986   3.102   6.831   4.276 -0.0000 -0.0100  0.1357
 7048SOL    HW121987   3.011   6.833   4.249  0.4072 -2.3567 -1.7280
 7048SOL    HW221988   3.100   6.853   4.370 -2.5278 -0.6217  0.2797
 7049SOL     OW21989   0.677   4.766   1.917  0.2917 -0.5375  0.1817
 7049SOL    HW121990   0.625   4.723   1.984  0.3324 -0.2305  0.4084
 7049SOL    HW221991   0.689   4.699   1.849 -2.4448  0.0745 -1.0438
 7050SOL     OW21992   1.430   2.456   3.115  0.3986  0.5533 -0.2468
 7050SOL    HW121993   1.467   2.493   3.195  0.4411 -0.2340  0.1045
 7050SOL    HW221994   1.336   2.474   3.121  0.5431  1.4835 -0.5644
 7051SOL     OW21995   1.429   5.382   0.359  0.2847  0.1450 -0.4477
 7051SOL    HW121996   1.498   5.358   0.421 -2.3118  1.7475  3.5032
 7051SOL    HW221997   1.348   5.356   0.403 -1.8370  2.3750 -2.7186
 7052SOL     OW21998   5.919   6.992   3.948  0.1404 -0.0992 -0.2357
 7052SOL    HW121999   5.963   6.919   3.905  0.0756 -0.7153  0.7080
 7052SOL    HW222000   5.975   7.013   4.023  0.2427  0.9311 -0.5860
 7053SOL     OW22001   4.029   8.075   4.738  0.0490 -0.4624  0.4681
 7053SOL    HW122002   3.992   8.024   4.665  2.8869 -2.0284 -0.0306
 7053SOL    HW222003   3.968   8.059   4.811 -0.8864 -1.9370 -0.5661
 7054SOL     OW22004   2.168   4.999   0.672  0.2581  0.7744 -0.6154
 7054SOL    HW122005   2.087   4.948   0.666  0.0455  0.7035  1.7958
 7054SOL    HW222006   2.141   5.088   0.649 -0.3195  0.5905 -0.6828
 7055SOL     OW22007   2.619   2.555   7.423  0.2717  0.0439 -0.0892
 7055SOL    HW122008   2.701   2.526   7.462  1.6147  0.7388 -2.2195
 7055SOL    HW222009   2.645   2.624   7.361 -1.6734 -0.9147 -2.1319
 7056SOL     OW22010   5.315   3.013   3.450  0.0617  0.1034  0.2257
 7056SOL    HW122011   5.381   2.998   3.383 -0.4010 -0.6641 -0.0746
 7056SOL    HW222012   5.355   3.077   3.509  0.5294  0.6779 -0.6920
 7057SOL     OW22013   7.466   2.225   0.977 -0.1445  0.0679  0.0933
 7057SOL    HW122014   7.402   2.175   1.028  0.3847 -1.6881 -0.8785
 7057SOL    HW222015   7.429   2.228   0.888  0.0653  1.0135  0.0274
 7058SOL     OW22016   1.904   5.101   7.586  0.5457  0.3174 -0.1889
 7058SOL    HW122017   1.812   5.096   7.560  0.5366 -0.5343 -0.0403
 7058SOL    HW222018   1.950   5.126   7.506  0.6251 -3.1259 -1.3972
 7059SOL     OW22019   7.737   6.366   6.121  0.2792  0.4941  0.1598
 7059SOL    HW122020   7.738   6.349   6.215 -1.0937 -0.2244  0.0712
 7059SOL    HW222021   7.827   6.354   6.093  0.6758  0.5598  1.3522
 7060SOL     OW22022   6.061   2.738   6.903  0.1388 -0.3888  0.1445
 7060SOL    HW122023   5.991   2.690   6.860  0.5333  0.1099 -1.1084
 7060SOL    HW222024   6.140   2.687   6.884  1.1009  2.1408 -3.8938
 7061SOL     OW22025   0.972   2.613   2.052 -0.3381 -0.0678 -0.1440
 7061SOL    HW122026   0.923   2.586   2.130 -2.0947 -2.6018 -1.9596
 7061SOL    HW222027   0.923   2.576   1.979  2.3769  0.3554 -2.3621
 7062SOL     OW22028   1.098   3.008   2.500 -0.2675  0.1319  0.8637
 7062SOL    HW122029   1.154   3.064   2.553  0.3382  0.3258  0.0313
 7062SOL    HW222030   1.146   2.996   2.418 -0.0375 -2.1534  1.2554
 7063SOL     OW22031   2.722   3.193   6.101  0.2418  0.0327 -0.2061
 7063SOL    HW122032   2.798   3.146   6.137  0.1873 -0.4657 -0.7161
 7063SOL    HW222033   2.758   3.242   6.027 -0.0961 -0.9922 -1.0736
 7064SOL     OW22034   7.073   3.863   0.249 -0.1330  0.1637 -0.1518
 7064SOL    HW122035   7.136   3.791   0.246 -1.6753 -1.2535 -0.0008
 7064SOL    HW222036   7.068   3.886   0.342  1.1497  1.2543 -0.3137
 7065SOL     OW22037   1.759   5.669   5.649  0.3682  0.3275 -0.1710
 7065SOL    HW122038   1.718   5.711   5.725  0.1766 -1.0157  0.4817
 7065SOL    HW222039   1.798   5.742   5.601 -0.0361  1.2772  0.8838
 7066SOL     OW22040   0.736   4.226   7.092  0.1409  0.5373  0.8387
 7066SOL    HW122041   0.789   4.295   7.052 -1.3152  0.3161 -1.7548
 7066SOL    HW222042   0.666   4.211   7.028 -3.6523  1.4598  4.3674
 7067SOL     OW22043   0.155   6.447   2.688 -0.3309  0.5243  0.0730
 7067SOL    HW122044   0.068   6.485   2.702 -1.1737 -1.6914  1.3703
 7067SOL    HW222045   0.139   6.374   2.629  0.5280 -0.2802  0.8127
 7068SOL     OW22046   3.477   1.035   6.163 -0.1019 -0.4345 -0.1548
 7068SOL    HW122047   3.396   1.006   6.205 -0.1863 -1.5721 -1.0439
 7068SOL    HW222048   3.456   1.120   6.126 -0.7319 -0.4967  0.0563
 7069SOL     OW22049   7.112   7.514   3.163  0.0379  0.2319  0.3356
 7069SOL    HW122050   7.203   7.486   3.152 -0.5711 -2.6738  1.8109
 7069SOL    HW222051   7.116   7.610   3.161  2.9243  0.1798 -0.8848
 7070SOL     OW22052   4.162   4.907   0.813  0.2820  0.1961  0.3633
 7070SOL    HW122053   4.221   4.951   0.874  0.1673  1.3308 -0.3119
 7070SOL    HW222054   4.077   4.907   0.857  0.2045  0.9908  0.2281
 7071SOL     OW22055   2.007   1.288   3.488 -0.3056 -0.2983  0.0038
 7071SOL    HW122056   1.922   1.307   3.449  0.2313 -0.5757 -1.3210
 7071SOL    HW222057   2.030   1.369   3.535 -0.6248  0.3083 -0.8583
 7072SOL     OW22058   6.184   1.611   6.122  0.8608 -0.3630  0.4561
 7072SOL    HW122059   6.273   1.599   6.089  0.5204 -0.6153 -0.4059
 7072SOL    HW222060   6.170   1.705   6.120  1.8884 -0.0776  2.7792
 7073SOL     OW22061   1.249   6.834   0.843  0.0673 -0.4782  0.5983
 7073SOL    HW122062   1.332   6.878   0.859  0.1988 -0.8325  0.9052
 7073SOL    HW222063   1.273   6.752   0.799 -0.0773 -0.8001  1.1099
 7074SOL     OW22064   5.030   7.555   3.019 -0.3763 -0.4640  0.4508
 7074SOL    HW122065   5.024   7.645   3.050 -0.0439  0.1303 -1.0870
 7074SOL    HW222066   4.962   7.548   2.952  0.6603 -0.8346 -0.6009
 7075SOL     OW22067   8.061   5.218   5.901 -0.4374  0.6481  0.2537
 7075SOL    HW122068   8.101   5.291   5.949 -0.7110  1.3025 -0.4878
 7075SOL    HW222069   8.109   5.141   5.930  2.5837  1.5698 -1.8170
 7076SOL     OW22070   8.105   7.425   4.611  0.3144 -0.1886  0.0374
 7076SOL    HW122071   8.029   7.388   4.566 -0.2093  0.2819  0.5201
 7076SOL    HW222072   8.097   7.520   4.600  0.8782 -0.1361  0.0187
 7077SOL     OW22073   1.734   4.338   4.938  0.5821  0.2103  0.1952
 7077SOL    HW122074   1.824   4.330   4.905 -0.4787 -0.8568 -2.7678
 7077SOL    HW222075   1.716   4.254   4.980  1.8242  1.4556  3.5640
 7078SOL     OW22076   7.492   3.330   1.937  0.3942 -0.1011  0.2945
 7078SOL    HW122077   7.584   3.356   1.931 -0.2152  2.0129 -1.0549
 7078SOL    HW222078   7.470   3.343   2.030  0.2887  4.2379 -0.1221
 7079SOL     OW22079   3.635   2.064   4.729  0.7230 -0.0779 -0.1001
 7079SOL    HW122080   3.586   2.022   4.658 -1.5430  0.5903  0.9724
 7079SOL    HW222081   3.691   1.995   4.764 -2.3634 -2.1704  1.1568
 7080SOL     OW22082   6.771   2.119   6.474 -0.0041  0.4369 -0.2434
 7080SOL    HW122083   6.811   2.134   6.559 -1.8757 -0.2054  0.7854
 7080SOL    HW222084   6.835   2.155   6.411  2.0354 -0.3081  1.3064
 7081SOL     OW22085   4.158   7.200   3.718 -0.6764  0.5972 -0.0888
 7081SOL    HW122086   4.252   7.218   3.715 -0.8042  1.2364 -3.0014
 7081SOL    HW222087   4.117   7.286   3.713 -1.4211  0.2727  0.3698
 7082SOL     OW22088   1.121   3.872   1.194 -0.2103  0.2268 -0.0829
 7082SOL    HW122089   1.162   3.821   1.124  0.7494 -0.6181  1.0367
 7082SOL    HW222090   1.030   3.881   1.168  0.2326  0.3678 -1.6647
 7083SOL     OW22091   7.595   5.755   0.399 -0.4649 -0.2864  0.0968
 7083SOL    HW122092   7.550   5.753   0.483 -1.0036 -2.2932 -0.1899
 7083SOL    HW222093   7.658   5.683   0.404  0.2702  0.2701 -0.8155
 7084SOL     OW22094   3.866   8.094   3.522  0.6313 -0.1873  0.2237
 7084SOL    HW122095   3.880   8.125   3.432  1.0986 -1.9443 -0.3604
 7084SOL    HW222096   3.951   8.059   3.548  0.6441  0.8095  1.5866
 7085SOL     OW22097   6.737   6.338   6.542 -0.0508 -0.0040 -0.5034
 7085SOL    HW122098   6.756   6.246   6.560  1.6345  0.4321  0.1936
 7085SOL    HW222099   6.664   6.359   6.600  0.4267 -0.5776  0.3382
 7086SOL     OW22100   2.531   0.422   5.867  0.4154 -0.1023 -0.2407
 7086SOL    HW122101   2.618   0.456   5.885  0.6854 -1.0293  0.2888
 7086SOL    HW222102   2.532   0.401   5.773  0.6737  0.1143 -0.2873
 7087SOL     OW22103   6.742   0.885   0.399  0.6225  0.0534 -0.0781
 7087SOL    HW122104   6.772   0.935   0.323 -1.0457 -0.1954 -0.9314
 7087SOL    HW222105   6.807   0.905   0.467  1.4245  1.3170 -1.1578
 7088SOL     OW22106   1.762   6.916   1.272  0.1298  0.4280  0.6090
 7088SOL    HW122107   1.713   6.990   1.308 -0.8727  0.5998 -0.9966
 7088SOL    HW222108   1.734   6.911   1.180  1.6499 -0.7301  0.1688
 7089SOL     OW22109   0.297   1.275   1.474  0.4281 -0.4611 -0.6370
 7089SOL    HW122110   0.381   1.312   1.448  0.6542  0.3470  1.0725
 7089SOL    HW222111   0.294   1.287   1.569 -2.9076  2.3726 -0.8990
 7090SOL     OW22112   1.195   5.889   7.370  0.3609 -0.0766  0.3136
 7090SOL    HW122113   1.202   5.924   7.282  0.1687  0.7769  0.6344
 7090SOL    HW222114   1.101   5.878   7.384  0.4224 -0.8397  0.1747
 7091SOL     OW22115   2.874   2.361   1.511  0.5359  0.6780  0.8208
 7091SOL    HW122116   2.852   2.450   1.485  2.9629  1.1633  0.1372
 7091SOL    HW222117   2.850   2.355   1.603 -1.2824  1.4322  0.4221
 7092SOL     OW22118   0.926   3.061   6.259 -0.4025  0.0396  0.4211
 7092SOL    HW122119   0.971   3.143   6.241 -1.4691  0.5951  0.2094
 7092SOL    HW222120   0.903   3.026   6.173  0.7005 -0.8691  0.4784
 7093SOL     OW22121   5.979   7.800   3.006  0.7731 -0.2495  0.3278
 7093SOL    HW122122   5.955   7.733   3.070  0.1608  0.7595  1.1779
 7093SOL    HW222123   5.970   7.883   3.053  1.2826  0.4551 -0.7762
 7094SOL     OW22124   5.179   1.811   2.316  0.0547 -0.1980 -0.3241
 7094SOL    HW122125   5.190   1.752   2.241 -0.3350  0.8088 -1.2092
 7094SOL    HW222126   5.162   1.753   2.390  3.0716 -1.4042 -0.4153
 7095SOL     OW22127   3.490   5.206   7.127  0.4040 -0.2076  0.0081
 7095SOL    HW122128   3.442   5.124   7.139  0.5111 -0.0546  1.5639
 7095SOL    HW222129   3.571   5.195   7.177 -0.0529  1.2330  1.1292
 7096SOL     OW22130   2.687   1.499   2.264 -0.1817 -0.6467 -0.2595
 7096SOL    HW122131   2.623   1.565   2.240  1.0305  0.4708 -0.5797
 7096SOL    HW222132   2.705   1.516   2.357  1.8891  1.1410 -0.8936
 7097SOL     OW22133   2.266   2.577   3.949 -0.2844  0.6563 -0.0757
 7097SOL    HW122134   2.232   2.577   4.039  3.3772 -0.3049  1.5286
 7097SOL    HW222135   2.298   2.667   3.936  0.5843  0.4047  0.2437
 7098SOL     OW22136   7.929   5.066   2.822  0.4188 -0.4899 -0.0569
 7098SOL    HW122137   7.868   5.061   2.748 -1.1770  0.0509  1.1738
 7098SOL    HW222138   7.976   5.148   2.808 -0.2315 -0.1362 -0.2286
 7099SOL     OW22139   4.261   4.429   1.860  0.0237  0.3547 -0.9061
 7099SOL    HW122140   4.252   4.450   1.953 -1.0819 -0.9018 -0.7080
 7099SOL    HW222141   4.327   4.490   1.829  0.5245  0.7056  0.7331
 7100SOL     OW22142   4.811   6.269   7.219 -0.1120  0.0785 -0.4320
 7100SOL    HW122143   4.757   6.344   7.192  0.7809  1.4862  1.5114
 7100SOL    HW222144   4.881   6.265   7.153 -0.9766 -0.0091 -1.3764
 7101SOL     OW22145   5.070   4.832   7.337  0.1898  0.4272 -0.1223
 7101SOL    HW122146   5.047   4.924   7.329 -2.5341 -0.2835 -1.4988
 7101SOL    HW222147   4.992   4.790   7.374  1.9973 -1.1293  2.3197
 7102SOL     OW22148   7.493   6.780   0.220  0.1272  0.3891 -0.5534
 7102SOL    HW122149   7.570   6.809   0.268  0.3960  0.0398 -0.7675
 7102SOL    HW222150   7.493   6.685   0.229 -0.1872  0.3739 -0.6891
 7103SOL     OW22151   0.697   5.354   6.637 -0.2919 -0.6389  0.0532
 7103SOL    HW122152   0.698   5.310   6.552  1.7983 -0.1157 -0.2555
 7103SOL    HW222153   0.751   5.299   6.693  0.1846  0.1516  0.3914
 7104SOL     OW22154   2.894   0.489   4.147  0.3777  0.1591 -0.0813
 7104SOL    HW122155   2.808   0.453   4.124  0.2333  1.6241 -2.1026
 7104SOL    HW222156   2.880   0.538   4.228 -0.9616  1.2040 -0.9121
 7105SOL     OW22157   3.158   7.952   0.222 -0.4354  0.0458  0.0688
 7105SOL    HW122158   3.101   8.027   0.206 -0.3354 -0.0077 -0.5330
 7105SOL    HW222159   3.131   7.886   0.158  0.7666  0.2813 -0.7192
 7106SOL     OW22160   1.062   4.511   7.939 -0.2742 -0.5983  0.0789
 7106SOL    HW122161   1.107   4.481   7.860  0.5004 -0.8395  0.5918
 7106SOL    HW222162   1.118   4.480   8.011  1.5337  3.4613  0.6603
 7107SOL     OW22163   3.180   2.909   1.042 -0.4061  0.0684 -0.4315
 7107SOL    HW122164   3.198   2.846   0.972  1.6280 -0.5814  0.6142
 7107SOL    HW222165   3.091   2.887   1.070 -0.8678 -0.3355 -2.0814
 7108SOL     OW22166   6.304   4.439   6.484 -0.1775 -0.1462 -0.0466
 7108SOL    HW122167   6.331   4.446   6.392 -0.1882  0.6653  0.0037
 7108SOL    HW222168   6.347   4.359   6.516 -1.1912 -1.1555 -1.0936
 7109SOL     OW22169   0.587   2.088   3.612 -0.2423  0.1577 -0.0248
 7109SOL    HW122170   0.547   2.162   3.567 -1.3064 -1.0292 -1.1294
 7109SOL    HW222171   0.556   2.094   3.702 -0.0305  1.2212 -0.0081
 7110SOL     OW22172   3.309   3.797   3.913  0.3812 -0.2059  0.6103
 7110SOL    HW122173   3.341   3.707   3.899 -1.3196 -0.6997 -0.2938
 7110SOL    HW222174   3.248   3.789   3.986 -1.0839 -0.1165 -0.5795
 7111SOL     OW22175   0.337   4.938   3.401 -0.2385 -0.5477 -0.3998
 7111SOL    HW122176   0.342   5.016   3.456 -2.6718  0.4357 -1.4255
 7111SOL    HW222177   0.282   4.877   3.450 -0.9179 -0.3752 -0.9354
 7112SOL     OW22178   4.216   2.219   6.446  0.0367  0.2388 -0.7478
 7112SOL    HW122179   4.190   2.129   6.428  0.1343  0.3385 -1.3892
 7112SOL    HW222180   4.308   2.211   6.474 -0.0282  0.1202 -0.5592
 7113SOL     OW22181   0.574   4.308   4.885 -0.0761 -0.6488 -0.5155
 7113SOL    HW122182   0.526   4.391   4.885  1.0273 -0.0018 -0.3236
 7113SOL    HW222183   0.505   4.241   4.888 -0.9648  0.2578 -0.2336
 7114SOL     OW22184   1.418   2.183   1.331 -0.2324  0.0712  0.4920
 7114SOL    HW122185   1.415   2.234   1.412  1.7495  0.4966  0.3370
 7114SOL    HW222186   1.510   2.158   1.322 -0.5742 -0.6593 -1.2112
 7115SOL     OW22187   4.260   5.875   4.297  0.4982 -0.2131 -0.2676
 7115SOL    HW122188   4.287   5.940   4.362 -1.7129  0.5996 -0.0773
 7115SOL    HW222189   4.275   5.791   4.341  0.1839  0.2879  0.8424
 7116SOL     OW22190   7.328   5.572   8.209  0.0426 -0.6221  0.1777
 7116SOL    HW122191   7.329   5.603   8.300  0.0695  0.9301 -0.3105
 7116SOL    HW222192   7.244   5.528   8.200 -1.1867  1.5514  0.2737
 7117SOL     OW22193   2.877   2.178   6.044  0.4107  0.3608 -0.2027
 7117SOL    HW122194   2.964   2.184   6.005  1.5250  0.7562  2.2335
 7117SOL    HW222195   2.878   2.095   6.091 -1.3587 -0.7237 -1.9372
 7118SOL     OW22196   4.484   7.697   0.073  0.2810  0.2730 -0.3176
 7118SOL    HW122197   4.457   7.607   0.088  0.8889 -0.3511 -2.6207
 7118SOL    HW222198   4.476   7.739   0.159 -0.4061 -1.8440  0.7172
 7119SOL     OW22199   4.369   5.506   1.372  0.5189  0.7609 -0.1098
 7119SOL    HW122200   4.296   5.544   1.324  1.2657  0.9326 -1.1531
 7119SOL    HW222201   4.446   5.526   1.318  1.4199  1.0980  1.2291
 7120SOL     OW22202   5.056   7.947   0.199  0.0141 -0.0821  0.2185
 7120SOL    HW122203   5.033   7.873   0.256  0.2528  0.1695  0.6530
 7120SOL    HW222204   5.079   8.017   0.260 -3.1329  1.3475 -0.0965
 7121SOL     OW22205   6.126   7.448   1.723 -0.3555 -0.4335  0.6241
 7121SOL    HW122206   6.116   7.357   1.698  2.1088 -1.5791  3.3162
 7121SOL    HW222207   6.045   7.469   1.770 -0.3917 -1.6789  1.1447
 7122SOL     OW22208   0.552   3.640   4.406 -0.1062 -0.0901 -0.1084
 7122SOL    HW122209   0.533   3.556   4.447  0.3070 -1.6731 -2.9538
 7122SOL    HW222210   0.561   3.701   4.480  0.5312 -2.6925  2.1157
 7123SOL     OW22211   8.079   4.142   3.362  0.0321 -0.3793  0.0417
 7123SOL    HW122212   8.116   4.102   3.440  0.7766 -1.0431 -0.6411
 7123SOL    HW222213   8.138   4.215   3.342  0.6027 -1.0203 -0.6547
 7124SOL     OW22214   5.758   5.499   0.098 -0.0411  0.2272 -0.1274
 7124SOL    HW122215   5.776   5.573   0.156  0.7189  0.0229 -0.0893
 7124SOL    HW222216   5.664   5.482   0.108  0.1624 -0.1526  1.4653
 7125SOL     OW22217   7.415   7.778   0.907  0.2920 -0.4000 -0.8487
 7125SOL    HW122218   7.426   7.743   0.819  2.0266 -1.9400 -0.1108
 7125SOL    HW222219   7.361   7.712   0.952  0.8562 -0.5167 -0.3246
 7126SOL     OW22220   6.756   4.054   7.224 -0.4944  0.7619  0.5813
 7126SOL    HW122221   6.827   3.989   7.226 -1.4387 -0.2906  1.8394
 7126SOL    HW222222   6.713   4.045   7.309 -2.4736  0.9855 -0.3427
 7127SOL     OW22223   3.026   1.133   2.482 -0.1679 -0.0387  0.0755
 7127SOL    HW122224   3.035   1.081   2.562 -1.6227 -0.9912 -0.3474
 7127SOL    HW222225   2.980   1.212   2.510 -1.4440 -0.7533  0.0542
 7128SOL     OW22226   2.888   3.056   1.933 -0.0043  0.6187 -0.7587
 7128SOL    HW122227   2.860   3.139   1.971  1.8482  0.6092  0.7644
 7128SOL    HW222228   2.960   3.078   1.875  1.6572  0.0093  0.9450
 7129SOL     OW22229   3.009   7.181   7.632 -0.2153 -0.2233  0.3813
 7129SOL    HW122230   2.959   7.256   7.661 -2.1429 -1.2273 -0.1835
 7129SOL    HW222231   3.040   7.140   7.713 -0.7568  0.1223  0.7713
 7130SOL     OW22232   5.492   4.045   4.849 -0.0955 -0.4008 -0.8271
 7130SOL    HW122233   5.455   3.958   4.835 -0.3461 -0.4748  0.2548
 7130SOL    HW222234   5.498   4.055   4.944  2.2682 -0.2116 -0.9293
 7131SOL     OW22235   6.589   3.836   1.755  0.1942 -0.4557  0.4028
 7131SOL    HW122236   6.575   3.797   1.841 -0.9306  1.8095  1.3175
 7131SOL    HW222237   6.641   3.771   1.707 -1.0870 -2.7690  1.9899
 7132SOL     OW22238   8.139   1.459   7.478 -0.3876 -0.0107 -0.4572
 7132SOL    HW122239   8.075   1.467   7.549 -0.4619  0.0516 -0.5299
 7132SOL    HW222240   8.193   1.384   7.502 -0.4928 -0.0681 -0.3970
 7133SOL     OW22241   0.445   2.318   2.435 -0.1834 -0.0209 -0.1476
 7133SOL    HW122242   0.490   2.246   2.479 -1.9674 -1.3850 -0.4526
 7133SOL    HW222243   0.387   2.354   2.502  1.0346  1.5173  0.1492
 7134SOL     OW22244   6.855   5.065   1.294 -0.1010  0.1369  0.2545
 7134SOL    HW122245   6.937   5.086   1.251  0.1630 -0.5601  0.3989
 7134SOL    HW222246   6.820   4.991   1.244 -1.3616  1.3210 -0.7038
 7135SOL     OW22247   4.917   5.154   0.826 -0.1298  0.5433 -0.0246
 7135SOL    HW122248   4.876   5.111   0.901  0.9006 -1.9135 -0.7775
 7135SOL    HW222249   4.890   5.102   0.750 -0.3809  2.4064 -1.2948
 7136SOL     OW22250   3.845   3.450   3.499  0.5804 -0.3657  0.2882
 7136SOL    HW122251   3.884   3.508   3.434  1.2356 -0.7551  0.3156
 7136SOL    HW222252   3.859   3.494   3.583 -0.9791  0.5214  0.1190
 7137SOL     OW22253   7.789   3.310   6.844  0.2423 -0.3088 -0.9843
 7137SOL    HW122254   7.743   3.388   6.875 -1.2855 -0.8539 -1.7787
 7137SOL    HW222255   7.720   3.248   6.823  1.4253 -2.6948  1.5233
 7138SOL     OW22256   0.544   1.687   0.625  0.2881 -0.7103 -0.0407
 7138SOL    HW122257   0.562   1.695   0.531 -0.7365  0.9923 -0.1463
 7138SOL    HW222258   0.618   1.731   0.667 -0.9979  1.8982 -0.2727
 7139SOL     OW22259   4.069   6.369   2.252 -0.1104  0.0021 -0.1207
 7139SOL    HW122260   3.996   6.371   2.190  1.3360  0.4363 -1.9170
 7139SOL    HW222261   4.090   6.276   2.262  0.7553 -0.0297 -1.7675
 7140SOL     OW22262   5.289   0.890   3.491 -0.3508 -0.8154 -0.1187
 7140SOL    HW122263   5.335   0.893   3.575 -0.0867  1.3844 -0.2952
 7140SOL    HW222264   5.197   0.889   3.515 -0.3218  1.1227  0.2583
 7141SOL     OW22265   2.201   3.394   3.511  0.8086  0.1963 -0.7788
 7141SOL    HW122266   2.108   3.406   3.489  0.3904  2.0643  1.5700
 7141SOL    HW222267   2.202   3.325   3.576  1.2631 -0.6920 -1.6957
 7142SOL     OW22268   1.889   4.507   7.749 -0.3042  0.1624 -0.1823
 7142SOL    HW122269   1.815   4.505   7.689 -0.4762  2.7555 -0.2038
 7142SOL    HW222270   1.936   4.587   7.726  2.0023 -0.9222  0.4463
 7143SOL     OW22271   2.275   6.631   2.734 -0.1682 -0.2979  0.0821
 7143SOL    HW122272   2.323   6.650   2.653 -1.5483  0.7983 -0.5255
 7143SOL    HW222273   2.195   6.589   2.704  0.4615 -2.3142  1.0954
 7144SOL     OW22274   3.134   3.926   4.969 -0.7549  0.2681 -0.1250
 7144SOL    HW122275   3.181   3.911   5.051 -0.5473  0.1548 -0.2621
 7144SOL    HW222276   3.182   3.874   4.904 -2.0351 -1.1782  0.0358
 7145SOL     OW22277   2.454   0.881   7.948 -0.8667  0.4912 -0.0685
 7145SOL    HW122278   2.546   0.907   7.938 -0.5679 -0.8012 -0.9630
 7145SOL    HW222279   2.412   0.913   7.868 -1.2812  1.3952  0.5044
 7146SOL     OW22280   0.567   0.301   7.692  0.9662 -0.1257 -0.5081
 7146SOL    HW122281   0.595   0.380   7.738 -0.1926 -0.4993  0.9283
 7146SOL    HW222282   0.604   0.309   7.605  1.7340  1.5024 -0.0635
 7147SOL     OW22283   6.650   0.459   1.774 -0.2579 -0.6313 -0.0178
 7147SOL    HW122284   6.692   0.373   1.767  0.7831 -0.0462 -1.4482
 7147SOL    HW222285   6.717   0.521   1.745 -1.2921  0.5795  0.0950
 7148SOL     OW22286   3.954   3.429   1.602  0.2408 -0.8891 -0.4943
 7148SOL    HW122287   3.874   3.479   1.585  0.7379  0.0826 -0.0699
 7148SOL    HW222288   3.953   3.413   1.696  1.1037  0.1577 -0.2877
 7149SOL     OW22289   3.411   7.764   5.934  1.0238  0.2282 -0.3742
 7149SOL    HW122290   3.507   7.766   5.927  0.9705  0.9105 -1.0138
 7149SOL    HW222291   3.384   7.696   5.872  1.0752  0.3205 -0.4991
 7150SOL     OW22292   6.968   7.752   7.051 -0.3108 -0.3805  0.7898
 7150SOL    HW122293   6.900   7.779   6.989  0.2448  0.3051  0.4595
 7150SOL    HW222294   7.038   7.815   7.038  0.5796 -1.3466  0.8091
 7151SOL     OW22295   0.546   5.465   1.170 -0.3140 -0.5196 -0.6642
 7151SOL    HW122296   0.553   5.406   1.094  1.1374  0.6447 -1.4922
 7151SOL    HW222297   0.524   5.550   1.132 -0.9548 -0.1980  0.3807
 7152SOL     OW22298   1.746   4.684   2.649  0.3655 -0.3833  0.7478
 7152SOL    HW122299   1.704   4.643   2.726 -0.4816  0.7193  0.8975
 7152SOL    HW222300   1.820   4.732   2.685 -0.8454  1.3012  1.1192
 7153SOL     OW22301   1.812   2.550   1.082  0.0200 -0.0026  0.4154
 7153SOL    HW122302   1.782   2.552   0.991  0.8230  0.9037  0.1601
 7153SOL    HW222303   1.735   2.576   1.133 -0.7435 -1.5325  0.1056
 7154SOL     OW22304   4.235   8.145   4.151 -0.3454  0.3309  0.4063
 7154SOL    HW122305   4.212   8.167   4.242 -1.8978  0.6962 -0.0516
 7154SOL    HW222306   4.264   8.227   4.113  0.7020  0.0996  0.6484
 7155SOL     OW22307   8.010   4.148   7.682 -0.3123  0.0379 -0.2261
 7155SOL    HW122308   7.922   4.177   7.656  0.5827  0.4232 -3.3194
 7155SOL    HW222309   8.062   4.229   7.682  0.7636 -0.6055 -2.1073
 7156SOL     OW22310   1.125   5.044   0.034  0.0481  0.1622  0.1141
 7156SOL    HW122311   1.132   4.982  -0.039 -1.3106 -0.0366  0.1161
 7156SOL    HW222312   1.126   5.130  -0.007 -2.6402  0.0335 -0.4127
 7157SOL     OW22313   2.241   1.280   6.807 -0.1493 -0.9821 -0.5514
 7157SOL    HW122314   2.265   1.190   6.785  0.6635 -0.6371 -1.1357
 7157SOL    HW222315   2.324   1.325   6.817 -0.5498 -0.3570  0.0294
 7158SOL     OW22316   0.606   2.561   2.430  0.5871 -0.3633  0.1999
 7158SOL    HW122317   0.546   2.493   2.403  0.0736  0.1416  0.0508
 7158SOL    HW222318   0.550   2.635   2.453  1.1004 -0.2046  0.9809
 7159SOL     OW22319   2.031   6.659   8.160  0.4903  0.4281 -0.5609
 7159SOL    HW122320   2.025   6.593   8.090 -0.6587 -0.5835  0.4514
 7159SOL    HW222321   2.117   6.644   8.199 -0.3603 -1.6013  0.6825
 7160SOL     OW22322   1.676   7.480   5.330  0.2347  0.0175 -0.0927
 7160SOL    HW122323   1.670   7.420   5.255  0.1985  3.2460 -2.9233
 7160SOL    HW222324   1.731   7.434   5.393 -1.6484 -3.8830 -0.9679
 7161SOL     OW22325   1.488   2.370   0.239 -0.2317 -0.2021  0.2655
 7161SOL    HW122326   1.572   2.361   0.195 -0.1569 -0.0843  0.3838
 7161SOL    HW222327   1.510   2.404   0.326 -0.3793 -0.4035  0.3840
 7162SOL     OW22328   2.774   1.740   0.339  0.1159  0.2103  0.2831
 7162SOL    HW122329   2.727   1.677   0.393 -0.7426 -0.4971 -1.2073
 7162SOL    HW222330   2.705   1.784   0.290  0.9441 -1.1261 -2.2691
 7163SOL     OW22331   2.027   7.001   5.335  0.1290 -0.0611 -0.1988
 7163SOL    HW122332   1.976   6.958   5.267  2.0698  0.0617 -1.8104
 7163SOL    HW222333   1.981   6.980   5.416 -3.1181  0.9791 -1.5887
 7164SOL     OW22334   4.033   3.580   7.224  0.2714  0.1555  0.7391
 7164SOL    HW122335   4.106   3.520   7.209  0.6479  0.6834  0.4321
 7164SOL    HW222336   3.998   3.598   7.137  0.5113  0.8187  0.7797
 7165SOL     OW22337   2.366   5.300   4.629 -0.4585 -0.4636 -0.1324
 7165SOL    HW122338   2.372   5.204   4.633 -0.2360 -0.4660 -0.4895
 7165SOL    HW222339   2.309   5.323   4.702 -0.6159 -0.8784 -0.1200
 7166SOL     OW22340   8.014   6.666   6.333 -0.3096 -0.0776 -0.0866
 7166SOL    HW122341   7.974   6.697   6.252  1.4144  1.3705 -0.4624
 7166SOL    HW222342   7.965   6.709   6.403 -1.3199 -0.7327 -0.3787
 7167SOL     OW22343   0.364   1.782   5.523  0.1358 -0.0214 -0.5389
 7167SOL    HW122344   0.399   1.843   5.458 -0.9598  0.9817 -0.2299
 7167SOL    HW222345   0.319   1.716   5.471 -1.3869  1.1840 -0.8337
 7168SOL     OW22346   6.384   2.155   7.488  0.3583  0.3480 -0.0317
 7168SOL    HW122347   6.347   2.070   7.510  2.1403 -0.1682  1.1519
 7168SOL    HW222348   6.353   2.214   7.557  0.3313  0.3167 -0.0175
 7169SOL     OW22349   4.986   6.685   7.585  0.0546 -0.7112 -0.2761
 7169SOL    HW122350   4.956   6.608   7.538 -0.3783 -1.2735  0.8841
 7169SOL    HW222351   4.906   6.724   7.622  0.5671 -1.6153  1.9402
 7170SOL     OW22352   0.284   4.767   5.038 -0.1859  0.1185  0.3663
 7170SOL    HW122353   0.275   4.858   5.010 -1.9588 -0.6650 -1.8487
 7170SOL    HW222354   0.195   4.740   5.063  0.0622 -1.3758 -0.2568
 7171SOL     OW22355   6.789   5.390   5.700  0.1272  0.0789 -0.2752
 7171SOL    HW122356   6.862   5.332   5.679 -0.2928 -0.5892  0.0733
 7171SOL    HW222357   6.818   5.477   5.670  0.9768 -0.2086 -0.3235
 7172SOL     OW22358   4.816   7.803   6.265 -0.3108 -0.0436 -0.3552
 7172SOL    HW122359   4.759   7.772   6.195  0.7253  0.7196 -1.5589
 7172SOL    HW222360   4.845   7.889   6.236  0.8533 -0.0969  0.5969
 7173SOL     OW22361   1.760   7.790   5.630 -0.1406  0.9353  0.3683
 7173SOL    HW122362   1.833   7.741   5.592 -2.2662 -1.5633 -0.7532
 7173SOL    HW222363   1.771   7.780   5.724  0.9066  0.5071  0.2107
 7174SOL     OW22364   3.429   6.707   3.129 -0.4005 -0.3450  0.2882
 7174SOL    HW122365   3.363   6.758   3.176  0.5766  0.1264  1.2143
 7174SOL    HW222366   3.471   6.655   3.198  2.0887  1.4737  0.2723
 7175SOL     OW22367   4.405   0.822   5.250  0.3177 -0.7509 -0.7504
 7175SOL    HW122368   4.337   0.845   5.186 -0.0271  0.2969 -0.0256
 7175SOL    HW222369   4.454   0.903   5.264  0.8934 -1.1690 -0.2629
 7176SOL     OW22370   1.364   1.960   2.056 -0.9098  0.1183 -0.5273
 7176SOL    HW122371   1.352   1.957   1.961 -0.9577  0.1376 -0.5221
 7176SOL    HW222372   1.313   1.885   2.089 -0.3938 -0.2558 -0.5661
 7177SOL     OW22373   2.780   2.599   2.889  0.1193 -0.6522  0.0990
 7177SOL    HW122374   2.819   2.578   2.805  0.3731 -1.7806  0.4782
 7177SOL    HW222375   2.736   2.518   2.916 -1.3076  0.1640  0.3325
 7178SOL     OW22376   1.850   2.304   5.595  0.3855  0.1317 -0.0724
 7178SOL    HW122377   1.805   2.305   5.680 -0.2004 -1.6433 -0.3236
 7178SOL    HW222378   1.781   2.285   5.532  0.7320  1.8668 -1.0444
 7179SOL     OW22379   1.033   0.025   5.441 -0.2342  0.1246  0.2610
 7179SOL    HW122380   0.957   0.011   5.384 -0.6626  0.6507  0.6900
 7179SOL    HW222381   1.092  -0.048   5.421 -1.2737 -0.8293  0.6191
 7180SOL     OW22382   7.302   0.309   6.767  0.6537  0.5919  0.4514
 7180SOL    HW122383   7.211   0.294   6.740  0.6905 -0.9054  1.0660
 7180SOL    HW222384   7.323   0.234   6.824  2.0580  1.2604  0.8583
 7181SOL     OW22385   1.286   1.005   7.750  0.3792 -0.7715 -0.1645
 7181SOL    HW122386   1.279   1.016   7.655  2.0707 -0.4513 -0.2840
 7181SOL    HW222387   1.345   1.075   7.778 -1.0742 -0.0693  1.3357
 7182SOL     OW22388   0.143   1.778   7.684 -0.2814 -0.4205 -0.7413
 7182SOL    HW122389   0.111   1.867   7.670 -0.9716 -0.5880 -0.3160
 7182SOL    HW222390   0.091   1.746   7.759  2.4192  0.0407  1.4875
 7183SOL     OW22391   1.554   5.551   3.059  0.1635  0.2948 -0.2688
 7183SOL    HW122392   1.551   5.499   2.978  1.6616  0.2608 -0.3295
 7183SOL    HW222393   1.610   5.625   3.037 -1.0915  1.3998  0.1429
 7184SOL     OW22394   5.517   7.144   3.317  0.2531  0.3254 -0.0483
 7184SOL    HW122395   5.526   7.049   3.325  1.0238  0.4326  0.4665
 7184SOL    HW222396   5.448   7.156   3.252  0.9069 -0.5904 -0.9348
 7185SOL     OW22397   3.832   5.388   1.052  0.2337 -0.1407 -0.9807
 7185SOL    HW122398   3.748   5.402   1.008  1.0802  0.3615 -2.5194
 7185SOL    HW222399   3.898   5.411   0.986  1.6251 -2.4288 -0.5137
 7186SOL     OW22400   0.405   7.858   3.869  0.9782 -0.4349  0.1369
 7186SOL    HW122401   0.426   7.917   3.941  0.3633 -1.4542  1.1880
 7186SOL    HW222402   0.334   7.803   3.903  1.5191 -1.7692 -0.7930
 7187SOL     OW22403   5.430   7.012   7.135 -0.0323  0.6096  0.5505
 7187SOL    HW122404   5.427   7.004   7.230  1.9136 -1.2838  0.5260
 7187SOL    HW222405   5.376   6.941   7.102 -0.6743  1.2385  0.2175
 7188SOL     OW22406   2.313   4.060   4.460 -0.2466 -0.1198  0.3912
 7188SOL    HW122407   2.332   4.029   4.371 -0.2046 -0.1565  0.4128
 7188SOL    HW222408   2.375   4.132   4.474  0.2683 -0.6055  0.6714
 7189SOL     OW22409   5.064   2.296   6.910 -0.5917 -0.2668  0.2040
 7189SOL    HW122410   5.087   2.214   6.954  0.6232  0.6887  1.4186
 7189SOL    HW222411   4.984   2.325   6.954  0.5831  0.6510  1.8500
 7190SOL     OW22412   1.364   6.842   1.141  0.4545 -0.1011  0.3033
 7190SOL    HW122413   1.306   6.910   1.108  0.1540 -0.0472  0.9415
 7190SOL    HW222414   1.360   6.773   1.075 -2.0447 -1.0553  1.3447
 7191SOL     OW22415   4.991   7.040   3.456  0.3975 -0.2321 -0.2151
 7191SOL    HW122416   5.065   7.098   3.477 -0.2513  1.3057 -1.9036
 7191SOL    HW222417   4.955   7.016   3.542  2.4948 -0.5897  0.6256
 7192SOL     OW22418   7.178   7.921   2.898  0.4825 -0.0071  0.2891
 7192SOL    HW122419   7.195   7.832   2.927  1.8208  0.3439  0.6623
 7192SOL    HW222420   7.122   7.958   2.967  0.1231 -0.4725  0.2532
 7193SOL     OW22421   4.324   6.884   4.287  0.6133  0.1703  0.7769
 7193SOL    HW122422   4.238   6.858   4.254  1.4876 -0.9273 -0.7748
 7193SOL    HW222423   4.306   6.934   4.366 -1.3570 -2.8412  2.4109
 7194SOL     OW22424   5.284   4.637   0.156 -0.0679  0.6323 -0.6183
 7194SOL    HW122425   5.225   4.684   0.215  0.2039  1.7285 -1.2105
 7194SOL    HW222426   5.233   4.561   0.128 -0.6108  0.7050  0.1318
 7195SOL     OW22427   0.454   7.541   2.288 -0.0140 -0.1834 -0.5439
 7195SOL    HW122428   0.473   7.545   2.382 -0.9240 -1.7482 -0.2667
 7195SOL    HW222429   0.462   7.632   2.259 -0.2068  0.4121  1.1432
 7196SOL     OW22430   1.298   0.583   6.399  0.0424  0.8144 -0.0650
 7196SOL    HW122431   1.221   0.527   6.398  0.6316 -0.0002 -1.0268
 7196SOL    HW222432   1.294   0.628   6.484 -1.1105  0.2714  0.1809
 7197SOL     OW22433   1.212   3.707   0.987 -0.4236 -0.2737 -0.5103
 7197SOL    HW122434   1.215   3.612   0.978 -0.3718 -0.1300 -2.3470
 7197SOL    HW222435   1.301   3.732   1.012 -0.5668 -0.7209  0.5256
 7198SOL     OW22436   3.434   1.668   4.311 -0.9279  0.3331 -0.4277
 7198SOL    HW122437   3.352   1.707   4.279 -1.0089  1.4009  0.9543
 7198SOL    HW222438   3.501   1.733   4.289 -1.1257  1.6213  2.3099
 7199SOL     OW22439   1.660   4.984   0.472  0.1094  0.4268 -0.0620
 7199SOL    HW122440   1.749   4.949   0.479 -0.0793  0.2119  1.5862
 7199SOL    HW222441   1.671   5.079   0.473  0.4083  0.4376 -1.5418
 7200SOL     OW22442   0.019   7.698   1.789  0.6682  0.4013  0.3878
 7200SOL    HW122443   0.007   7.716   1.882  0.2220  1.9505  0.0650
 7200SOL    HW222444   0.107   7.732   1.769  0.4835  0.7191  0.1050
 7201SOL     OW22445   6.590   2.988   0.080  0.0959  0.4114  0.1256
 7201SOL    HW122446   6.548   2.980   0.165 -2.1351 -0.5027 -0.9606
 7201SOL    HW222447   6.580   3.080   0.056  0.3398  0.5752  0.6435
 7202SOL     OW22448   6.147   6.324   6.456 -0.3322  0.7254  0.0379
 7202SOL    HW122449   6.101   6.264   6.516 -1.4045 -0.2285 -1.6336
 7202SOL    HW222450   6.181   6.267   6.387  0.0522  1.8659 -0.7430
 7203SOL     OW22451   4.746   3.850   5.139 -0.1556 -1.5452  0.3735
 7203SOL    HW122452   4.672   3.897   5.177  0.1108 -1.6206  1.0004
 7203SOL    HW222453   4.804   3.832   5.213  1.8904  1.0198 -0.4452
 7204SOL     OW22454   2.901   2.115   2.477  0.7141 -0.5742 -0.3930
 7204SOL    HW122455   2.827   2.087   2.423 -0.2588  0.1579  0.5293
 7204SOL    HW222456   2.917   2.206   2.450  1.2642 -0.7180 -0.5635
 7205SOL     OW22457   7.172   1.147   4.354  0.1829  0.1658  0.4448
 7205SOL    HW122458   7.229   1.129   4.428 -0.6464  0.0482  1.0796
 7205SOL    HW222459   7.161   1.242   4.355  0.8027  0.2495 -0.0238
 7206SOL     OW22460   7.916   8.219   6.383  0.0623  0.3457  0.1341
 7206SOL    HW122461   7.922   8.277   6.307  0.2492  0.6648  0.3885
 7206SOL    HW222462   7.851   8.261   6.440 -1.6852 -0.9662 -0.7658
 7207SOL     OW22463   3.826   6.765   5.313 -0.3904 -0.0996  0.0904
 7207SOL    HW122464   3.889   6.790   5.381  0.3486  0.5299 -0.7990
 7207SOL    HW222465   3.774   6.844   5.298  0.5505  0.3069 -1.2267
 7208SOL     OW22466   4.926   1.694   3.751  0.1252 -0.4751  0.0057
 7208SOL    HW122467   5.003   1.641   3.731  1.6918  0.9899  1.7779
 7208SOL    HW222468   4.900   1.732   3.666  0.6296 -1.8576 -0.7985
 7209SOL     OW22469   1.445   2.742   6.223  0.0114  0.3743  0.0300
 7209SOL    HW122470   1.408   2.654   6.226  0.1430  0.2712 -1.0138
 7209SOL    HW222471   1.496   2.744   6.143  1.4095  0.8630  0.9033
 7210SOL     OW22472   0.957   7.405   2.475 -0.2147 -0.1922 -0.3840
 7210SOL    HW122473   1.004   7.488   2.485  0.1996 -0.3810 -0.7030
 7210SOL    HW222474   1.025   7.342   2.452 -0.5062 -0.6512 -0.0026
 7211SOL     OW22475   6.497   1.308   3.529 -0.4889  0.6913 -0.3802
 7211SOL    HW122476   6.486   1.378   3.465  1.3057  1.7034  0.3284
 7211SOL    HW222477   6.507   1.229   3.476  0.3637  1.4185 -1.3476
 7212SOL     OW22478   7.436   7.723   0.634  0.1735 -0.4285  0.0101
 7212SOL    HW122479   7.447   7.665   0.559  2.9845 -2.3171  1.7167
 7212SOL    HW222480   7.495   7.797   0.616  1.3799 -1.2167  0.5845
 7213SOL     OW22481   2.389   6.749   1.844  0.7086  0.0045 -0.2536
 7213SOL    HW122482   2.346   6.769   1.927  1.9336 -0.2366  0.4816
 7213SOL    HW222483   2.482   6.741   1.868  0.9811 -0.8156 -1.5205
 7214SOL     OW22484   4.285   4.154   2.231 -0.0890  0.0775 -0.1823
 7214SOL    HW122485   4.218   4.086   2.223  0.8842 -0.7599 -1.6170
 7214SOL    HW222486   4.270   4.193   2.317 -3.5151  1.1238 -1.0916
 7215SOL     OW22487   0.315   4.608   1.839 -0.3936  0.0778 -0.0568
 7215SOL    HW122488   0.309   4.692   1.883 -1.2005  0.2427 -0.4602
 7215SOL    HW222489   0.344   4.628   1.751 -2.8626  0.2207 -0.9046
 7216SOL     OW22490   5.399   7.508   6.536  0.4699 -0.1029 -0.5736
 7216SOL    HW122491   5.381   7.568   6.464 -2.6553  0.4832  0.5390
 7216SOL    HW222492   5.480   7.540   6.575 -0.5751  2.8378 -0.6012
 7217SOL     OW22493   1.706   1.750   3.963 -0.0965  0.2585 -0.4105
 7217SOL    HW122494   1.645   1.823   3.974 -1.0492 -0.4318 -1.0046
 7217SOL    HW222495   1.754   1.771   3.883 -0.4416  0.1879 -0.6372
 7218SOL     OW22496   0.325   1.265   3.221 -0.0819 -0.3500 -0.7471
 7218SOL    HW122497   0.418   1.261   3.243 -0.2125 -2.2849 -0.3821
 7218SOL    HW222498   0.321   1.226   3.133 -0.4421  0.7125 -1.2171
 7219SOL     OW22499   1.257   0.441   7.393  0.0924  0.2205  0.1533
 7219SOL    HW122500   1.295   0.364   7.352  2.5048  0.6021  1.4966
 7219SOL    HW222501   1.164   0.421   7.400  0.6384 -2.5883  0.5014
 7220SOL     OW22502   7.190   6.643   7.229 -0.2786  0.2479  0.7285
 7220SOL    HW122503   7.180   6.548   7.223 -1.5087  0.2562  2.0785
 7220SOL    HW222504   7.239   6.666   7.150 -1.5966 -1.2886 -0.6484
 7221SOL     OW22505   6.399   1.121   8.086  0.1394 -0.5931 -0.3642
 7221SOL    HW122506   6.317   1.113   8.135  0.4554 -0.7022  0.1549
 7221SOL    HW222507   6.436   1.033   8.089  1.0815 -0.1757  0.8377
 7222SOL     OW22508   1.463   5.935   1.902 -0.1978  0.3111  0.0624
 7222SOL    HW122509   1.389   5.894   1.857 -0.5912  0.2783  0.7133
 7222SOL    HW222510   1.500   5.864   1.956 -0.3287  0.5803  0.5126
 7223SOL     OW22511   1.870   6.740   6.913 -0.6715 -0.4533  0.2543
 7223SOL    HW122512   1.818   6.660   6.922 -0.4042 -0.5298  1.1871
 7223SOL    HW222513   1.942   6.730   6.976 -0.3401  0.2873  0.0094
 7224SOL     OW22514   5.249   7.663   4.190  0.1613  0.2200  0.2953
 7224SOL    HW122515   5.160   7.630   4.174  0.3919 -0.7124  0.8262
 7224SOL    HW222516   5.249   7.685   4.283  1.2682 -2.4441  1.0053
 7225SOL     OW22517   6.186   6.986   0.019 -0.1112  0.2989  0.1745
 7225SOL    HW122518   6.127   6.911   0.030 -1.1511  1.1529  0.6205
 7225SOL    HW222519   6.139   7.059   0.059  1.3664  0.9749  0.7556
 7226SOL     OW22520   1.582   2.329   1.066  0.6937  0.1449 -0.2956
 7226SOL    HW122521   1.612   2.305   1.154  0.2873 -0.4634 -0.3201
 7226SOL    HW222522   1.647   2.289   1.007  0.3936 -0.3122 -0.3122
 7227SOL     OW22523   4.033   3.141   1.303 -0.8407 -0.1875 -0.0414
 7227SOL    HW122524   4.016   3.229   1.271  2.5738  0.6132 -0.0108
 7227SOL    HW222525   4.008   3.143   1.395 -0.7431  0.7750 -0.0318
 7228SOL     OW22526   4.904   1.567   2.574  0.2906 -0.3819 -0.0176
 7228SOL    HW122527   4.820   1.608   2.556  0.7405  0.6518  0.2024
 7228SOL    HW222528   4.901   1.484   2.525 -0.5050  0.0498 -0.7212
 7229SOL     OW22529   5.346   1.527   6.457 -0.3315 -0.4746  0.3951
 7229SOL    HW122530   5.295   1.572   6.525 -0.8905 -1.0011  0.3399
 7229SOL    HW222531   5.286   1.460   6.424  0.0120 -0.3485 -0.4836
 7230SOL     OW22532   2.693   6.280   1.925 -0.2594 -0.7266 -0.1887
 7230SOL    HW122533   2.769   6.338   1.934 -0.4845 -0.6515  1.5892
 7230SOL    HW222534   2.673   6.280   1.832  0.3103  1.3443 -0.3485
 7231SOL     OW22535   0.536   3.259   6.957 -0.2027  0.3171  0.0778
 7231SOL    HW122536   0.542   3.287   7.048  0.9909  0.2475  0.0430
 7231SOL    HW222537   0.443   3.243   6.942 -0.5679  1.5943  0.8884
 7232SOL     OW22538   1.465   6.908   3.565  0.1298 -0.2270 -0.6276
 7232SOL    HW122539   1.395   6.918   3.630 -2.3923 -1.1095 -2.9729
 7232SOL    HW222540   1.423   6.862   3.493  2.9577  0.0307 -2.5950
 7233SOL     OW22541   1.986   7.796   0.802 -0.4068  0.1668 -0.0145
 7233SOL    HW122542   2.004   7.842   0.884  0.5766 -3.1447  1.8259
 7233SOL    HW222543   2.059   7.818   0.745  0.0344  0.8547  0.7960
 7234SOL     OW22544   2.448   4.303   5.185  0.6531 -0.4583 -0.2534
 7234SOL    HW122545   2.417   4.294   5.095  0.5081 -1.7675 -0.0864
 7234SOL    HW222546   2.407   4.384   5.216  1.1557  0.3182 -1.5287
 7235SOL     OW22547   3.637   7.915   1.048  0.2776 -0.6357 -0.0143
 7235SOL    HW122548   3.586   7.983   1.005  1.4202 -0.5728 -1.3325
 7235SOL    HW222549   3.584   7.888   1.122 -1.0347  0.3783 -0.5592
 7236SOL     OW22550   1.334   5.443   2.613  0.6396 -0.3869 -0.0463
 7236SOL    HW122551   1.401   5.386   2.576 -0.3213 -0.4950 -1.7164
 7236SOL    HW222552   1.371   5.531   2.605  1.7660 -0.6322  1.7605
 7237SOL     OW22553   6.130   7.966   1.428  0.1869  0.1750  0.1242
 7237SOL    HW122554   6.095   7.883   1.460 -1.9556  0.1799 -1.8679
 7237SOL    HW222555   6.215   7.944   1.390  0.9695 -0.5122  2.1738
 7238SOL     OW22556   8.116   3.716   3.274  0.3997 -0.3868 -0.6127
 7238SOL    HW122557   8.085   3.790   3.223  1.4479 -0.2925 -1.1233
 7238SOL    HW222558   8.117   3.643   3.213  2.0161 -0.1887 -0.8453
 7239SOL     OW22559   7.829   2.120   0.356  0.0303  0.1300 -0.1222
 7239SOL    HW122560   7.815   2.212   0.379 -1.0081  0.2138 -1.0438
 7239SOL    HW222561   7.899   2.122   0.291  0.7133  0.1734  0.6061
 7240SOL     OW22562   5.783   1.586   5.035  0.1331 -0.6614  0.0342
 7240SOL    HW122563   5.693   1.602   5.063  0.0270  0.9050 -1.0299
 7240SOL    HW222564   5.836   1.594   5.114 -0.5572 -0.4779  0.4757
 7241SOL     OW22565   4.168   3.270   4.065  0.1306  0.0361  0.1898
 7241SOL    HW122566   4.093   3.321   4.035 -1.4267 -1.4980  1.2387
 7241SOL    HW222567   4.137   3.179   4.064  2.3894 -0.7917 -0.4640
 7242SOL     OW22568   6.853   5.050   7.178 -0.2329 -0.4793  0.6920
 7242SOL    HW122569   6.823   4.986   7.243  1.0533 -1.3223  0.4843
 7242SOL    HW222570   6.948   5.046   7.183 -0.1266  1.2093  0.4425
 7243SOL     OW22571   7.585   4.830   0.420 -0.5430 -0.5332  0.1670
 7243SOL    HW122572   7.659   4.818   0.361 -0.6460  1.3251 -0.4068
 7243SOL    HW222573   7.620   4.884   0.491 -1.3781  0.5920 -0.2457
 7244SOL     OW22574   2.771   4.874   1.592 -0.3808  0.2649  0.6413
 7244SOL    HW122575   2.846   4.829   1.629  1.1247  0.7596 -1.6128
 7244SOL    HW222576   2.790   4.967   1.606 -0.7682  0.3811  0.4151
 7245SOL     OW22577   6.471   7.495   3.804 -0.1994 -0.4600 -0.6258
 7245SOL    HW122578   6.455   7.546   3.725 -2.0855 -0.7166 -0.4470
 7245SOL    HW222579   6.517   7.555   3.862 -0.6706  0.4198 -1.1376
 7246SOL     OW22580   0.744   5.519   1.386  0.1499  0.6384 -0.8988
 7246SOL    HW122581   0.685   5.508   1.311  0.1504 -0.3124 -0.7815
 7246SOL    HW222582   0.811   5.452   1.373  0.6777  1.0913 -0.5380
 7247SOL     OW22583   8.035   1.221   6.268 -0.5024 -0.2419  0.1703
 7247SOL    HW122584   8.077   1.209   6.353 -0.4794  0.9670  0.3518
 7247SOL    HW222585   8.084   1.292   6.227 -0.5164 -0.8170 -0.8626
 7248SOL     OW22586   2.014   1.733   8.157  0.5135  0.4225 -0.1680
 7248SOL    HW122587   1.931   1.780   8.143  0.3604  0.2561  0.1630
 7248SOL    HW222588   2.068   1.794   8.208 -0.2205 -0.2839  1.5447
 7249SOL     OW22589   4.424   3.750   0.424  0.1132 -0.4624  0.1268
 7249SOL    HW122590   4.356   3.717   0.482  1.8498  0.7126  3.0658
 7249SOL    HW222591   4.505   3.714   0.458  1.4092  1.7273 -0.4068
 7250SOL     OW22592   6.245   2.746   0.617  0.1208 -0.5260 -0.5463
 7250SOL    HW122593   6.215   2.834   0.594  0.2852 -0.4691 -0.5419
 7250SOL    HW222594   6.164   2.695   0.626 -0.1232  0.1371  1.6441
 7251SOL     OW22595   6.559   6.812   8.124 -0.2261 -0.7754  0.0218
 7251SOL    HW122596   6.605   6.768   8.052  1.8123 -1.3923  1.5944
 7251SOL    HW222597   6.578   6.905   8.111  0.0924 -0.8784 -0.2635
 7252SOL     OW22598   7.940   0.593   0.813 -0.7119  0.1660  0.0338
 7252SOL    HW122599   7.875   0.534   0.775  2.4591 -2.5203 -1.7291
 7252SOL    HW222600   7.929   0.675   0.765 -2.0237 -0.6023 -1.0532
 7253SOL     OW22601   1.217   4.963   2.933 -0.1276  0.2308  0.3745
 7253SOL    HW122602   1.281   5.023   2.972  1.6556  0.0581 -1.9863
 7253SOL    HW222603   1.180   5.013   2.860 -1.1931 -0.3849  0.4840
 7254SOL     OW22604   4.869   1.849   0.885 -0.0235  0.2198 -0.3561
 7254SOL    HW122605   4.957   1.861   0.919 -0.2947 -1.2142  0.9458
 7254SOL    HW222606   4.876   1.771   0.829 -0.0594  1.2899 -1.9260
 7255SOL     OW22607   7.662   0.775   1.655 -0.5846  0.2340  0.6363
 7255SOL    HW122608   7.641   0.739   1.741 -0.4527 -1.4894 -0.0014
 7255SOL    HW222609   7.755   0.757   1.643  0.5069  4.1774  1.7653
 7256SOL     OW22610   7.346   0.813   7.562  0.7464  0.3772  0.7061
 7256SOL    HW122611   7.319   0.779   7.476  4.2456 -0.4813 -0.2055
 7256SOL    HW222612   7.375   0.902   7.545 -1.1721  1.2477  1.6447
 7257SOL     OW22613   3.027   6.197   2.659  0.1522  0.1695 -0.2411
 7257SOL    HW122614   2.941   6.179   2.696 -0.0708 -0.8194 -1.1973
 7257SOL    HW222615   3.083   6.209   2.736 -0.7756  0.5636  0.3907
 7258SOL     OW22616   1.668   6.865   1.020  0.3032 -1.0396 -0.0490
 7258SOL    HW122617   1.584   6.903   0.995  0.0424 -1.2994  0.4325
 7258SOL    HW222618   1.671   6.780   0.975  0.5605 -0.7923 -0.5181
 7259SOL     OW22619   1.317   5.044   0.525  0.4162 -0.9519  0.0018
 7259SOL    HW122620   1.280   4.992   0.453 -1.3279  0.3752 -0.1255
 7259SOL    HW222621   1.248   5.047   0.590  1.4476 -0.9117  1.1289
 7260SOL     OW22622   4.446   5.716   6.179  0.0653 -0.4390  0.3920
 7260SOL    HW122623   4.391   5.643   6.152 -2.0489  0.3181  2.3452
 7260SOL    HW222624   4.389   5.792   6.175  1.6363  0.7932  0.3681
 7261SOL     OW22625   1.225   3.279   4.648  0.0914  0.4208  0.0219
 7261SOL    HW122626   1.171   3.336   4.594 -0.4956  1.3644  1.5422
 7261SOL    HW222627   1.232   3.325   4.732  0.2056 -1.4172  1.0668
 7262SOL     OW22628   1.161   1.393   8.038 -0.0144 -0.1466 -0.0032
 7262SOL    HW122629   1.223   1.363   8.105 -1.1687  0.2381  1.3015
 7262SOL    HW222630   1.109   1.315   8.018 -1.5646  0.3567  1.7536
 7263SOL     OW22631   3.112   3.476   4.991 -0.3801 -0.2928  0.7526
 7263SOL    HW122632   3.034   3.531   4.978  0.1881  0.0672 -1.4842
 7263SOL    HW222633   3.157   3.478   4.907  2.0497 -0.5480  1.9660
 7264SOL     OW22634   3.018   2.637   4.521 -0.4236 -0.5117 -0.3034
 7264SOL    HW122635   3.011   2.667   4.612 -0.7954 -0.3937 -0.3695
 7264SOL    HW222636   2.945   2.576   4.511 -0.7785 -0.0173 -0.7241
 7265SOL     OW22637   7.617   2.614   1.337 -0.2460 -0.2253  0.2872
 7265SOL    HW122638   7.563   2.673   1.285 -1.9341 -1.8609  0.1132
 7265SOL    HW222639   7.707   2.631   1.307 -0.6273  2.2533  0.2958
 7266SOL     OW22640   4.946   2.476   5.878 -0.2215  0.4637 -0.1167
 7266SOL    HW122641   5.020   2.499   5.934 -0.4502  1.0079 -0.0339
 7266SOL    HW222642   4.982   2.473   5.790 -0.0412  0.4442 -0.0419
 7267SOL     OW22643   0.932   0.295   4.546  0.8414 -0.2538 -0.0326
 7267SOL    HW122644   0.855   0.352   4.549  0.6028 -0.5990  0.4894
 7267SOL    HW222645   0.899   0.208   4.569  1.5199 -0.2505  1.0729
 7268SOL     OW22646   2.552   4.927   1.930 -0.4769  0.3710  0.0311
 7268SOL    HW122647   2.628   4.983   1.912  0.8817 -1.1147  0.9113
 7268SOL    HW222648   2.545   4.871   1.853  0.4076 -0.6318  0.6545
 7269SOL     OW22649   5.249   0.027   7.273 -0.1121  0.0506  0.0263
 7269SOL    HW122650   5.251   0.107   7.325 -1.2112  0.3143 -0.3222
 7269SOL    HW222651   5.262  -0.044   7.337 -0.9342  0.4001  0.5966
 7270SOL     OW22652   3.543   1.834   7.452 -0.3841  0.0109 -0.0110
 7270SOL    HW122653   3.623   1.852   7.403 -1.6289 -0.0455 -2.1905
 7270SOL    HW222654   3.473   1.840   7.387 -2.3733  1.7922  2.1244
 7271SOL     OW22655   0.047   2.179   2.120  0.0132 -0.3437 -0.1854
 7271SOL    HW122656   0.129   2.139   2.151  0.6229  0.9373 -0.0730
 7271SOL    HW222657   0.075   2.260   2.076 -1.3173  1.2062  1.6703
 7272SOL     OW22658   8.204   1.616   3.568 -0.0236 -0.3866 -0.0788
 7272SOL    HW122659   8.131   1.632   3.627 -0.5422  0.3026 -0.8676
 7272SOL    HW222660   8.166   1.626   3.480  0.4439 -2.5651 -0.5793
 7273SOL     OW22661   7.598   5.622   4.186  0.2965  0.4118  0.2023
 7273SOL    HW122662   7.683   5.577   4.186  0.4735  0.7265 -0.5972
 7273SOL    HW222663   7.547   5.577   4.252  1.2207  0.4589  0.9792
 7274SOL     OW22664   7.259   7.926   5.511 -0.2700 -0.1336 -0.0518
 7274SOL    HW122665   7.215   7.843   5.491 -0.3270 -0.2072  0.3701
 7274SOL    HW222666   7.323   7.904   5.579  1.4303 -0.3108 -1.6213
 7275SOL     OW22667   4.469   5.516   0.680  0.1065 -0.0342  0.6356
 7275SOL    HW122668   4.450   5.577   0.752  4.1116  1.2922  0.8337
 7275SOL    HW222669   4.494   5.435   0.724  2.6531  0.8073  0.8933
 7276SOL     OW22670   2.141   2.399   5.375 -0.4534 -0.1069  0.1087
 7276SOL    HW122671   2.086   2.386   5.453 -0.3795  0.8590  0.3383
 7276SOL    HW222672   2.120   2.325   5.318  0.0138 -1.2249  1.3408
 7277SOL     OW22673   4.019   1.070   1.108  0.4128  0.1545  0.1958
 7277SOL    HW122674   4.069   1.059   1.189  0.5125 -0.5724  0.0474
 7277SOL    HW222675   4.043   0.994   1.054 -2.3371 -1.3677  0.8978
 7278SOL     OW22676   6.706   4.390   7.496  0.3391 -0.1100 -0.6223
 7278SOL    HW122677   6.782   4.343   7.462 -0.6631 -1.6546 -0.8138
 7278SOL    HW222678   6.640   4.380   7.427 -1.0446 -1.4867  0.8212
 7279SOL     OW22679   6.585   7.028   1.144 -0.3005 -0.1554  0.1025
 7279SOL    HW122680   6.649   6.961   1.164 -0.5082 -0.1998  0.6397
 7279SOL    HW222681   6.584   7.034   1.048  1.0067  0.3422  0.1023
 7280SOL     OW22682   7.835   5.530   2.005 -0.0202 -0.1140 -0.0255
 7280SOL    HW122683   7.929   5.528   2.022  0.5725  0.7011 -2.7190
 7280SOL    HW222684   7.808   5.619   2.028 -0.1153 -0.2769  0.5198
 7281SOL     OW22685   0.298   2.451   1.404 -0.9023  0.2058 -0.2269
 7281SOL    HW122686   0.333   2.531   1.443 -0.5191  0.2100 -0.5620
 7281SOL    HW222687   0.309   2.384   1.471  0.1720  0.1127 -0.4690
 7282SOL     OW22688   4.271   3.048   3.295  0.5465  0.0798  0.4195
 7282SOL    HW122689   4.220   2.972   3.268 -0.0393 -0.0480  1.8323
 7282SOL    HW222690   4.351   3.011   3.333  0.9870  0.2314 -0.3415
 7283SOL     OW22691   5.214   7.595   5.406  0.4284 -0.2198 -0.8270
 7283SOL    HW122692   5.235   7.504   5.385 -1.0374 -0.5500 -0.9628
 7283SOL    HW222693   5.133   7.590   5.457  1.6486  0.8449  1.3893
 7284SOL     OW22694   1.061   2.847   6.908 -0.4311  0.3006  0.2077
 7284SOL    HW122695   1.004   2.832   6.832 -0.2911  0.3903  0.0850
 7284SOL    HW222696   1.001   2.867   6.980 -0.8268 -2.6777  0.8710
 7285SOL     OW22697   7.727   6.321   5.253 -0.1498 -0.0308 -0.5404
 7285SOL    HW122698   7.762   6.362   5.174  0.4377 -0.0474 -0.2990
 7285SOL    HW222699   7.766   6.234   5.255  1.9102  0.8149  1.0498
 7286SOL     OW22700   3.711   7.289   7.136  0.0930  0.8568 -0.5043
 7286SOL    HW122701   3.732   7.319   7.224  1.5236  0.8414 -0.8153
 7286SOL    HW222702   3.778   7.331   7.080 -0.3742  0.3268 -1.4826
 7287SOL     OW22703   2.608   7.442   0.269 -0.0168  0.5422 -0.2463
 7287SOL    HW122704   2.517   7.429   0.242  0.0946 -0.0430 -0.3573
 7287SOL    HW222705   2.604   7.514   0.332 -0.6250  0.1816  0.1390
 7288SOL     OW22706   5.176   1.317   7.097  0.3645  0.4496 -0.3152
 7288SOL    HW122707   5.154   1.249   7.161  1.4192  1.5153  1.2506
 7288SOL    HW222708   5.123   1.392   7.123 -0.0705  0.5627 -1.4532
 7289SOL     OW22709   1.580   5.278   5.853  0.6501  0.2192  0.0386
 7289SOL    HW122710   1.569   5.360   5.805  3.0825  0.9121  0.5414
 7289SOL    HW222711   1.624   5.220   5.791 -0.3312 -0.4818 -0.0388
 7290SOL     OW22712   5.621   5.284   2.384 -0.5228 -0.3445 -0.0718
 7290SOL    HW122713   5.603   5.279   2.290 -1.9084  0.5350  0.1154
 7290SOL    HW222714   5.536   5.301   2.424  0.4506  2.5662  1.0352
 7291SOL     OW22715   7.366   0.057   6.509 -0.0307 -0.0937 -0.3097
 7291SOL    HW122716   7.315   0.030   6.585 -0.4168  0.9551 -0.1883
 7291SOL    HW222717   7.316   0.129   6.470  0.7394  0.1441 -0.8888
 7292SOL     OW22718   3.351   1.125   1.514 -0.1079  0.4500  0.1953
 7292SOL    HW122719   3.385   1.042   1.547  0.6267  1.1029  1.1367
 7292SOL    HW222720   3.333   1.176   1.593  2.0431  2.2013 -0.3488
 7293SOL     OW22721   2.734   5.719   8.092 -0.2503  0.3471 -0.1885
 7293SOL    HW122722   2.775   5.650   8.145 -0.7940  0.8662  0.9289
 7293SOL    HW222723   2.687   5.671   8.024  1.1542 -0.3037 -0.7522
 7294SOL     OW22724   1.029   6.624   4.001  0.0747 -0.6116  0.5433
 7294SOL    HW122725   1.011   6.606   3.909  0.3645 -1.1956  0.5945
 7294SOL    HW222726   0.972   6.698   4.023  1.8399  1.2811 -0.7972
 7295SOL     OW22727   1.799   2.098   2.236  0.6662  0.7767  0.4481
 7295SOL    HW122728   1.741   2.154   2.185  1.3407  0.3334 -0.8579
 7295SOL    HW222729   1.751   2.016   2.246  0.6747  0.7476  0.2366
 7296SOL     OW22730   5.688   6.135   0.248 -0.7212  0.0944  0.3601
 7296SOL    HW122731   5.674   6.040   0.257 -0.0088  0.0593  1.2937
 7296SOL    HW222732   5.638   6.159   0.171  0.2001 -1.3051 -0.7369
 7297SOL     OW22733   0.396   6.899   4.327 -0.0845 -0.3661  0.3751
 7297SOL    HW122734   0.315   6.856   4.302  0.0360 -1.1743  1.3216
 7297SOL    HW222735   0.369   6.974   4.381 -0.2723  0.5366 -0.9186
 7298SOL     OW22736   6.588   0.846   7.068 -0.0924 -0.4552  0.4929
 7298SOL    HW122737   6.589   0.833   6.973  1.1220  0.0978  0.4129
 7298SOL    HW222738   6.629   0.932   7.081  1.9915 -1.5370  1.6292
 7299SOL     OW22739   6.935   3.354   3.296 -0.1274  0.3527  0.2239
 7299SOL    HW122740   6.978   3.398   3.369 -1.7103  0.6169  1.0374
 7299SOL    HW222741   6.865   3.413   3.270  0.0869  0.0180 -1.1863
 7300SOL     OW22742   0.414   4.008   0.533  0.0324 -0.1148 -0.2366
 7300SOL    HW122743   0.344   4.067   0.502  0.2544 -0.1108 -0.7380
 7300SOL    HW222744   0.376   3.964   0.609 -1.2387 -1.5668 -1.6514
 7301SOL     OW22745   2.676   1.935   4.324 -0.2911 -0.0080  0.0897
 7301SOL    HW122746   2.694   1.843   4.343  1.0498 -0.0179 -1.1177
 7301SOL    HW222747   2.725   1.983   4.391  1.4373 -0.1361 -1.0221
 7302SOL     OW22748   0.793   2.175   0.436 -0.1825  0.1263 -0.4744
 7302SOL    HW122749   0.797   2.123   0.356 -1.2626  0.4299 -0.7318
 7302SOL    HW222750   0.713   2.146   0.480 -0.1808  0.7453 -0.0478
 7303SOL     OW22751   1.393   5.374   4.658  0.2873  0.2245 -0.2503
 7303SOL    HW122752   1.318   5.433   4.656  1.4310  1.7720 -0.1714
 7303SOL    HW222753   1.465   5.429   4.689  1.2498 -1.4546  0.6235
 7304SOL     OW22754   7.485   7.872   4.313  0.1271 -0.4937  0.0857
 7304SOL    HW122755   7.570   7.833   4.329  1.2505  2.3862  1.9971
 7304SOL    HW222756   7.457   7.905   4.398 -1.4016  1.3902 -1.0592
 7305SOL     OW22757   6.791   7.335   7.873 -0.1476  0.8465  0.7625
 7305SOL    HW122758   6.750   7.254   7.843 -1.7727  1.8244  0.2254
 7305SOL    HW222759   6.742   7.405   7.830  1.0701  2.1413  1.3750
 7306SOL     OW22760   4.888   5.412   2.340 -0.4114 -0.1532 -0.3351
 7306SOL    HW122761   4.961   5.355   2.319 -0.6428  0.2059 -2.3150
 7306SOL    HW222762   4.923   5.501   2.330 -1.1844  0.0261 -1.7613
 7307SOL     OW22763   1.946   5.224   4.549 -0.2346 -0.1026 -0.6771
 7307SOL    HW122764   1.952   5.130   4.567  0.0372 -0.4220 -2.2955
 7307SOL    HW222765   1.857   5.247   4.573  0.3153 -0.2650  1.8290
 7308SOL     OW22766   5.124   1.847   3.992 -0.3404 -0.2819 -0.4010
 7308SOL    HW122767   5.092   1.758   3.978 -2.0261  0.1194  0.6529
 7308SOL    HW222768   5.198   1.855   3.932 -2.0572 -1.3340 -2.8098
 7309SOL     OW22769   2.410   3.890   8.127  0.0751  0.1350 -0.1434
 7309SOL    HW122770   2.321   3.925   8.119  0.7282  1.6667 -1.5102
 7309SOL    HW222771   2.463   3.965   8.155  0.9274 -0.7844  0.7925
 7310SOL     OW22772   0.244   4.122   1.971 -0.1954  0.2299  0.5587
 7310SOL    HW122773   0.231   4.029   1.987  0.6609 -0.1042 -0.5992
 7310SOL    HW222774   0.333   4.140   2.003  0.7108  0.0203 -1.6869
 7311SOL     OW22775   7.744   0.090   0.175  0.2401  0.3054  0.1343
 7311SOL    HW122776   7.691   0.128   0.245  0.4888  0.1938  0.3857
 7311SOL    HW222777   7.831   0.080   0.214  0.1303 -0.7148  0.1491
 7312SOL     OW22778   6.446   3.453   2.081  0.1842  0.5761  0.2935
 7312SOL    HW122779   6.523   3.418   2.125 -0.5442 -1.0788  0.3452
 7312SOL    HW222780   6.461   3.437   1.988 -0.8270 -1.4313  0.4252
 7313SOL     OW22781   4.738   1.477   2.123  0.3005 -0.4931 -0.1790
 7313SOL    HW122782   4.753   1.545   2.188 -1.0510  0.2672 -0.6168
 7313SOL    HW222783   4.737   1.396   2.173  0.0809 -0.0081  0.6273
 7314SOL     OW22784   7.100   8.130   5.632  0.2181  0.1262  0.2686
 7314SOL    HW122785   7.159   8.087   5.571  0.3377  1.6791 -0.7834
 7314SOL    HW222786   7.026   8.069   5.641  0.0980 -0.0735 -1.6202
 7315SOL     OW22787   5.638   1.507   5.463  0.0626 -0.3531 -0.0403
 7315SOL    HW122788   5.696   1.540   5.394  0.3046  0.0772  0.3617
 7315SOL    HW222789   5.558   1.559   5.455 -0.1885 -0.7884 -0.4448
 7316SOL     OW22790   5.585   2.818   2.574 -0.1991  0.0944  0.2718
 7316SOL    HW122791   5.539   2.891   2.615 -0.3050  0.7766 -1.0238
 7316SOL    HW222792   5.565   2.825   2.481  1.3857 -0.4100 -0.1517
 7317SOL     OW22793   4.350   1.682   1.098 -0.2764  0.4930 -0.4800
 7317SOL    HW122794   4.345   1.656   1.006  0.3437 -2.3434  0.1893
 7317SOL    HW222795   4.261   1.669   1.131  0.4935 -4.0610  0.4930
 7318SOL     OW22796   3.818   7.476   0.369  0.5110  0.3329 -0.2111
 7318SOL    HW122797   3.782   7.489   0.456  0.2959 -1.2915 -0.0380
 7318SOL    HW222798   3.741   7.479   0.311  0.5475  0.5454 -0.2485
 7319SOL     OW22799   5.333   2.797   5.299 -0.4379  0.3097 -0.4480
 7319SOL    HW122800   5.409   2.837   5.343  0.2974 -2.1737  0.7221
 7319SOL    HW222801   5.371   2.746   5.228 -1.1453  0.0542 -0.6494
 7320SOL     OW22802   0.983   2.024   2.885  0.5179 -0.1974 -0.2322
 7320SOL    HW122803   0.903   1.980   2.915  0.3092  0.7857  0.7474
 7320SOL    HW222804   0.969   2.038   2.791 -0.6927  0.3773  0.0000
 7321SOL     OW22805   1.746   1.732   0.178 -0.1383 -0.2133 -0.0549
 7321SOL    HW122806   1.669   1.767   0.134 -0.4640 -2.5657 -1.5705
 7321SOL    HW222807   1.730   1.637   0.181  1.3814 -0.4804  2.2852
 7322SOL     OW22808   4.962   3.019   0.166 -0.0296  0.5722 -0.2773
 7322SOL    HW122809   5.029   3.085   0.182 -0.6749  0.8570  1.5458
 7322SOL    HW222810   4.965   2.963   0.243 -1.7709  0.5231 -0.2037
 7323SOL     OW22811   4.224   3.905   6.529 -0.5673 -0.1079  0.2360
 7323SOL    HW122812   4.170   3.862   6.595 -1.4444  1.0305  0.2871
 7323SOL    HW222813   4.163   3.961   6.481  0.1395 -0.5357 -1.2229
 7324SOL     OW22814   1.488   6.811   6.772 -0.1953 -1.0515  0.1498
 7324SOL    HW122815   1.455   6.831   6.684  2.5148 -0.6888 -0.8539
 7324SOL    HW222816   1.499   6.716   6.772 -1.6522 -1.2474  0.6910
 7325SOL     OW22817   1.824   8.092   6.325  0.8405 -0.1982  0.5008
 7325SOL    HW122818   1.853   8.166   6.272  0.6456 -1.4569 -1.4946
 7325SOL    HW222819   1.729   8.103   6.333  0.6452 -0.7841 -0.7747
 7326SOL     OW22820   3.384   2.801   7.477  0.2711  0.3763  0.0467
 7326SOL    HW122821   3.433   2.722   7.456  0.9535  0.4692  1.2122
 7326SOL    HW222822   3.349   2.786   7.565 -0.8599  0.7722 -0.3132
 7327SOL     OW22823   8.090   0.960   7.764  0.3192 -0.3430 -0.2436
 7327SOL    HW122824   8.036   1.027   7.722  1.0479 -0.0004 -0.6628
 7327SOL    HW222825   8.084   0.979   7.857  0.7610  0.5112 -0.3751
 7328SOL     OW22826   4.874   3.448   4.458  0.0797 -0.1615  0.4233
 7328SOL    HW122827   4.932   3.446   4.382  1.4116  0.0031  1.3850
 7328SOL    HW222828   4.802   3.389   4.436  0.4751 -0.1685 -0.9181
 7329SOL     OW22829   6.046   5.331   0.009  0.1994  0.3242 -0.6914
 7329SOL    HW122830   6.021   5.250   0.055  1.6160 -0.4664 -1.2243
 7329SOL    HW222831   6.008   5.321  -0.078  1.4613 -0.4331 -1.1921
 7330SOL     OW22832   5.722   1.011   4.336 -0.0290 -0.9253  0.2532
 7330SOL    HW122833   5.797   1.026   4.279 -0.3358 -0.4360 -0.0265
 7330SOL    HW222834   5.714   1.091   4.387  1.2828 -1.9629  2.2402
 7331SOL     OW22835   4.023   2.769   7.715 -0.4157 -0.8635 -0.5657
 7331SOL    HW122836   4.114   2.765   7.746 -1.1368 -0.4206  1.8843
 7331SOL    HW222837   3.971   2.764   7.796 -2.5240  0.6123 -1.7425
 7332SOL     OW22838   7.985   3.090   6.221 -0.0206  0.3105  0.0101
 7332SOL    HW122839   7.998   3.104   6.127  0.4665 -0.6391 -0.0691
 7332SOL    HW222840   7.939   3.007   6.227 -0.1428  0.4168  0.6138
 7333SOL     OW22841   0.026   4.590   2.849 -0.0779 -0.0356  0.3597
 7333SOL    HW122842   0.007   4.587   2.943  0.6985  1.0309  0.5707
 7333SOL    HW222843   0.108   4.639   2.843 -0.5575  0.6622 -0.9404
 7334SOL     OW22844   4.049   7.481   6.737  0.0617 -0.0322 -0.2990
 7334SOL    HW122845   4.068   7.396   6.697  2.8987  1.1332 -1.7304
 7334SOL    HW222846   3.980   7.518   6.683 -0.4626 -0.9861 -0.2976
 7335SOL     OW22847   3.129   7.407   7.908 -0.2573  0.4168 -0.8941
 7335SOL    HW122848   3.097   7.453   7.986 -1.5135 -1.1298 -0.4502
 7335SOL    HW222849   3.052   7.397   7.853  0.5925  1.3408 -2.3062
 7336SOL     OW22850   7.476   5.523   5.844  0.0502  0.2495 -0.1048
 7336SOL    HW122851   7.427   5.497   5.766  1.9548  1.0934 -1.6771
 7336SOL    HW222852   7.466   5.618   5.848  1.3940  0.4204 -0.3749
 7337SOL     OW22853   3.337   7.421   5.955  0.0330 -0.2847 -0.7765
 7337SOL    HW122854   3.343   7.496   6.014 -1.4975 -1.1747  0.6088
 7337SOL    HW222855   3.410   7.365   5.979 -0.2557 -0.3774 -0.1045
 7338SOL     OW22856   6.025   7.008   5.593 -0.4662 -0.0616 -0.5439
 7338SOL    HW122857   5.957   7.075   5.585 -0.2788  0.4998  1.8760
 7338SOL    HW222858   6.101   7.046   5.550 -0.1252  1.7127  1.4742
 7339SOL     OW22859   5.888   5.840   6.801  0.1830 -0.1850  0.1476
 7339SOL    HW122860   5.952   5.809   6.865 -0.9859 -0.4582  1.2372
 7339SOL    HW222861   5.930   5.915   6.759  0.2235  1.3610  2.7439
 7340SOL     OW22862   4.102   7.137   0.662  0.2730  0.3335 -0.0645
 7340SOL    HW122863   4.038   7.098   0.722  0.2725 -0.6080 -0.6480
 7340SOL    HW222864   4.054   7.151   0.581  0.8520 -0.6944 -0.6144
 7341SOL     OW22865   1.353   4.487   8.152 -0.5228  0.3175 -0.7244
 7341SOL    HW122866   1.418   4.557   8.140 -1.7027  1.5710 -0.0152
 7341SOL    HW222867   1.403   4.406   8.137  0.9345  1.2761 -1.3267
 7342SOL     OW22868   0.508   4.151   2.075  0.7517 -0.2860 -0.7486
 7342SOL    HW122869   0.591   4.196   2.060  1.2851 -0.4939  1.2512
 7342SOL    HW222870   0.532   4.072   2.125 -0.6892  0.0138  0.4904
 7343SOL     OW22871   7.962   3.601   0.497 -0.0878 -0.5182 -0.2600
 7343SOL    HW122872   7.984   3.621   0.406  0.3975  2.5126  0.4159
 7343SOL    HW222873   7.901   3.528   0.492 -0.4245 -0.1394 -3.0287
 7344SOL     OW22874   6.037   8.077   0.130 -0.3071  0.0376  0.4997
 7344SOL    HW122875   5.981   8.130   0.074 -0.1163 -0.1286  0.1489
 7344SOL    HW222876   6.019   7.987   0.103 -0.3665 -0.0598  0.8481
 7345SOL     OW22877   5.418   7.793   4.040  0.3107 -0.2563 -0.0513
 7345SOL    HW122878   5.345   7.766   4.096 -0.9019  2.1169 -0.3744
 7345SOL    HW222879   5.491   7.803   4.101 -0.2257 -0.4521  0.6445
 7346SOL     OW22880   7.579   7.055   1.498  0.1842  0.5766 -0.0063
 7346SOL    HW122881   7.567   7.005   1.578 -1.7522  0.1579 -0.5050
 7346SOL    HW222882   7.634   7.000   1.442 -0.8047 -0.4245 -0.0267
 7347SOL     OW22883   5.736   7.729   5.840  0.0099  0.0278  0.1464
 7347SOL    HW122884   5.668   7.673   5.802  1.3314 -0.0219 -2.3803
 7347SOL    HW222885   5.742   7.701   5.931  1.4448 -4.9528 -1.1544
 7348SOL     OW22886   2.727   4.279   7.147 -0.8670  0.7903  0.3816
 7348SOL    HW122887   2.819   4.255   7.158 -1.0843 -3.5731 -3.8598
 7348SOL    HW222888   2.685   4.255   7.229  1.1480 -1.8987  0.7370
 7349SOL     OW22889   7.715   1.679   5.069 -0.0501 -0.1474  0.2900
 7349SOL    HW122890   7.724   1.736   5.145  0.3651  0.5378 -0.2670
 7349SOL    HW222891   7.652   1.612   5.097  0.1241  0.0749  1.2415
 7350SOL     OW22892   6.313   6.807   7.838  0.3721 -0.1854  0.2878
 7350SOL    HW122893   6.287   6.891   7.800  1.0370  0.6762  1.6671
 7350SOL    HW222894   6.334   6.752   7.762  1.7919  1.5180 -0.6117
 7351SOL     OW22895   5.414   1.048   1.771  0.5720  0.3180  0.0579
 7351SOL    HW122896   5.324   1.017   1.771  0.4976  0.5229  0.6811
 7351SOL    HW222897   5.466   0.973   1.742  0.1131  0.4844 -1.2696
 7352SOL     OW22898   4.589   0.617   1.621 -0.0746 -0.0750  0.0459
 7352SOL    HW122899   4.677   0.652   1.610  0.0139 -0.1499  0.4942
 7352SOL    HW222900   4.545   0.679   1.679 -0.9477  1.0043 -1.6806
 7353SOL     OW22901   4.881   5.424   4.253  0.0986  0.5136  0.4292
 7353SOL    HW122902   4.790   5.456   4.245  0.0927  0.8797  1.6768
 7353SOL    HW222903   4.931   5.503   4.274  0.5671  0.1723  0.5872
 7354SOL     OW22904   7.362   6.716   7.436  0.6817 -0.0490 -0.9169
 7354SOL    HW122905   7.327   6.792   7.482  2.0121  0.3531 -0.5239
 7354SOL    HW222906   7.291   6.689   7.376 -0.1267  0.9503 -0.4369
 7355SOL     OW22907   4.065   0.087   0.055  0.0087 -0.0651  0.0913
 7355SOL    HW122908   4.156   0.058   0.061 -0.3922 -1.0833  1.6076
 7355SOL    HW222909   4.052   0.103  -0.039  1.0683 -2.2079 -0.4980
 7356SOL     OW22910   8.167   7.064   5.173 -0.3379 -0.0318  0.4448
 7356SOL    HW122911   8.233   7.120   5.131  0.0695 -0.4645  0.4971
 7356SOL    HW222912   8.151   6.994   5.109  0.2527 -0.6702  0.9789
 7357SOL     OW22913   0.123   2.758   3.298  0.5863  0.1296 -0.1480
 7357SOL    HW122914   0.116   2.847   3.262 -1.5597  0.9032  1.8576
 7357SOL    HW222915   0.214   2.750   3.324  0.4451  2.6067  1.4743
 7358SOL     OW22916   8.044   2.609   7.004  0.4906 -0.1363 -0.5113
 7358SOL    HW122917   8.024   2.548   6.934 -0.1369 -0.4178 -0.0930
 7358SOL    HW222918   8.019   2.695   6.970  2.1183  0.0264 -1.4066
 7359SOL     OW22919   4.761   6.809   7.659  0.1820  0.1000 -0.5378
 7359SOL    HW122920   4.691   6.844   7.714  2.0863  1.9771  0.8537
 7359SOL    HW222921   4.724   6.730   7.619 -1.8744 -0.3912  2.1038
 7360SOL     OW22922   2.742   7.123   7.807 -0.1651 -0.2021  0.2496
 7360SOL    HW122923   2.809   7.093   7.867 -0.7293 -0.0827  0.9554
 7360SOL    HW222924   2.780   7.199   7.764  0.9260 -1.3473 -0.8811
 7361SOL     OW22925   2.080   7.197   3.861 -0.7506  0.0891 -0.2294
 7361SOL    HW122926   2.154   7.136   3.851 -0.0514  0.7518  0.7064
 7361SOL    HW222927   2.114   7.281   3.829 -1.2349  0.3100 -0.1664
 7362SOL     OW22928   1.180   1.717   2.439  0.1453  0.0970  0.0537
 7362SOL    HW122929   1.094   1.687   2.468  0.6292 -0.0524  1.3766
 7362SOL    HW222930   1.237   1.641   2.451  0.3470 -0.0418 -1.5118
 7363SOL     OW22931   1.071   2.784   0.203 -0.1888 -0.5728  0.2363
 7363SOL    HW122932   1.143   2.791   0.141  0.6502 -1.4872  1.0844
 7363SOL    HW222933   1.082   2.859   0.261  0.7079 -1.2680  0.9898
 7364SOL     OW22934   0.007   6.769   7.642  0.0041 -0.1111  0.3317
 7364SOL    HW122935   0.048   6.849   7.674 -0.4969 -0.7043  2.5966
 7364SOL    HW222936  -0.072   6.799   7.596 -0.4898  0.6772  1.6671
 7365SOL     OW22937   5.803   0.205   2.496  0.1758 -0.0170  0.2042
 7365SOL    HW122938   5.778   0.115   2.479  0.1961  0.0162  0.0001
 7365SOL    HW222939   5.839   0.204   2.585 -1.0224  0.0230  0.7157
 7366SOL     OW22940   8.002   4.246   2.897 -0.5171 -0.0366  0.0325
 7366SOL    HW122941   7.907   4.237   2.891 -0.5668  0.2013  0.3924
 7366SOL    HW222942   8.015   4.329   2.943 -0.1111  1.0180 -1.8611
 7367SOL     OW22943   2.834   3.679   0.291  0.1832 -0.3768  0.0081
 7367SOL    HW122944   2.905   3.627   0.253  0.5235  1.0119 -1.3737
 7367SOL    HW222945   2.831   3.652   0.383  2.7246 -0.2502  0.1991
 7368SOL     OW22946   7.063   0.647   0.084 -0.3590 -0.5437 -1.0516
 7368SOL    HW122947   7.072   0.709   0.157  0.7076 -0.0723 -1.5663
 7368SOL    HW222948   7.148   0.604   0.079 -1.5309 -3.2830  0.3355
 7369SOL     OW22949   4.622   6.883   5.879  0.2419 -0.3364 -0.7113
 7369SOL    HW122950   4.667   6.967   5.871 -0.4388  0.2597  1.1730
 7369SOL    HW222951   4.690   6.823   5.909  0.5165 -0.2304 -1.1113
 7370SOL     OW22952   4.214   3.446   8.129 -0.1568  0.4392  0.1015
 7370SOL    HW122953   4.296   3.428   8.084  1.0567  0.7466  2.0685
 7370SOL    HW222954   4.187   3.362   8.165 -0.9379  0.2619 -0.8625
 7371SOL     OW22955   1.598   1.298   7.170 -0.4492  0.1269  0.0770
 7371SOL    HW122956   1.528   1.256   7.221 -1.5804  2.5220  0.6552
 7371SOL    HW222957   1.560   1.309   7.083 -0.6984  1.0921  0.2921
 7372SOL     OW22958   6.566   4.011   6.180  0.1081  0.1441  0.6353
 7372SOL    HW122959   6.602   3.987   6.094 -0.4935 -1.2035  0.7289
 7372SOL    HW222960   6.596   3.941   6.238  2.1801  2.0595  2.0061
 7373SOL     OW22961   5.602   6.561   0.219  0.5323  0.6922  0.0095
 7373SOL    HW122962   5.575   6.630   0.280 -1.6181 -0.1843  0.1713
 7373SOL    HW222963   5.635   6.491   0.276  2.3561  1.3867 -0.1327
 7374SOL     OW22964   6.129   2.621   4.472 -0.7389 -0.5090  0.2208
 7374SOL    HW122965   6.104   2.691   4.532 -0.9755 -0.4518  0.0569
 7374SOL    HW222966   6.183   2.562   4.525  0.2680  0.2907  0.0992
 7375SOL     OW22967   3.638   1.057   5.391  0.8209  0.4505 -0.4875
 7375SOL    HW122968   3.650   1.097   5.305  0.3194  0.1599 -0.6953
 7375SOL    HW222969   3.625   0.964   5.373  2.7055  0.0389  0.0346
 7376SOL     OW22970   5.566   1.285   0.675 -0.3896  0.1647 -0.9268
 7376SOL    HW122971   5.497   1.297   0.740  0.3083 -0.3869 -0.0673
 7376SOL    HW222972   5.631   1.352   0.697 -0.3886  0.3204 -1.3889
 7377SOL     OW22973   4.202   1.216   7.743 -0.2610 -0.0552 -0.2222
 7377SOL    HW122974   4.157   1.211   7.659 -0.8807 -1.2522  0.1618
 7377SOL    HW222975   4.137   1.190   7.808  0.9152 -1.8391  0.3447
 7378SOL     OW22976   5.324   4.674   2.562  0.0275  0.1156 -0.1477
 7378SOL    HW122977   5.403   4.633   2.596  1.2759  2.5223  0.0954
 7378SOL    HW222978   5.356   4.754   2.519 -2.3186  1.4705  0.4679
 7379SOL     OW22979   7.062   3.201   8.177 -0.2248 -0.0879  0.5677
 7379SOL    HW122980   7.034   3.109   8.174 -2.6464  0.5419 -2.5070
 7379SOL    HW222981   7.021   3.236   8.255  0.1704 -1.4473  1.4173
 7380SOL     OW22982   7.444   7.792   1.549 -0.0693 -0.1003  0.9311
 7380SOL    HW122983   7.438   7.754   1.636  2.6318  0.2152  1.3444
 7380SOL    HW222984   7.489   7.726   1.496  0.0335  0.4599  0.2957
 7381SOL     OW22985   7.772   1.230   0.400 -0.0945  0.1234 -0.7964
 7381SOL    HW122986   7.754   1.323   0.390 -0.1496  0.3226  0.9969
 7381SOL    HW222987   7.864   1.225   0.423 -0.2781 -0.2071 -0.1125
 7382SOL     OW22988   5.158   2.815   3.602  0.5848  0.2636 -0.2547
 7382SOL    HW122989   5.194   2.903   3.613  0.4988  0.1926  0.7055
 7382SOL    HW222990   5.232   2.757   3.623  0.0037  0.1166  1.6169
 7383SOL     OW22991   2.720   3.166   6.474 -0.4488 -0.3687 -0.3996
 7383SOL    HW122992   2.747   3.223   6.401 -1.6652 -2.0043 -2.2243
 7383SOL    HW222993   2.758   3.081   6.452  0.2876 -0.6134  1.6363
 7384SOL     OW22994   1.274   7.622   0.117 -0.6827 -0.4249  0.5179
 7384SOL    HW122995   1.323   7.659   0.190 -0.2339 -2.3250  1.2540
 7384SOL    HW222996   1.289   7.681   0.044 -0.7060  1.2477  1.8125
 7385SOL     OW22997   2.276   0.929   8.209  0.0855  0.1779 -0.0580
 7385SOL    HW122998   2.318   0.944   8.294  1.5529  1.5258 -0.9661
 7385SOL    HW222999   2.333   0.865   8.166  0.0474  0.4447 -0.5052
 7386SOL     OW23000   0.527   0.453   4.930 -0.0762 -0.0329  0.2396
 7386SOL    HW123001   0.482   0.538   4.926 -1.4782 -0.6922  1.0261
 7386SOL    HW223002   0.468   0.392   4.885  1.0044 -0.5690 -0.4912
 7387SOL     OW23003   4.499   4.462   2.320  0.2550 -0.5313 -0.1283
 7387SOL    HW123004   4.513   4.556   2.306  0.9276 -0.2405  2.0838
 7387SOL    HW223005   4.567   4.437   2.382 -0.5292 -2.2785  0.0700
 7388SOL     OW23006   2.856   0.857   1.746  0.4658 -0.1684 -0.8899
 7388SOL    HW123007   2.853   0.882   1.653 -0.0677 -3.8274 -2.0259
 7388SOL    HW223008   2.887   0.766   1.745 -1.3010 -0.9634  2.3942
 7389SOL     OW23009   4.025   8.123   1.776 -0.1022  0.7595 -0.2612
 7389SOL    HW123010   3.978   8.187   1.830  0.1458 -0.1307  1.0538
 7389SOL    HW223011   4.115   8.155   1.775 -0.1063  0.7778 -0.1305
 7390SOL     OW23012   5.620   0.993   7.724 -0.5619  0.3291  0.2267
 7390SOL    HW123013   5.586   0.934   7.657  1.9017 -1.2671  0.2365
 7390SOL    HW223014   5.570   1.074   7.713  0.0694  0.3594 -3.9065
 7391SOL     OW23015   6.951   6.529   4.334  0.4835  0.3813  0.1574
 7391SOL    HW123016   7.029   6.565   4.377 -1.1496  0.7427  3.0262
 7391SOL    HW223017   6.895   6.604   4.317  0.2369 -0.0052 -0.8334
 7392SOL     OW23018   1.908   5.616   0.977  0.0431 -0.3263 -0.2471
 7392SOL    HW123019   1.980   5.564   0.942  1.5885  0.0521  2.0934
 7392SOL    HW223020   1.906   5.694   0.922  1.0992 -0.5889 -0.6810
 7393SOL     OW23021   5.864   6.306   4.192 -0.5067 -0.2280 -0.1089
 7393SOL    HW123022   5.950   6.339   4.214 -0.4917 -0.9353  0.9554
 7393SOL    HW223023   5.838   6.253   4.267 -2.0790  0.3634 -0.1944
 7394SOL     OW23024   6.908   7.622   7.467 -0.1492 -0.3971 -0.1767
 7394SOL    HW123025   6.937   7.551   7.524  1.3711  0.0625 -0.3310
 7394SOL    HW223026   6.836   7.663   7.514 -0.9836 -1.9763 -0.0492
 7395SOL     OW23027   2.511   0.156   6.167 -0.6357  0.0484 -0.1777
 7395SOL    HW123028   2.544   0.115   6.247  0.5715  0.1008 -0.6297
 7395SOL    HW223029   2.589   0.188   6.122 -1.3549  0.6651 -1.0313
 7396SOL     OW23030   7.934   5.924   1.654 -0.1637 -0.0259 -0.5604
 7396SOL    HW123031   7.844   5.941   1.682 -0.7444 -2.1997 -0.9672
 7396SOL    HW223032   7.955   5.997   1.596 -1.5529  0.6756 -0.2229
 7397SOL     OW23033   7.208   0.232   4.062  0.8530 -0.6101  0.1148
 7397SOL    HW123034   7.297   0.266   4.054  1.4329 -1.6538  1.5876
 7397SOL    HW223035   7.177   0.265   4.146 -0.8576  1.1820 -1.1353
 7398SOL     OW23036   2.684   7.220   8.160 -0.4572  0.4435 -0.1833
 7398SOL    HW123037   2.598   7.215   8.117 -0.4025  1.2289 -0.4106
 7398SOL    HW223038   2.669   7.186   8.248 -0.4501 -1.7238 -0.9747
 7399SOL     OW23039   5.735   2.453   7.998 -0.5544 -0.1012  1.0148
 7399SOL    HW123040   5.704   2.442   8.088  0.7652  0.5129  1.5791
 7399SOL    HW223041   5.821   2.494   8.007 -0.9240  1.1528 -0.5650
 7400SOL     OW23042   2.256   6.413   7.523 -0.1644  0.0104 -0.2957
 7400SOL    HW123043   2.218   6.326   7.531  1.9045 -0.9475 -0.0980
 7400SOL    HW223044   2.302   6.411   7.439  0.1181  0.8182 -0.1665
 7401SOL     OW23045   7.085   0.226   0.988  0.4294 -0.2157  0.5506
 7401SOL    HW123046   7.054   0.301   0.937  2.4256  1.0102  1.0344
 7401SOL    HW223047   7.013   0.207   1.048 -0.5957  0.5167 -0.3914
 7402SOL     OW23048   2.319   2.885   3.702  0.0832 -0.4745  0.6219
 7402SOL    HW123049   2.246   2.836   3.740 -1.5759  1.3575 -0.0018
 7402SOL    HW223050   2.278   2.941   3.636  2.2097 -0.0037 -0.3911
 7403SOL     OW23051   5.650   0.435   7.197  0.1835  0.5744 -0.5487
 7403SOL    HW123052   5.560   0.465   7.207 -0.0077 -0.4039  0.9523
 7403SOL    HW223053   5.667   0.441   7.103 -1.5428  0.5063 -0.8944
 7404SOL     OW23054   3.453   3.201   1.175  0.0727  0.8841 -0.1478
 7404SOL    HW123055   3.408   3.204   1.091 -0.7826  0.2902  0.2744
 7404SOL    HW223056   3.383   3.194   1.240  0.7514  0.4204  0.5551
 7405SOL     OW23057   6.647   1.025   2.408  0.1791  0.0404 -0.3419
 7405SOL    HW123058   6.680   0.959   2.469  0.0092  1.1665  1.0116
 7405SOL    HW223059   6.575   1.067   2.454 -0.6534  0.2378 -1.7495
 7406SOL     OW23060   7.870   6.452   3.790  0.1219  0.1332 -0.3800
 7406SOL    HW123061   7.811   6.515   3.749 -1.1828 -0.1737  0.9280
 7406SOL    HW223062   7.936   6.506   3.833 -1.9349  0.8271  2.1816
 7407SOL     OW23063   5.864   4.045   2.674  1.0050  0.1375 -0.1565
 7407SOL    HW123064   5.922   4.087   2.738  1.3495  1.8831 -1.5471
 7407SOL    HW223065   5.893   4.078   2.589  0.0012 -1.4480 -1.1805
 7408SOL     OW23066   7.350   5.387   4.927  0.2305 -0.2416  0.3058
 7408SOL    HW123067   7.377   5.472   4.962  2.9614 -1.3735  1.2393
 7408SOL    HW223068   7.403   5.375   4.849  1.6456 -1.9937  1.4437
 7409SOL     OW23069   1.070   7.617   4.423  0.5779  0.3536 -0.0638
 7409SOL    HW123070   1.012   7.685   4.456 -0.6797 -1.2495  1.2480
 7409SOL    HW223071   1.013   7.561   4.370  1.5762  0.2962 -1.1068
 7410SOL     OW23072   7.235   6.340   1.898  0.2504 -0.4716  0.0470
 7410SOL    HW123073   7.300   6.307   1.835 -1.1588 -0.3230 -1.5478
 7410SOL    HW223074   7.232   6.274   1.966  1.4526 -0.8957 -0.2780
 7411SOL     OW23075   4.777   3.829   6.129  0.1227 -0.4098 -0.0814
 7411SOL    HW123076   4.762   3.747   6.082  1.7075 -0.9171  0.2544
 7411SOL    HW223077   4.770   3.805   6.221  1.2109 -0.3128  0.0358
 7412SOL     OW23078   1.185   3.989   1.791  0.2656  0.0989  0.0903
 7412SOL    HW123079   1.147   4.076   1.778 -0.1374  0.0584  0.9201
 7412SOL    HW223080   1.214   3.962   1.704  4.0045  2.6697  0.2771
 7413SOL     OW23081   5.624   4.527   3.649  0.3743 -0.1826 -0.4052
 7413SOL    HW123082   5.601   4.514   3.741  1.3557  0.4557 -0.0610
 7413SOL    HW223083   5.703   4.580   3.651 -0.8032  1.7508 -1.6671
 7414SOL     OW23084   3.875   3.575   1.896 -0.0474  0.4528 -0.0636
 7414SOL    HW123085   3.935   3.501   1.883 -0.6615 -0.0697  0.0525
 7414SOL    HW223086   3.932   3.652   1.894  0.6491 -0.0448  0.1692
 7415SOL     OW23087   4.534   0.755   6.964  0.5986  0.1357 -0.0003
 7415SOL    HW123088   4.534   0.810   7.042  2.1331 -0.1494  0.2392
 7415SOL    HW223089   4.617   0.776   6.921  0.8896 -1.4589 -0.2737
 7416SOL     OW23090   6.331   6.935   3.300 -0.0428  0.3891  0.0296
 7416SOL    HW123091   6.285   6.858   3.334 -0.6842  1.0016  0.5567
 7416SOL    HW223092   6.424   6.915   3.314 -0.1133 -0.8443 -1.0082
 7417SOL     OW23093   2.335   5.225   7.648  0.2017  0.6503  0.3992
 7417SOL    HW123094   2.375   5.231   7.561  1.2787 -0.3494  0.7978
 7417SOL    HW223095   2.293   5.311   7.661 -0.3150  0.6900 -1.2415
 7418SOL     OW23096   6.465   0.182   1.823  0.5575  0.3162 -0.3590
 7418SOL    HW123097   6.512   0.206   1.903  0.2963  1.4766 -0.5387
 7418SOL    HW223098   6.376   0.163   1.852  0.7138 -0.2806 -0.2462
 7419SOL     OW23099   1.638   5.301   5.151 -0.0902  0.7645 -0.1755
 7419SOL    HW123100   1.567   5.347   5.195  1.6597  2.2495  1.2789
 7419SOL    HW223101   1.685   5.369   5.102  1.2424  0.1671  0.2006
 7420SOL     OW23102   4.071   6.770   5.774  0.5259  0.2650  0.4086
 7420SOL    HW123103   4.043   6.857   5.747 -0.6278 -0.2530 -0.1248
 7420SOL    HW223104   4.120   6.784   5.855 -0.5155  1.2916  0.8821
 7421SOL     OW23105   5.819   0.978   6.890  0.2660 -0.0814 -0.0476
 7421SOL    HW123106   5.793   1.055   6.940  0.3205 -0.0114 -0.1277
 7421SOL    HW223107   5.778   0.989   6.804 -1.3166 -1.0715  0.5361
 7422SOL     OW23108   4.142   3.753   7.731 -0.6157 -0.1267 -0.0260
 7422SOL    HW123109   4.089   3.818   7.778  0.9418  0.3100  1.2263
 7422SOL    HW223110   4.078   3.697   7.687 -2.0303  1.7412 -0.4734
 7423SOL     OW23111   2.303   2.957   3.117  0.0186 -0.6726  0.0334
 7423SOL    HW123112   2.221   2.994   3.150  0.9001  0.5319  0.9500
 7423SOL    HW223113   2.350   2.928   3.195  2.1441  2.2387 -0.0120
 7424SOL     OW23114   0.186   6.706   5.686 -0.1874  0.4775 -0.2410
 7424SOL    HW123115   0.091   6.720   5.686 -0.0530  1.6235 -1.3243
 7424SOL    HW223116   0.208   6.692   5.594  0.7401  0.5411 -0.0376
 7425SOL     OW23117   3.519   8.176   2.251  0.1393 -0.0713 -0.1335
 7425SOL    HW123118   3.498   8.269   2.259 -1.6938 -0.3356 -1.1404
 7425SOL    HW223119   3.435   8.131   2.263  0.8070 -1.5346 -0.6088
 7426SOL     OW23120   1.168   6.373   3.109 -0.0838 -0.2864  0.4638
 7426SOL    HW123121   1.200   6.314   3.041  1.0607  0.1079  0.6438
 7426SOL    HW223122   1.075   6.384   3.089  0.1206 -0.5806 -0.7268
 7427SOL     OW23123   0.566   0.678   4.419  0.3749  0.1466  0.0417
 7427SOL    HW123124   0.480   0.660   4.457  0.5525 -0.6626  0.0800
 7427SOL    HW223125   0.547   0.724   4.337 -0.1145 -0.3296 -0.1173
 7428SOL     OW23126   5.427   0.494   5.492 -0.1994  0.5347  0.8650
 7428SOL    HW123127   5.373   0.467   5.566 -0.8048  0.7604  0.5146
 7428SOL    HW223128   5.387   0.450   5.416  2.0998 -2.0610  0.9940
 7429SOL     OW23129   8.067   6.855   4.983  0.4242  0.2475  0.0171
 7429SOL    HW123130   7.976   6.881   4.974  0.7075  1.1888 -0.1952
 7429SOL    HW223131   8.063   6.763   5.009 -0.5695  0.1149 -0.5703
 7430SOL     OW23132   3.457   0.251   5.156 -0.3520  0.0351 -0.2424
 7430SOL    HW123133   3.550   0.240   5.173 -0.0788 -0.6131 -1.9453
 7430SOL    HW223134   3.428   0.318   5.218  1.1415 -0.0645  0.5911
 7431SOL     OW23135   6.274   7.852   4.034  0.0799  0.1749  0.3175
 7431SOL    HW123136   6.196   7.893   3.998 -0.3842 -0.9205  0.0499
 7431SOL    HW223137   6.330   7.926   4.060 -2.1105  1.0790  2.9513
 7432SOL     OW23138   1.207   7.275   6.700 -0.2054 -0.0546 -0.5600
 7432SOL    HW123139   1.259   7.315   6.631  1.1910 -0.7965  0.0001
 7432SOL    HW223140   1.256   7.293   6.780 -0.9757 -0.5328  0.0377
 7433SOL     OW23141   3.863   5.837   0.427  0.4457 -0.2177 -0.5942
 7433SOL    HW123142   3.903   5.922   0.443 -1.0280  0.3613  0.1294
 7433SOL    HW223143   3.815   5.848   0.345  0.7589 -0.5439 -0.8248
 7434SOL     OW23144   4.851   6.001   6.266 -0.1122 -0.1184  1.0025
 7434SOL    HW123145   4.840   6.033   6.176 -0.6798  0.4571  1.2694
 7434SOL    HW223146   4.821   5.910   6.262  0.6705 -0.3625  0.4321
 7435SOL     OW23147   4.509   1.682   3.177 -0.2208  0.0371 -0.3024
 7435SOL    HW123148   4.452   1.682   3.100 -0.2585  1.7415 -0.3241
 7435SOL    HW223149   4.577   1.746   3.156  0.7978 -0.8049  0.3642
 7436SOL     OW23150   7.368   2.737   6.855 -0.1936 -0.0924 -0.1923
 7436SOL    HW123151   7.339   2.704   6.940  2.8765 -0.4323  0.8522
 7436SOL    HW223152   7.433   2.674   6.826  1.0714  1.6428 -1.2869
 7437SOL     OW23153   5.728   3.071   4.117 -0.3798 -0.2207 -0.3847
 7437SOL    HW123154   5.753   3.110   4.201  1.7990 -0.2107 -0.9875
 7437SOL    HW223155   5.663   3.004   4.140 -0.0207 -0.0475  1.2673
 7438SOL     OW23156   4.938   8.211   7.334  0.4419  1.0200  0.1181
 7438SOL    HW123157   4.913   8.260   7.256  0.0928  0.0209 -0.4256
 7438SOL    HW223158   5.016   8.161   7.308 -0.3502 -0.2147  0.0046
 7439SOL     OW23159   3.660   5.125   6.904  0.3468 -0.0642  0.4069
 7439SOL    HW123160   3.581   5.178   6.895 -0.2488 -0.8931  0.7220
 7439SOL    HW223161   3.729   5.189   6.921 -0.0785  0.7530 -0.7801
 7440SOL     OW23162   0.218   0.310   0.280  0.0151 -0.3462 -0.1011
 7440SOL    HW123163   0.305   0.290   0.245 -0.1815 -1.2026 -0.1166
 7440SOL    HW223164   0.206   0.247   0.350 -1.0449 -0.9732 -0.8234
 7441SOL     OW23165   7.173   7.862   1.268  0.3729 -0.6722 -0.0522
 7441SOL    HW123166   7.151   7.769   1.274 -1.7504 -0.2048  0.2620
 7441SOL    HW223167   7.165   7.894   1.358  2.1658 -0.3579  0.0367
 7442SOL     OW23168   5.653   3.613   3.146  0.1898  0.0643 -0.2094
 7442SOL    HW123169   5.655   3.624   3.051  2.4824 -0.8077 -0.3290
 7442SOL    HW223170   5.741   3.581   3.168 -1.0073 -2.0233  1.9327
 7443SOL     OW23171   7.821   7.052   7.123  0.5464  0.3017  0.2515
 7443SOL    HW123172   7.889   7.066   7.058  0.7003  2.4091  0.7962
 7443SOL    HW223173   7.775   7.136   7.128 -3.0634 -1.3641 -1.1246
 7444SOL     OW23174   4.834   3.450   7.507 -0.1898  0.0172  0.0887
 7444SOL    HW123175   4.897   3.408   7.565  1.2079  0.0079 -1.3755
 7444SOL    HW223176   4.763   3.478   7.565  0.5676 -1.0777  1.6055
 7445SOL     OW23177   4.111   7.370   2.674 -0.0279  0.3640  0.0983
 7445SOL    HW123178   4.063   7.366   2.757  0.9272 -0.1352  0.6513
 7445SOL    HW223179   4.168   7.446   2.683 -1.3311  1.5199 -0.9312
 7446SOL     OW23180   8.089   8.123   3.032  0.3293 -0.1445 -0.1206
 7446SOL    HW123181   8.067   8.141   2.941  0.6448  1.0094  0.0158
 7446SOL    HW223182   8.132   8.038   3.030  3.6553  1.4026 -1.6042
 7447SOL     OW23183   3.271   4.787   0.398  0.3850  0.4378 -0.2635
 7447SOL    HW123184   3.361   4.764   0.377  0.4498 -0.1858  0.6368
 7447SOL    HW223185   3.218   4.729   0.344  0.5279 -2.8794  2.7571
 7448SOL     OW23186   3.451   0.214   3.655  0.1083 -0.2407  0.1965
 7448SOL    HW123187   3.508   0.137   3.660  2.8874  1.7274  0.8349
 7448SOL    HW223188   3.445   0.245   3.745  0.1692  1.0538 -0.2315
 7449SOL     OW23189   1.213   7.365   3.917  0.1029  0.8417 -0.3277
 7449SOL    HW123190   1.135   7.318   3.947  1.5583 -2.7512 -1.6746
 7449SOL    HW223191   1.260   7.388   3.998 -0.0338 -1.3089  0.4135
 7450SOL     OW23192   1.625   6.588   5.772  0.4465 -0.5626  0.0967
 7450SOL    HW123193   1.542   6.617   5.810  0.7018  3.3558 -1.8334
 7450SOL    HW223194   1.599   6.529   5.701 -1.0482  2.2988 -1.9413
 7451SOL     OW23195   3.594   7.552   7.674 -0.4553 -0.5173  0.3225
 7451SOL    HW123196   3.643   7.469   7.670 -1.6177 -1.2160  0.1948
 7451SOL    HW223197   3.527   7.536   7.740 -3.2355 -1.1123 -2.4201
 7452SOL     OW23198   2.101   5.702   5.890 -0.0835 -0.0707  0.4429
 7452SOL    HW123199   2.129   5.661   5.808 -1.6828 -1.4012  0.5199
 7452SOL    HW223200   2.044   5.638   5.931 -1.9633  1.8718  1.0312
 7453SOL     OW23201   1.641   5.730   2.268 -0.3230  0.7970 -0.5133
 7453SOL    HW123202   1.611   5.715   2.178 -0.5058  0.9648 -0.4792
 7453SOL    HW223203   1.732   5.759   2.258  0.7177 -2.0631 -0.5200
 7454SOL     OW23204   3.462   1.778   5.074  0.0622 -0.4356 -0.1932
 7454SOL    HW123205   3.475   1.732   5.157  1.1634 -0.3988 -0.3248
 7454SOL    HW223206   3.545   1.765   5.027  0.0140  0.8228 -0.6479
 7455SOL     OW23207   5.101   2.516   5.184  0.7795 -0.3200  0.5169
 7455SOL    HW123208   5.113   2.486   5.274  2.7665  0.2024  0.4697
 7455SOL    HW223209   5.189   2.523   5.149  0.0492 -0.8296 -1.6075
 7456SOL     OW23210   6.774   2.529   3.047  0.0410  0.3289  0.1232
 7456SOL    HW123211   6.713   2.603   3.045  2.1918  2.2065 -1.4225
 7456SOL    HW223212   6.782   2.502   2.955  0.6326 -0.6891  0.4580
 7457SOL     OW23213   7.464   5.584   5.064 -0.7790  0.1132 -0.0070
 7457SOL    HW123214   7.483   5.642   5.137 -0.1787  1.3696 -1.1124
 7457SOL    HW223215   7.545   5.536   5.049 -0.7186  0.2803 -0.2161
 7458SOL     OW23216   2.245   6.702   7.148  0.5215  0.2638  0.0928
 7458SOL    HW123217   2.258   6.728   7.057 -0.5531 -1.2521 -0.5258
 7458SOL    HW223218   2.333   6.683   7.181  0.9253  0.9549 -0.5759
 7459SOL     OW23219   1.567   4.723   7.190 -0.2187 -0.4425 -0.1986
 7459SOL    HW123220   1.600   4.730   7.279  0.7017  0.5605 -0.5977
 7459SOL    HW223221   1.525   4.808   7.173 -1.5193 -1.0853 -0.2888
 7460SOL     OW23222   1.098   3.020   4.493  0.1323  0.1210  0.2737
 7460SOL    HW123223   1.030   3.042   4.428 -0.2796 -0.2423  0.5767
 7460SOL    HW223224   1.098   3.093   4.554  0.1667  0.2240  0.1509
 7461SOL     OW23225   4.456   7.700   7.259  0.0965  0.3079  0.3309
 7461SOL    HW123226   4.417   7.617   7.285 -2.1155  1.0951 -0.2517
 7461SOL    HW223227   4.497   7.682   7.174 -2.0404  0.1899 -0.7429
 7462SOL     OW23228   6.220   6.426   3.099  0.0414 -0.1946  0.0318
 7462SOL    HW123229   6.147   6.437   3.159  0.0710 -2.4939  0.5792
 7462SOL    HW223230   6.179   6.421   3.012 -0.1103  1.8148 -0.0523
 7463SOL     OW23231   1.988   4.376   6.852  0.4154  0.8172  0.1952
 7463SOL    HW123232   2.019   4.418   6.932  1.0235 -0.0086  0.4067
 7463SOL    HW223233   1.913   4.324   6.881 -0.0001  1.3145  0.0318
 7464SOL     OW23234   1.297   1.240   1.460  0.4017  0.6674  0.0627
 7464SOL    HW123235   1.210   1.205   1.474  1.0901 -1.0168  0.3952
 7464SOL    HW223236   1.332   1.254   1.549  0.2727  1.9220 -0.0619
 7465SOL     OW23237   8.186   8.026   5.862 -0.1040 -0.1067  0.0588
 7465SOL    HW123238   8.114   8.055   5.918  0.3725  0.9608  0.1323
 7465SOL    HW223239   8.263   8.071   5.895  0.6033 -1.1807 -0.0661
 7466SOL     OW23240   3.359   5.037   2.691  0.4684 -0.1600 -0.1581
 7466SOL    HW123241   3.413   5.066   2.765  1.6857  0.3966 -1.2209
 7466SOL    HW223242   3.287   5.100   2.689  1.0376  0.5170 -0.1071
 7467SOL     OW23243   4.672   6.317   7.829  0.3575 -0.4372 -0.3765
 7467SOL    HW123244   4.619   6.323   7.909 -1.5230 -1.6546 -1.4422
 7467SOL    HW223245   4.620   6.262   7.771  2.0963 -0.3240 -2.1265
 7468SOL     OW23246   7.515   3.106   0.198 -0.1135  0.1971 -0.0745
 7468SOL    HW123247   7.441   3.080   0.144  0.3480  0.4697 -0.8594
 7468SOL    HW223248   7.541   3.026   0.243  0.4870 -0.4375 -1.4780
 7469SOL     OW23249   6.688   1.743   0.966  0.1970  0.2589 -0.1400
 7469SOL    HW123250   6.731   1.824   0.938 -0.9416  0.1083 -2.5757
 7469SOL    HW223251   6.734   1.674   0.918  1.2244 -0.6125  1.9879
 7470SOL     OW23252   4.638   1.748   8.122  0.0319  0.0925  0.4085
 7470SOL    HW123253   4.708   1.813   8.110 -0.8486  0.9378 -0.3510
 7470SOL    HW223254   4.667   1.672   8.073  0.3248  0.5210 -0.0945
 7471SOL     OW23255   4.075   5.274   1.256  0.2225 -0.3191  0.5507
 7471SOL    HW123256   4.074   5.190   1.303  0.0291 -1.3124 -1.1535
 7471SOL    HW223257   4.014   5.261   1.183  1.5901  0.6597 -0.8214
 7472SOL     OW23258   0.981   3.022   0.744  0.4206  0.1589 -0.2042
 7472SOL    HW123259   0.901   3.074   0.753 -1.1266 -2.1459  0.1573
 7472SOL    HW223260   0.966   2.969   0.666  1.6750 -0.2338 -0.1961
 7473SOL     OW23261   3.621   3.385   3.890 -0.4331 -0.1290 -0.2039
 7473SOL    HW123262   3.655   3.411   3.805  0.0406  1.1382  0.3563
 7473SOL    HW223263   3.632   3.290   3.892 -0.9657 -0.2558 -1.7616
 7474SOL     OW23264   7.744   4.843   5.861 -0.0513 -0.3918 -0.1662
 7474SOL    HW123265   7.655   4.810   5.851 -0.3427  0.5423 -0.7838
 7474SOL    HW223266   7.781   4.840   5.773  0.9878 -1.9729  0.2816
 7475SOL     OW23267   7.958   6.475   5.877  0.2940  0.2424  0.7213
 7475SOL    HW123268   8.001   6.392   5.859 -2.3106 -1.0459 -0.1533
 7475SOL    HW223269   7.937   6.511   5.791 -1.0272  0.3899  1.0713
 7476SOL     OW23270   1.262   2.081   7.319  0.0804  0.0814 -0.5301
 7476SOL    HW123271   1.171   2.110   7.326  0.1620  0.0467  1.0191
 7476SOL    HW223272   1.312   2.161   7.307 -0.0317  0.2611  0.1416
 7477SOL     OW23273   8.104   4.900   2.575 -0.1007 -0.2219  0.6277
 7477SOL    HW123274   8.164   4.974   2.565 -0.8632  0.6203  1.8823
 7477SOL    HW223275   8.019   4.941   2.592 -0.5131 -1.3723  1.4865
 7478SOL     OW23276   4.523   5.592   7.161  0.0737 -0.1922  0.1914
 7478SOL    HW123277   4.610   5.618   7.132  1.2370 -3.4019  0.4084
 7478SOL    HW223278   4.463   5.652   7.117  2.3283  1.6446 -0.5243
 7479SOL     OW23279   1.945   6.945   0.531  0.1821  0.3372 -0.1500
 7479SOL    HW123280   2.038   6.929   0.516  0.1974  0.0390  0.2478
 7479SOL    HW223281   1.943   7.005   0.605  0.0608  0.3949 -0.2004
 7480SOL     OW23282   0.702   8.144   4.916 -0.3864  1.0850 -0.0565
 7480SOL    HW123283   0.679   8.093   4.994 -1.2965  1.9501  0.2555
 7480SOL    HW223284   0.693   8.235   4.943  1.4565  1.4445 -0.5500
 7481SOL     OW23285   4.089   7.761   3.536  0.6263  0.0570 -0.0933
 7481SOL    HW123286   4.166   7.706   3.525  0.4465 -0.0080 -1.0404
 7481SOL    HW223287   4.123   7.840   3.579  1.0566 -0.3402  0.3134
 7482SOL     OW23288   6.156   5.404   7.856  0.2461 -0.4120  0.3053
 7482SOL    HW123289   6.102   5.372   7.784  2.4845  0.8852 -2.0687
 7482SOL    HW223290   6.197   5.325   7.892  0.8651 -0.9019 -1.3775
 7483SOL     OW23291   1.836   1.368   4.901 -0.7762 -0.4921  0.2624
 7483SOL    HW123292   1.803   1.300   4.843 -0.0384 -0.9096  0.3120
 7483SOL    HW223293   1.910   1.406   4.853 -0.8570 -0.0765  0.4599
 7484SOL     OW23294   4.159   1.770   5.334  0.2534 -0.1521  0.1610
 7484SOL    HW123295   4.220   1.815   5.275  0.5342 -0.8386 -0.0874
 7484SOL    HW223296   4.118   1.840   5.385  0.5858  0.3892 -0.3034
 7485SOL     OW23297   5.776   1.641   7.973 -0.0260 -0.4306 -0.0568
 7485SOL    HW123298   5.761   1.590   7.894  1.9730 -2.0744  0.5471
 7485SOL    HW223299   5.868   1.666   7.969  0.2625 -1.0135  1.9819
 7486SOL     OW23300   1.291   3.387   4.879  0.1341 -0.1475  0.3466
 7486SOL    HW123301   1.354   3.338   4.932  1.5547  1.0280 -0.1991
 7486SOL    HW223302   1.322   3.477   4.882 -0.7726  0.2379 -1.0144
 7487SOL     OW23303   6.227   0.401   0.473  0.0888  0.6211  0.2163
 7487SOL    HW123304   6.295   0.336   0.490 -1.0297 -0.6624 -0.0708
 7487SOL    HW223305   6.267   0.460   0.409  0.5951 -0.6953 -0.7381
 7488SOL     OW23306   2.198   0.630   5.517  0.1573  0.5409  0.3076
 7488SOL    HW123307   2.184   0.552   5.463  1.3841  1.4938 -1.4548
 7488SOL    HW223308   2.241   0.596   5.596 -3.3149 -1.1444  1.7377
 7489SOL     OW23309   3.791   6.293   6.241  0.1925  0.3614  0.6404
 7489SOL    HW123310   3.835   6.350   6.178  1.2390 -1.3211 -0.2340
 7489SOL    HW223311   3.731   6.241   6.189 -0.7116  0.6007  1.4187
 7490SOL     OW23312   3.691   8.168   7.191 -0.2011  0.4480  0.3116
 7490SOL    HW123313   3.774   8.215   7.183  0.5112 -1.0597 -2.4262
 7490SOL    HW223314   3.636   8.225   7.245  1.8188  2.5920  0.2544
 7491SOL     OW23315   0.979   0.590   1.957 -0.7306  0.4026 -0.3301
 7491SOL    HW123316   1.012   0.519   2.013 -0.8236  0.7541  0.1823
 7491SOL    HW223317   0.993   0.559   1.868 -0.0504  0.0685 -0.1147
 7492SOL     OW23318   8.180   1.167   2.786  0.2303  0.5636  0.8115
 7492SOL    HW123319   8.129   1.236   2.743  0.6898  0.9661  0.8927
 7492SOL    HW223320   8.121   1.129   2.851 -0.0988  0.7291  0.6114
 7493SOL     OW23321   7.714   7.743   4.208 -0.4536 -0.1032  0.5905
 7493SOL    HW123322   7.660   7.753   4.129 -0.2269  2.5361  0.6902
 7493SOL    HW223323   7.804   7.755   4.177 -0.2785 -0.1577  1.0731
 7494SOL     OW23324   4.215   7.482   2.946  0.4671 -0.5205 -0.2506
 7494SOL    HW123325   4.206   7.548   3.014  2.0599  0.1076 -0.5883
 7494SOL    HW223326   4.250   7.529   2.871  0.1124 -1.4637 -1.0403
 7495SOL     OW23327   0.746   6.600   1.773  0.0367  0.0326 -0.1147
 7495SOL    HW123328   0.829   6.562   1.802  0.5206  0.5985 -0.7371
 7495SOL    HW223329   0.712   6.537   1.710 -1.0078 -1.1912  1.6129
 7496SOL     OW23330   1.686   4.313   7.438  0.1427  0.2321 -0.0862
 7496SOL    HW123331   1.677   4.361   7.356  0.8808 -0.6101 -0.6927
 7496SOL    HW223332   1.661   4.375   7.506 -0.2504  1.0233 -0.9337
 7497SOL     OW23333   3.048   4.963   6.344 -0.3075  0.0997  0.2530
 7497SOL    HW123334   3.034   5.054   6.321 -0.4423  0.7824  2.7074
 7497SOL    HW223335   3.142   4.958   6.365 -0.4160 -0.1766  0.6835
 7498SOL     OW23336   5.881   5.279   5.050  0.0904 -0.3159 -0.1977
 7498SOL    HW123337   5.937   5.354   5.066 -0.4765 -0.2965  2.0687
 7498SOL    HW223338   5.815   5.310   4.988  0.9018  0.5060 -0.6546
 7499SOL     OW23339   4.822   4.271   4.417 -0.1097  0.0078 -0.3654
 7499SOL    HW123340   4.730   4.246   4.413  0.1818 -1.4387  0.9301
 7499SOL    HW223341   4.862   4.207   4.476  1.5092  1.2914  0.0045
 7500SOL     OW23342   3.367   4.100   3.920 -0.3098 -0.3283  0.1103
 7500SOL    HW123343   3.288   4.055   3.889 -0.8613  1.1452 -0.7250
 7500SOL    HW223344   3.432   4.031   3.931 -1.1334 -1.3240 -1.0780
 7501SOL     OW23345   0.360   4.703   2.499 -0.6251  0.6721 -0.0472
 7501SOL    HW123346   0.382   4.620   2.457 -1.6987  0.8201 -0.9534
 7501SOL    HW223347   0.444   4.741   2.522 -0.1143 -1.9911  3.1548
 7502SOL     OW23348   7.823   1.629   0.995  0.1824 -0.5263 -0.0209
 7502SOL    HW123349   7.835   1.699   0.932 -1.2683  2.1778  2.4261
 7502SOL    HW223350   7.779   1.560   0.947  1.3790  0.3344 -2.4924
 7503SOL     OW23351   2.573   4.118   8.179 -0.1844  0.3185 -0.1073
 7503SOL    HW123352   2.537   4.181   8.118 -1.2784  0.6124  0.8110
 7503SOL    HW223353   2.649   4.081   8.134 -0.9976  0.4731 -1.6485
 7504SOL     OW23354   7.651   7.241   3.039  0.0881  0.5105 -0.9809
 7504SOL    HW123355   7.692   7.180   2.977 -0.4653 -0.9873  0.0590
 7504SOL    HW223356   7.708   7.317   3.039  1.6495 -0.6141 -1.2151
 7505SOL     OW23357   1.671   0.460   7.464 -0.2186  0.3302 -0.3644
 7505SOL    HW123358   1.617   0.385   7.486  0.5751 -0.1297  0.0742
 7505SOL    HW223359   1.724   0.430   7.390  0.0950  0.4584 -0.1921
 7506SOL     OW23360   0.202   6.206   4.028  0.3254  0.3773  0.3184
 7506SOL    HW123361   0.172   6.270   3.963 -0.1895 -0.8929 -0.7229
 7506SOL    HW223362   0.142   6.218   4.102 -0.7691  0.0373 -0.4930
 7507SOL     OW23363   8.124   1.340   7.763 -0.2679  0.3946  0.5193
 7507SOL    HW123364   8.117   1.287   7.683  1.0025 -0.3374  0.8613
 7507SOL    HW223365   8.035   1.373   7.778 -0.6078  0.2381 -0.9772
 7508SOL     OW23366   7.268   6.013   0.557  0.1112 -0.3104 -0.0916
 7508SOL    HW123367   7.299   5.980   0.472 -0.0449 -0.0568 -0.2506
 7508SOL    HW223368   7.239   6.103   0.538 -1.7172 -0.8754 -0.1876
 7509SOL     OW23369   4.219   1.763   4.789 -0.3860  0.5083 -0.4158
 7509SOL    HW123370   4.279   1.700   4.750 -0.5796  0.2955 -0.3743
 7509SOL    HW223371   4.134   1.720   4.786  0.1066 -1.1372  3.5663
 7510SOL     OW23372   7.383   6.735   5.507 -0.3033  0.0596 -0.6195
 7510SOL    HW123373   7.342   6.798   5.449 -2.4306  0.2722  0.9959
 7510SOL    HW223374   7.311   6.679   5.537  0.5400  0.3359  2.2478
 7511SOL     OW23375   0.450   7.017   0.849 -0.4627 -0.4042 -0.5167
 7511SOL    HW123376   0.384   6.987   0.912 -0.5511 -0.8602 -0.8290
 7511SOL    HW223377   0.530   6.970   0.874  0.2521  1.4760  1.0104
 7512SOL     OW23378   4.778   0.491   3.676  0.2066 -0.1263 -0.0596
 7512SOL    HW123379   4.873   0.489   3.660 -0.1207 -1.5437 -2.2715
 7512SOL    HW223380   4.745   0.411   3.636 -2.0441  0.7086 -0.0347
 7513SOL     OW23381   3.214   1.023   6.163 -0.5347 -0.4469 -0.1841
 7513SOL    HW123382   3.191   1.084   6.092 -0.8729  0.9082  1.0438
 7513SOL    HW223383   3.203   0.937   6.124  0.6847  0.2408 -2.2285
 7514SOL     OW23384   1.661   1.771   2.485 -0.1461  0.1508 -0.0751
 7514SOL    HW123385   1.578   1.796   2.444 -0.1499 -0.0652 -0.1997
 7514SOL    HW223386   1.637   1.725   2.565 -0.1475  0.0222 -0.1495
 7515SOL     OW23387   3.797   5.595   2.388 -0.1007  0.5606 -0.2099
 7515SOL    HW123388   3.743   5.537   2.335  0.1213 -0.5931  0.7894
 7515SOL    HW223389   3.863   5.629   2.327  0.2472 -0.8724 -0.6587
 7516SOL     OW23390   0.764   4.937   3.997  0.1221 -0.2256 -0.3849
 7516SOL    HW123391   0.793   4.894   3.917  1.2753  0.8721 -0.5858
 7516SOL    HW223392   0.811   4.893   4.067 -0.4693 -0.8205 -0.3549
 7517SOL     OW23393   4.436   6.467   5.069 -0.1772  0.1075 -0.5283
 7517SOL    HW123394   4.349   6.458   5.109 -0.3510  1.7833 -0.4223
 7517SOL    HW223395   4.419   6.518   4.989  1.0213  3.4300  1.1476
 7518SOL     OW23396   2.274   6.391   6.421  0.3129 -0.1160 -0.2989
 7518SOL    HW123397   2.285   6.314   6.366 -0.1580 -0.2250 -0.2475
 7518SOL    HW223398   2.352   6.392   6.476 -0.5655 -1.7033  1.0884
 7519SOL     OW23399   3.481   6.404   1.353  0.4618  0.3304 -0.0858
 7519SOL    HW123400   3.425   6.357   1.292  1.0412 -0.4690 -0.0143
 7519SOL    HW223401   3.526   6.469   1.299 -0.5531  1.0137 -0.1354
 7520SOL     OW23402   5.817   3.465   1.960  0.0351 -0.5147 -0.3447
 7520SOL    HW123403   5.827   3.493   2.051 -0.3149  0.6872 -0.6592
 7520SOL    HW223404   5.786   3.543   1.914 -0.0998 -1.1918 -1.4396
 7521SOL     OW23405   5.053   3.662   0.297 -0.4081  0.0617 -0.0345
 7521SOL    HW123406   5.139   3.637   0.262 -0.0157  0.1750  0.8106
 7521SOL    HW223407   4.990   3.622   0.237  0.2282  0.9806 -1.3562
 7522SOL     OW23408   4.920   0.727   4.070  0.4085  0.0895  0.1362
 7522SOL    HW123409   4.882   0.799   4.121  1.4054  0.3933  0.4731
 7522SOL    HW223410   4.951   0.665   4.137  0.9807  0.0988 -0.1189
 7523SOL     OW23411   0.215   0.838   5.240  0.2897  0.0106 -0.1336
 7523SOL    HW123412   0.175   0.899   5.179  1.7805  0.4806 -0.6608
 7523SOL    HW223413   0.141   0.806   5.293 -0.9204  0.1112 -1.6930
 7524SOL     OW23414   1.065   5.922   2.315 -0.2989 -0.5854  0.2408
 7524SOL    HW123415   1.145   5.870   2.324  0.3590 -0.0599 -1.8664
 7524SOL    HW223416   0.995   5.863   2.343  0.8591 -0.5472  3.7013
 7525SOL     OW23417   6.407   0.234   6.529  0.1637 -0.1672  0.4591
 7525SOL    HW123418   6.441   0.147   6.506  0.5618 -0.2187  1.1874
 7525SOL    HW223419   6.415   0.285   6.449 -0.2310 -0.8457 -0.0284
 7526SOL     OW23420   0.995   6.484   1.380 -0.1904 -0.1305 -0.1156
 7526SOL    HW123421   1.048   6.487   1.301 -0.2191  0.5166 -0.1194
 7526SOL    HW223422   0.985   6.576   1.406 -0.4816 -0.3089  0.4359
 7527SOL     OW23423   0.261   3.840   6.040  0.1140 -0.0083 -0.1579
 7527SOL    HW123424   0.244   3.855   5.947  0.9284  0.8217 -0.1861
 7527SOL    HW223425   0.329   3.772   6.041  1.7395  1.5522 -0.2651
 7528SOL     OW23426   6.168   6.120   1.729  0.0103  0.2151 -0.1209
 7528SOL    HW123427   6.101   6.175   1.689 -0.7493  0.6558  1.6447
 7528SOL    HW223428   6.133   6.031   1.724  0.3474  0.1376 -1.2301
 7529SOL     OW23429   3.631   6.387   6.998 -0.4338  0.5764 -0.2804
 7529SOL    HW123430   3.685   6.449   6.949 -1.3600  2.7887  1.3380
 7529SOL    HW223431   3.687   6.310   7.008  1.3333  1.6769 -1.0960
 7530SOL     OW23432   2.928   6.481   2.267 -0.1505 -0.2262  0.2844
 7530SOL    HW123433   2.937   6.574   2.284 -0.3406 -0.0151 -0.6922
 7530SOL    HW223434   2.985   6.438   2.331  1.5892  0.6573 -0.6277
 7531SOL     OW23435   5.202   2.787   3.243  0.3008  0.0048  0.0639
 7531SOL    HW123436   5.220   2.807   3.335  1.6951 -1.1400  0.0718
 7531SOL    HW223437   5.194   2.873   3.201  2.3417  0.5948  0.7720
 7532SOL     OW23438   1.435   4.340   5.265  0.1281 -0.0988 -0.2886
 7532SOL    HW123439   1.389   4.391   5.332  0.4607  1.0257 -0.8909
 7532SOL    HW223440   1.429   4.250   5.295 -2.9422 -0.1030 -0.5877
 7533SOL     OW23441   6.530   1.118   5.222 -0.2737 -0.1234  0.1538
 7533SOL    HW123442   6.435   1.129   5.215 -0.2483 -0.2428 -0.4707
 7533SOL    HW223443   6.540   1.035   5.269 -0.4835 -0.1027  0.2375
 7534SOL     OW23444   3.412   6.136   0.478 -0.4758 -0.2220 -0.2323
 7534SOL    HW123445   3.478   6.087   0.429 -0.7482  0.5856 -1.4371
 7534SOL    HW223446   3.458   6.166   0.556  0.4570 -0.0995 -0.8091
 7535SOL     OW23447   4.101   5.232   6.535  0.2279  0.2903 -0.2717
 7535SOL    HW123448   4.012   5.204   6.556  0.1526  0.5163 -0.2878
 7535SOL    HW223449   4.157   5.172   6.584  0.0489  1.4682  1.4474
 7536SOL     OW23450   5.140   1.704   4.641  0.3740  0.1437 -0.7028
 7536SOL    HW123451   5.218   1.694   4.587  0.2105  0.3528 -0.9802
 7536SOL    HW223452   5.068   1.710   4.579  0.0247 -1.0162 -0.4262
 7537SOL     OW23453   7.606   2.460   6.040 -0.1863  0.0391  0.2984
 7537SOL    HW123454   7.644   2.373   6.028  1.0428  0.6953 -0.8999
 7537SOL    HW223455   7.616   2.503   5.954  0.6398  1.8895  1.2592
 7538SOL     OW23456   5.485   3.348   7.073 -0.0779 -0.1424  0.0534
 7538SOL    HW123457   5.411   3.322   7.018 -1.6329  3.9756 -0.1783
 7538SOL    HW223458   5.447   3.360   7.160  1.2993 -1.9270  0.9438
 7539SOL     OW23459   2.162   2.688   2.416 -0.3146  0.2766 -0.1839
 7539SOL    HW123460   2.159   2.596   2.443 -1.6154  0.3195 -0.1482
 7539SOL    HW223461   2.156   2.737   2.498  1.0089  0.4097 -0.1481
 7540SOL     OW23462   5.514   6.913   5.229 -0.0817 -0.4341  0.2145
 7540SOL    HW123463   5.562   6.899   5.147  1.9904 -1.7038  1.5406
 7540SOL    HW223464   5.470   6.830   5.246  0.5258 -0.6020  1.0049
 7541SOL     OW23465   2.738   6.196   5.818 -0.4938  0.4267  0.0746
 7541SOL    HW123466   2.654   6.153   5.807  0.6333 -1.3386 -2.7122
 7541SOL    HW223467   2.732   6.276   5.765 -0.1815 -0.1189 -0.8005
 7542SOL     OW23468   7.483   6.794   5.240 -0.3489 -0.0303 -0.0250
 7542SOL    HW123469   7.572   6.763   5.223  0.7766  1.0418  3.2710
 7542SOL    HW223470   7.450   6.734   5.307 -1.0979  1.1397  0.6703
 7543SOL     OW23471   2.167   3.970   7.537 -0.4471 -0.0187 -0.6452
 7543SOL    HW123472   2.146   4.026   7.461  0.9324 -2.2384 -2.8154
 7543SOL    HW223473   2.252   4.001   7.567 -0.5414  0.2354 -0.6394
 7544SOL     OW23474   6.675   3.737   6.270  0.0531  0.2204  0.4325
 7544SOL    HW123475   6.636   3.754   6.356  0.3767 -0.1234  0.6512
 7544SOL    HW223476   6.725   3.656   6.282 -0.1100  0.0299 -0.1502
 7545SOL     OW23477   0.412   0.714   2.492 -0.0332  0.4925  0.2381
 7545SOL    HW123478   0.419   0.795   2.543  2.7141 -1.2416  2.9417
 7545SOL    HW223479   0.499   0.701   2.455  0.1117 -2.0403  1.2998
 7546SOL     OW23480   1.557   6.574   5.047  0.4189  0.9775 -0.1368
 7546SOL    HW123481   1.497   6.509   5.008  0.7116  1.8393 -2.1714
 7546SOL    HW223482   1.512   6.658   5.034  1.5084  1.5069 -0.5584
 7547SOL     OW23483   1.816   0.929   4.373 -0.1448  0.4620  0.4881
 7547SOL    HW123484   1.847   0.858   4.429  0.5604  0.1525 -0.2735
 7547SOL    HW223485   1.726   0.905   4.352  0.0362 -0.1386  0.3682
 7548SOL     OW23486   1.083   5.086   1.031 -0.1545 -0.3860 -0.0347
 7548SOL    HW123487   1.063   5.004   1.075 -1.0012 -0.8046 -1.1702
 7548SOL    HW223488   1.179   5.085   1.021 -0.1902 -1.4234 -0.3817
 7549SOL     OW23489   4.511   2.602   4.051 -0.1671 -0.8106  0.3462
 7549SOL    HW123490   4.507   2.606   4.147  0.6542 -2.3614  0.4780
 7549SOL    HW223491   4.604   2.594   4.032 -0.3309 -0.5542 -0.5938
 7550SOL     OW23492   0.234   7.480   5.719  0.5631  0.1318 -0.2239
 7550SOL    HW123493   0.283   7.510   5.796  0.6560 -0.8978  0.1307
 7550SOL    HW223494   0.145   7.469   5.750  0.3027  1.0261 -0.6198
 7551SOL     OW23495   3.965   2.086   1.424 -0.5478  0.5704  0.5760
 7551SOL    HW123496   3.899   2.020   1.401 -1.8533  1.2584  2.1501
 7551SOL    HW223497   3.989   2.065   1.514  0.4284  1.1267  0.4529
 7552SOL     OW23498   7.934   2.420   3.209  0.4054  0.9983  0.1490
 7552SOL    HW123499   7.956   2.353   3.144  2.1651 -0.0069  1.6750
 7552SOL    HW223500   7.840   2.435   3.197  0.3509 -0.3389 -1.5144
 7553SOL     OW23501   2.253   7.397   2.569 -0.1905 -0.2906 -0.0512
 7553SOL    HW123502   2.185   7.339   2.603 -1.7998  1.5063 -0.0195
 7553SOL    HW223503   2.234   7.406   2.476  0.3186 -0.1510 -0.1491
 7554SOL     OW23504   1.655   5.503   6.256 -0.5493 -0.1101  0.1621
 7554SOL    HW123505   1.599   5.444   6.205 -0.0950 -0.9993  0.6598
 7554SOL    HW223506   1.606   5.585   6.260 -0.7577 -0.1336 -1.3762
 7555SOL     OW23507   2.061   5.311   0.168 -0.3674  0.0708 -0.5416
 7555SOL    HW123508   2.085   5.250   0.237  2.7231 -0.1899 -1.6969
 7555SOL    HW223509   2.061   5.397   0.210 -0.4100 -0.2813  0.1842
 7556SOL     OW23510   3.636   5.180   4.115  0.0215 -0.5807 -0.3106
 7556SOL    HW123511   3.563   5.234   4.083 -1.7439 -2.3357  0.4974
 7556SOL    HW223512   3.709   5.201   4.057 -1.1429  1.1736 -1.2399
 7557SOL     OW23513   0.180   7.876   2.014 -0.1806  0.4706 -0.1885
 7557SOL    HW123514   0.107   7.845   2.068 -0.4448  1.2939 -0.0596
 7557SOL    HW223515   0.246   7.807   2.021 -0.9352 -0.2738 -0.2911
 7558SOL     OW23516   4.538   5.867   5.755  0.0855 -0.1485  0.0824
 7558SOL    HW123517   4.476   5.873   5.682  1.1239 -0.5582 -0.8639
 7558SOL    HW223518   4.614   5.918   5.727  0.9713 -1.2613  0.3682
 7559SOL     OW23519   5.281   6.814   3.356  0.2648  0.4190 -0.4404
 7559SOL    HW123520   5.257   6.889   3.410 -0.9669  1.1682 -1.9463
 7559SOL    HW223521   5.369   6.835   3.325  1.4556 -0.5346  2.0521
 7560SOL     OW23522   6.040   6.838   6.456 -0.1895  0.3927 -0.0777
 7560SOL    HW123523   6.018   6.854   6.547  0.8106  0.3516  0.1896
 7560SOL    HW223524   6.025   6.745   6.443 -1.0222  0.5307 -0.1682
 7561SOL     OW23525   3.603   1.558   2.864 -0.7742  0.4065 -0.0837
 7561SOL    HW123526   3.511   1.532   2.862 -0.4503 -0.7554 -0.7392
 7561SOL    HW223527   3.601   1.648   2.896 -2.0170 -0.0578  1.2698
 7562SOL     OW23528   5.686   7.583   0.637 -0.3599  0.4758 -0.2330
 7562SOL    HW123529   5.603   7.609   0.598 -1.1004 -0.7387  0.4634
 7562SOL    HW223530   5.662   7.538   0.718  1.0417  1.0754  0.5499
 7563SOL     OW23531   4.687   4.752   1.653  0.3209  0.5613  0.5115
 7563SOL    HW123532   4.671   4.844   1.631 -0.2622  0.7799  1.7513
 7563SOL    HW223533   4.600   4.713   1.662  0.5374  0.2587  1.4246
 7564SOL     OW23534   4.397   7.477   1.029  1.4029  0.2868  0.5569
 7564SOL    HW123535   4.328   7.535   1.059  0.9569  0.6052 -0.9953
 7564SOL    HW223536   4.456   7.468   1.104 -0.7779 -0.7776  2.2608
 7565SOL     OW23537   8.077   7.052   1.710 -0.2650 -0.5373 -0.2268
 7565SOL    HW123538   8.099   7.021   1.798 -1.8163 -1.4815 -0.1202
 7565SOL    HW223539   8.140   7.122   1.692 -0.0964 -0.1183  1.7578
 7566SOL     OW23540   2.328   3.257   3.014 -0.2044  0.2545 -0.1710
 7566SOL    HW123541   2.373   3.202   2.950  0.6064 -0.3296  0.8676
 7566SOL    HW223542   2.299   3.333   2.964 -1.5088 -1.1577 -1.7064
 7567SOL     OW23543   5.034   4.456   3.006 -0.7265  0.7025  0.6240
 7567SOL    HW123544   5.125   4.484   3.018 -1.5502  4.8152 -1.1692
 7567SOL    HW223545   5.031   4.423   2.916 -0.9836  0.2259  0.8009
 7568SOL     OW23546   1.358   4.845   2.256 -0.7483 -0.0106  0.5267
 7568SOL    HW123547   1.319   4.836   2.169  2.1358  1.1868 -1.0179
 7568SOL    HW223548   1.371   4.756   2.286 -0.6357 -0.4730 -0.8394
 7569SOL     OW23549   0.193   3.256   1.314  0.0507 -0.1480  0.4591
 7569SOL    HW123550   0.132   3.315   1.357  0.5246 -0.3723  1.4619
 7569SOL    HW223551   0.232   3.308   1.245 -1.1638  0.0369 -0.1210
 7570SOL     OW23552   7.211   7.471   7.468  0.2519 -0.1596 -0.2943
 7570SOL    HW123553   7.191   7.556   7.428 -3.8029 -1.9739 -2.7578
 7570SOL    HW223554   7.153   7.466   7.544  1.4851 -0.2908  0.6809
 7571SOL     OW23555   3.400   4.372   3.901  0.3805  0.0735 -0.1992
 7571SOL    HW123556   3.392   4.278   3.920  3.0997  0.0497  1.3802
 7571SOL    HW223557   3.363   4.415   3.978 -0.3500  0.3225 -0.6777
 7572SOL     OW23558   2.284   6.087   5.990 -0.0727 -0.9193 -0.0266
 7572SOL    HW123559   2.277   6.026   6.063 -1.2117 -1.8403 -0.8629
 7572SOL    HW223560   2.208   6.067   5.934 -0.5533  1.3238 -0.2944
 7573SOL     OW23561   4.303   1.834   0.074 -0.5371 -0.4540 -0.0357
 7573SOL    HW123562   4.333   1.747   0.101 -0.4955 -0.5361 -0.3351
 7573SOL    HW223563   4.317   1.835  -0.021 -1.6249 -0.5561 -0.2112
 7574SOL     OW23564   4.046   1.125   1.705 -0.1694  0.0805  0.0425
 7574SOL    HW123565   4.122   1.181   1.690 -0.5942  0.5731 -0.3103
 7574SOL    HW223566   4.021   1.142   1.796 -0.6156  0.8688 -0.2208
 7575SOL     OW23567   2.931   7.644   4.398  0.2682  0.3102  0.5877
 7575SOL    HW123568   2.962   7.592   4.472  0.0646 -3.4305 -1.7104
 7575SOL    HW223569   3.004   7.644   4.336  0.2849  3.0000  0.4910
 7576SOL     OW23570   2.146   7.483   0.845 -0.2286 -0.4080  0.2497
 7576SOL    HW123571   2.210   7.435   0.896 -0.9272 -1.3932  0.2244
 7576SOL    HW223572   2.094   7.532   0.910  0.1200 -0.1283  0.3194
 7577SOL     OW23573   7.809   1.236   4.408  0.1025 -0.2353 -0.1455
 7577SOL    HW123574   7.795   1.142   4.405  1.3729 -0.4134 -1.7068
 7577SOL    HW223575   7.731   1.273   4.366 -1.8622 -0.3108  3.0844
 7578SOL     OW23576   6.754   7.044   0.397  0.2140  0.6916 -0.0737
 7578SOL    HW123577   6.660   7.027   0.402  0.4707 -0.7040  0.7539
 7578SOL    HW223578   6.763   7.137   0.417 -0.9818  0.7964  0.0344
 7579SOL     OW23579   6.998   4.250   4.174 -0.1267 -0.4716 -0.3914
 7579SOL    HW123580   6.926   4.307   4.201 -0.2434 -0.1828 -1.2756
 7579SOL    HW223581   7.076   4.305   4.183 -0.0725 -0.6179  0.0649
 7580SOL     OW23582   1.467   2.325   7.972 -0.2253 -0.3920  0.1757
 7580SOL    HW123583   1.469   2.230   7.959 -1.1594 -0.2917 -0.8345
 7580SOL    HW223584   1.559   2.349   7.985  0.2144 -1.2356 -1.1668
 7581SOL     OW23585   1.648   1.936   7.084  0.0754  0.5860  0.1870
 7581SOL    HW123586   1.623   2.007   7.024 -0.0288 -0.1264 -0.6249
 7581SOL    HW223587   1.682   1.868   7.027  1.4575  0.5117  1.0771
 7582SOL     OW23588   7.406   1.606   3.013  0.3553 -0.0107  0.0493
 7582SOL    HW123589   7.481   1.583   2.958  1.0599  0.8543  0.6260
 7582SOL    HW223590   7.341   1.538   2.995  0.7718 -0.0396 -1.4483
 7583SOL     OW23591   7.162   7.013   2.794  0.0195  0.6798 -0.4834
 7583SOL    HW123592   7.083   7.052   2.831 -0.4822  1.1887 -2.0630
 7583SOL    HW223593   7.203   6.969   2.869 -1.9958 -0.0362  0.2825
 7584SOL     OW23594   7.076   4.343   2.932  0.1044  0.5120 -0.7917
 7584SOL    HW123595   7.126   4.263   2.914 -0.9026 -0.4682  0.4926
 7584SOL    HW223596   7.020   4.355   2.856  0.8561  0.4855 -1.3609
 7585SOL     OW23597   4.209   1.650   4.528  0.0649  0.2981 -0.3718
 7585SOL    HW123598   4.262   1.728   4.512  0.7273  0.6050  2.6806
 7585SOL    HW223599   4.265   1.577   4.503  1.2404  0.6947  0.9608
 7586SOL     OW23600   7.471   1.650   5.683 -0.2532 -0.1924 -0.0118
 7586SOL    HW123601   7.400   1.639   5.619  1.0296  1.4526 -1.8200
 7586SOL    HW223602   7.456   1.736   5.721  0.9127  0.2903 -0.6096
 7587SOL     OW23603   1.702   1.216   1.172  0.3057 -0.4142  0.5853
 7587SOL    HW123604   1.722   1.309   1.168  1.5431 -0.6793 -0.0540
 7587SOL    HW223605   1.632   1.209   1.236 -0.8445  1.1121 -0.4368
 7588SOL     OW23606   4.329   4.489   7.084 -0.1266 -0.4734 -0.4551
 7588SOL    HW123607   4.359   4.529   7.165 -0.7469  0.1228 -0.5061
 7588SOL    HW223608   4.291   4.405   7.111 -1.3292  0.2035  0.0333
 7589SOL     OW23609   3.076   2.509   3.924 -0.1235 -0.0652  0.1286
 7589SOL    HW123610   3.075   2.420   3.959  1.0645  0.0350  0.4578
 7589SOL    HW223611   3.041   2.564   3.994  3.0421  0.2538  1.6127
 7590SOL     OW23612   5.866   5.256   8.028 -0.1208 -0.0155 -0.6605
 7590SOL    HW123613   5.788   5.249   8.084  1.1054  0.9367  1.3139
 7590SOL    HW223614   5.913   5.174   8.042  0.0685  0.1254 -0.4509
 7591SOL     OW23615   1.638   2.279   2.629  0.0450  0.3552 -0.4096
 7591SOL    HW123616   1.596   2.328   2.700 -0.2209  1.3789 -1.2532
 7591SOL    HW223617   1.586   2.298   2.552  0.1190 -1.0397 -0.8353
 7592SOL     OW23618   7.357   3.456   0.430 -0.3308  0.6565  0.7879
 7592SOL    HW123619   7.404   3.379   0.464 -2.2643  0.4305  3.1992
 7592SOL    HW223620   7.314   3.424   0.351 -0.7031 -0.6454  1.4788
 7593SOL     OW23621   5.497   7.233   6.909  0.3329  0.4742 -0.2082
 7593SOL    HW123622   5.453   7.308   6.950  0.0463  0.5758 -0.6941
 7593SOL    HW223623   5.461   7.156   6.954  0.2652  0.5992 -0.0461
 7594SOL     OW23624   3.581   5.904   7.058 -0.4091 -0.1571  0.2642
 7594SOL    HW123625   3.646   5.930   6.993 -1.0198 -0.8458 -0.6573
 7594SOL    HW223626   3.626   5.838   7.112 -0.2747 -0.4812 -0.2373
 7595SOL     OW23627   1.657   4.615   0.358 -0.4095  0.0192  0.3866
 7595SOL    HW123628   1.576   4.574   0.326 -0.2980 -0.7831  1.0769
 7595SOL    HW223629   1.718   4.542   0.369 -0.5122  0.2109  2.5912
 7596SOL     OW23630   4.764   2.886   6.323 -0.6097  0.3730 -0.0356
 7596SOL    HW123631   4.765   2.890   6.419 -3.2325 -0.7262  0.1345
 7596SOL    HW223632   4.701   2.817   6.303  0.8099 -0.2913 -2.5815
 7597SOL     OW23633   0.204   7.209   0.324  0.0297  0.0651  0.0452
 7597SOL    HW123634   0.119   7.244   0.350  0.2775  0.1835  0.7083
 7597SOL    HW223635   0.268   7.257   0.378  0.4620 -0.5475  0.0880
 7598SOL     OW23636   0.742   0.396   3.125  0.9630 -0.1620  0.4319
 7598SOL    HW123637   0.758   0.423   3.034  1.3761  1.3719  0.9416
 7598SOL    HW223638   0.653   0.362   3.124  1.1961 -0.8324 -0.6781
 7599SOL     OW23639   6.685   7.295   5.279 -0.0314 -0.7880  0.2342
 7599SOL    HW123640   6.592   7.313   5.294 -0.2707 -0.8573 -1.0317
 7599SOL    HW223641   6.689   7.200   5.268 -0.0648 -0.6551 -1.1464
 7600SOL     OW23642   6.494   0.141   3.732  0.1359 -0.0645 -0.0385
 7600SOL    HW123643   6.450   0.206   3.786  0.9019 -0.2695  0.8560
 7600SOL    HW223644   6.468   0.057   3.770  0.7079 -0.2092  0.0362
 7601SOL     OW23645   3.331   4.922   8.207 -0.3021  0.1807  0.4369
 7601SOL    HW123646   3.274   4.976   8.262 -0.1657 -0.1698  0.9250
 7601SOL    HW223647   3.285   4.917   8.123 -0.7273  0.3518  0.6554
 7602SOL     OW23648   2.453   2.783   5.293  0.3779 -0.1107  0.2528
 7602SOL    HW123649   2.380   2.843   5.307  0.1453  0.0288 -1.4289
 7602SOL    HW223650   2.444   2.719   5.363 -3.0537 -1.7554 -1.4573
 7603SOL     OW23651   6.145   7.714   6.810  0.3845  0.1383  0.0559
 7603SOL    HW123652   6.067   7.667   6.840  1.3215 -0.9195  0.8858
 7603SOL    HW223653   6.184   7.657   6.744  0.2744  0.8332 -0.6298
 7604SOL     OW23654   4.002   1.488   3.517 -0.3721 -0.0966  0.4551
 7604SOL    HW123655   3.968   1.556   3.575  1.0017  0.5603  0.5247
 7604SOL    HW223656   3.933   1.475   3.452 -0.8005  1.1231  0.6447
 7605SOL     OW23657   5.778   4.305   3.319  0.0423  0.0188  0.4547
 7605SOL    HW123658   5.783   4.392   3.358  1.3683 -0.7937  2.2541
 7605SOL    HW223659   5.828   4.313   3.237 -0.8567  1.1998 -0.0170
 7606SOL     OW23660   1.471   5.155   2.095  0.1521 -0.2308  0.1974
 7606SOL    HW123661   1.520   5.088   2.047  0.6796  0.1331  0.2278
 7606SOL    HW223662   1.495   5.142   2.186  0.9279  0.5502  0.1136
 7607SOL     OW23663   4.174   0.408   6.013 -0.0419 -0.5252 -0.2712
 7607SOL    HW123664   4.158   0.341   6.079  2.5958 -0.0445  0.9898
 7607SOL    HW223665   4.221   0.362   5.943  1.7008 -0.0855  0.5597
 7608SOL     OW23666   4.075   6.984   2.662 -0.1418  0.9324  0.3609
 7608SOL    HW123667   4.057   6.945   2.577  2.2395  0.0770  0.1503
 7608SOL    HW223668   3.996   6.969   2.714 -1.1495  0.3169 -1.2962
 7609SOL     OW23669   3.534   1.960   5.708 -0.3845  0.7192  0.3834
 7609SOL    HW123670   3.625   1.983   5.692  0.0097 -1.8391 -1.9323
 7609SOL    HW223671   3.515   1.994   5.795  1.7765  3.9954 -0.2516
 7610SOL     OW23672   2.205   7.391   5.175  0.0856 -0.0202  0.1155
 7610SOL    HW123673   2.284   7.421   5.131 -0.8281  0.4891 -1.2213
 7610SOL    HW223674   2.225   7.301   5.202  0.6879 -0.3315 -1.3054
 7611SOL     OW23675   0.889   2.278   8.148 -0.2152  0.7453 -0.1982
 7611SOL    HW123676   0.964   2.223   8.126  0.7396  1.4953  0.9999
 7611SOL    HW223677   0.918   2.367   8.128 -0.1981  1.2005  1.6552
 7612SOL     OW23678   0.498   0.671   0.720 -0.0832  0.0250  0.4133
 7612SOL    HW123679   0.503   0.664   0.815 -2.0149  1.1491  0.6562
 7612SOL    HW223680   0.533   0.757   0.700 -0.7371  0.2562  0.2370
 7613SOL     OW23681   5.898   4.942   7.401 -0.4593 -0.1558 -0.1020
 7613SOL    HW123682   5.876   4.944   7.308 -0.3848 -0.0509 -0.1172
 7613SOL    HW223683   5.841   5.008   7.440  2.4745  2.9687 -0.7181
 7614SOL     OW23684   5.904   1.833   2.393 -0.1364  0.2983  0.1903
 7614SOL    HW123685   5.910   1.899   2.324  0.4269 -0.6182 -0.6721
 7614SOL    HW223686   5.823   1.855   2.440 -0.0736  1.4553 -0.2121
 7615SOL     OW23687   6.760   4.233   1.087  0.2062  0.6399  0.1787
 7615SOL    HW123688   6.693   4.219   1.154 -0.6029  2.1274 -0.2520
 7615SOL    HW223689   6.779   4.146   1.052  1.2245 -0.3018  2.8265
 7616SOL     OW23690   3.299   1.315   6.588  0.1435  0.2274 -0.4920
 7616SOL    HW123691   3.206   1.307   6.564 -0.3461  1.5121  0.8589
 7616SOL    HW223692   3.303   1.391   6.646  2.3707  1.4505 -2.0869
 7617SOL     OW23693   8.216   5.155   6.416  0.1598 -0.4621 -0.1912
 7617SOL    HW123694   8.150   5.204   6.368 -0.4092 -2.0577 -1.0973
 7617SOL    HW223695   8.285   5.137   6.352  0.3301 -0.9070  0.1090
 7618SOL     OW23696   5.650   6.708   7.468 -0.8302  0.1457 -0.7422
 7618SOL    HW123697   5.575   6.736   7.415 -1.3249  0.1094 -0.0693
 7618SOL    HW223698   5.677   6.787   7.514 -0.2894  0.2164 -1.1707
 7619SOL     OW23699   8.060   7.881   1.974  0.0837  0.1011  0.3765
 7619SOL    HW123700   7.972   7.843   1.969  0.7992 -1.5618 -3.4091
 7619SOL    HW223701   8.105   7.828   2.039 -0.5199 -2.1650 -0.9105
 7620SOL     OW23702   7.827   0.703   5.649 -0.0398  0.7295  0.3163
 7620SOL    HW123703   7.732   0.700   5.636  0.2230 -0.0054 -1.9246
 7620SOL    HW223704   7.840   0.767   5.719 -2.3577 -1.6583  3.1717
 7621SOL     OW23705   0.468   2.529   7.624 -0.1936 -0.2652 -0.2210
 7621SOL    HW123706   0.519   2.539   7.705  0.2243  1.3268 -0.6406
 7621SOL    HW223707   0.442   2.437   7.623  2.2325 -1.0301  0.2682
 7622SOL     OW23708   5.772   5.413   7.822 -0.6978  0.0905 -0.1049
 7622SOL    HW123709   5.808   5.352   7.886 -0.5652 -1.0997 -1.2668
 7622SOL    HW223710   5.792   5.500   7.857  2.0475 -0.5039  0.0014
 7623SOL     OW23711   0.584   1.232   3.333 -0.1315 -0.1851  0.0732
 7623SOL    HW123712   0.677   1.221   3.349 -0.4147 -0.8937  1.3186
 7623SOL    HW223713   0.552   1.280   3.409 -1.0390 -1.2361  0.3787
 7624SOL     OW23714   1.164   4.271   0.946  0.2039 -0.0431 -0.0344
 7624SOL    HW123715   1.108   4.243   1.019 -0.9784 -1.1693 -1.3307
 7624SOL    HW223716   1.245   4.301   0.988  0.1159 -1.9920  1.6516
 7625SOL     OW23717   4.642   4.039   2.624 -1.1776 -0.0374 -0.0373
 7625SOL    HW123718   4.643   4.018   2.718  1.9301 -0.3371 -0.0079
 7625SOL    HW223719   4.569   3.989   2.588  0.1227 -3.4431  1.5890
 7626SOL     OW23720   6.655   1.333   4.590  0.4114 -0.1559 -0.6246
 7626SOL    HW123721   6.658   1.243   4.624  1.4433  0.9077  2.4449
 7626SOL    HW223722   6.731   1.340   4.533  1.0794 -0.9032  0.1394
 7627SOL     OW23723   5.593   2.179   3.319 -0.5614 -0.6935 -0.0637
 7627SOL    HW123724   5.556   2.266   3.334 -0.4776 -0.7101  0.2509
 7627SOL    HW223725   5.687   2.190   3.334 -0.4313 -0.6547 -0.8483
 7628SOL     OW23726   0.233   1.512   3.619  0.2198 -0.6362 -0.2539
 7628SOL    HW123727   0.145   1.548   3.606  0.6626  0.6940  0.2824
 7628SOL    HW223728   0.239   1.499   3.714  1.2544  1.0933 -0.0428
 7629SOL     OW23729   3.285   6.622   1.694 -0.2853 -0.2251  0.1697
 7629SOL    HW123730   3.311   6.637   1.785 -1.3479 -0.6619  0.5578
 7629SOL    HW223731   3.302   6.529   1.680  0.3897 -0.0427 -0.2581
 7630SOL     OW23732   7.075   5.498   4.507 -0.5384 -0.0212 -0.0209
 7630SOL    HW123733   7.160   5.523   4.543 -1.1692  1.1392  0.7184
 7630SOL    HW223734   7.082   5.518   4.414 -0.1757  0.5408  0.1222
 7631SOL     OW23735   3.560   7.299   3.424  0.3377  0.1903 -0.6050
 7631SOL    HW123736   3.635   7.359   3.422  0.4351  0.1076  0.1889
 7631SOL    HW223737   3.497   7.338   3.363  0.2466  1.3077  0.1703
 7632SOL     OW23738   0.861   2.633   5.807 -0.3172 -0.2188 -0.4279
 7632SOL    HW123739   0.795   2.676   5.861  0.0193 -0.9678  0.6141
 7632SOL    HW223740   0.940   2.685   5.820  0.3004 -1.4971  1.4544
 7633SOL     OW23741   8.204   3.698   7.818 -0.4147 -0.0690  0.0705
 7633SOL    HW123742   8.197   3.787   7.854 -2.1462 -0.8326  1.7756
 7633SOL    HW223743   8.238   3.646   7.890  4.0332 -0.3490 -1.8612
 7634SOL     OW23744   5.689   2.602   0.930 -0.1881 -0.7777 -0.0124
 7634SOL    HW123745   5.738   2.582   1.009  1.2851  1.4361 -0.2944
 7634SOL    HW223746   5.739   2.561   0.859  0.6187  0.4112 -0.1606
 7635SOL     OW23747   4.836   2.465   3.743 -0.2231 -0.1683 -0.1606
 7635SOL    HW123748   4.900   2.405   3.781 -0.0293  0.5771  0.7436
 7635SOL    HW223749   4.788   2.498   3.819  0.5941  1.8572 -0.4714
 7636SOL     OW23750   7.332   2.545   0.269  0.1356 -0.5703 -0.3268
 7636SOL    HW123751   7.344   2.565   0.362 -0.6875 -0.3328 -0.2654
 7636SOL    HW223752   7.412   2.499   0.244  1.6575  1.8423 -0.2083
 7637SOL     OW23753   1.950   0.035   7.735  0.5749  0.5826  0.0088
 7637SOL    HW123754   1.870   0.003   7.692  1.0199  1.4681 -1.5360
 7637SOL    HW223755   1.920   0.065   7.821 -0.2778 -1.5881  0.5305
 7638SOL     OW23756   7.658   7.294   7.395 -0.1106  0.2455 -0.0362
 7638SOL    HW123757   7.579   7.274   7.344 -0.0551  0.0047 -0.0288
 7638SOL    HW223758   7.628   7.291   7.486  0.5212 -2.8893  0.1748
 7639SOL     OW23759   7.380   8.056   7.292  0.7023 -0.2537 -0.1288
 7639SOL    HW123760   7.372   8.095   7.380 -1.4527  0.2797 -0.5153
 7639SOL    HW223761   7.372   7.962   7.307  0.7963 -0.2017  0.2740
 7640SOL     OW23762   2.021   3.990   2.600  0.5530 -0.1517 -0.1722
 7640SOL    HW123763   1.955   4.059   2.608  0.8513  0.3466 -1.7222
 7640SOL    HW223764   2.014   3.961   2.509  0.4053 -2.2120  0.4596
 7641SOL     OW23765   2.798   3.313   1.893 -0.0573 -0.3569 -0.3742
 7641SOL    HW123766   2.847   3.361   1.960 -2.6603  0.2792  1.2308
 7641SOL    HW223767   2.823   3.355   1.811  1.1145  0.7510  0.4971
 7642SOL     OW23768   5.609   6.946   7.596 -0.0456  0.4108 -0.2516
 7642SOL    HW123769   5.577   6.938   7.686 -0.5017 -1.6396 -0.5439
 7642SOL    HW223770   5.538   6.992   7.550 -0.0705  0.9305  0.2889
 7643SOL     OW23771   4.806   0.529   3.129 -0.0857  0.0392 -0.3998
 7643SOL    HW123772   4.877   0.585   3.098  0.6734 -1.3054 -1.1612
 7643SOL    HW223773   4.729   0.559   3.080 -0.2445  1.9315  0.8936
 7644SOL     OW23774   7.579   3.574   3.631  0.0871  0.2691 -0.1843
 7644SOL    HW123775   7.578   3.653   3.576  1.5532  0.0612 -0.5417
 7644SOL    HW223776   7.640   3.595   3.702  1.8283 -1.0857 -1.1900
 7645SOL     OW23777   3.050   6.134   2.378 -0.6277 -0.0108  0.5486
 7645SOL    HW123778   3.133   6.097   2.408 -1.3277 -2.2122 -0.0879
 7645SOL    HW223779   3.006   6.162   2.459 -0.1923 -0.8575  1.0957
 7646SOL     OW23780   3.124   2.408   7.717 -0.0639 -0.0659 -0.4721
 7646SOL    HW123781   3.056   2.465   7.754  0.3020  1.2956 -1.7910
 7646SOL    HW223782   3.099   2.398   7.625  2.7668  2.5833 -1.6979
 7647SOL     OW23783   6.962   2.727   1.640 -0.1593  0.2143 -0.6898
 7647SOL    HW123784   6.972   2.723   1.545  1.0928 -4.7394 -0.6668
 7647SOL    HW223785   6.869   2.708   1.655  0.0974 -1.5652 -1.0542
 7648SOL     OW23786   6.854   6.694   2.541  0.4583  0.2289  0.1565
 7648SOL    HW123787   6.833   6.604   2.566  1.3311  0.4821  1.9462
 7648SOL    HW223788   6.889   6.687   2.452 -2.6473 -0.7423 -1.1469
 7649SOL     OW23789   2.248   1.139   0.751 -0.3631  0.1123  0.1363
 7649SOL    HW123790   2.183   1.175   0.692 -0.8150  0.0660  0.6030
 7649SOL    HW223791   2.250   1.199   0.826  0.4035  0.3236 -0.0385
 7650SOL     OW23792   0.079   5.624   1.604 -0.3928  0.1128 -0.4587
 7650SOL    HW123793   0.105   5.589   1.519  1.5817 -1.0120  0.5318
 7650SOL    HW223794   0.085   5.719   1.594  0.6421 -0.0273 -1.3727
 7651SOL     OW23795   5.669   6.096   3.323  0.8276  0.6923 -0.1077
 7651SOL    HW123796   5.583   6.065   3.296 -0.1107  1.6457  1.6176
 7651SOL    HW223797   5.689   6.169   3.264  0.7852  0.0433 -0.9441
 7652SOL     OW23798   5.304   5.079   6.803  0.1708 -0.0169 -0.0619
 7652SOL    HW123799   5.313   5.025   6.724 -0.2913 -1.6986  0.9858
 7652SOL    HW223800   5.209   5.091   6.812  0.1127 -1.0763  1.0019
 7653SOL     OW23801   0.649   1.852   8.170  0.3294 -0.0994  0.2680
 7653SOL    HW123802   0.570   1.813   8.208 -0.2223  0.5375 -0.1917
 7653SOL    HW223803   0.623   1.942   8.148  1.7539  0.7792  1.9121
 7654SOL     OW23804   4.413   0.902   7.993  0.5782  0.1552  0.2873
 7654SOL    HW123805   4.469   0.976   7.970 -1.6416  1.5237 -1.0943
 7654SOL    HW223806   4.416   0.898   8.088  1.4361  1.4850  0.3423
 7655SOL     OW23807   3.376   5.073   7.834 -0.0413  0.3717  0.7613
 7655SOL    HW123808   3.308   5.128   7.795 -2.4031 -0.5341  3.2379
 7655SOL    HW223809   3.404   5.122   7.912  0.6705 -0.2091  0.8843
 7656SOL     OW23810   7.623   3.253   2.850 -0.0325  0.2115  0.9010
 7656SOL    HW123811   7.554   3.221   2.793 -0.1998  1.7027  0.2076
 7656SOL    HW223812   7.685   3.296   2.791  0.1264  1.2023  1.7522
 7657SOL     OW23813   1.669   4.113   2.495  0.3810 -0.4564 -0.2562
 7657SOL    HW123814   1.661   4.017   2.493 -3.4984 -0.3631  1.6406
 7657SOL    HW223815   1.583   4.145   2.470  1.3398  2.5826 -0.1306
 7658SOL     OW23816   5.822   3.580   6.227  0.3816 -0.1107  0.5032
 7658SOL    HW123817   5.912   3.594   6.258  0.0148 -0.0561  1.5914
 7658SOL    HW223818   5.781   3.667   6.229  0.1290 -0.2306  0.5788
 7659SOL     OW23819   2.428   7.990   4.564  0.0595 -0.3208  0.0026
 7659SOL    HW123820   2.467   8.057   4.621  0.2249  1.2349 -1.8531
 7659SOL    HW223821   2.354   7.957   4.615  1.4692 -0.6191  2.0202
 7660SOL     OW23822   2.018   8.179   6.922  0.1222 -0.4478 -0.0326
 7660SOL    HW123823   1.992   8.171   6.831  2.6520  3.9412 -1.4029
 7660SOL    HW223824   1.952   8.237   6.961  0.1887 -0.6408  0.3725
 7661SOL     OW23825   5.816   3.288   3.819 -0.0457  0.5490 -0.1326
 7661SOL    HW123826   5.789   3.197   3.817 -1.8499  0.9982  0.8476
 7661SOL    HW223827   5.768   3.329   3.747  0.8099  0.7208 -0.6152
 7662SOL     OW23828   6.725   3.804   3.160 -0.2006 -1.1461  0.2086
 7662SOL    HW123829   6.633   3.822   3.140 -0.5349 -0.3702  2.1539
 7662SOL    HW223830   6.744   3.860   3.236  1.2564 -2.8348  1.1746
 7663SOL     OW23831   4.214   2.052   8.070  0.0179  0.1897  0.1188
 7663SOL    HW123832   4.127   2.041   8.108  0.3278 -1.0112  0.5453
 7663SOL    HW223833   4.208   2.014   7.982  0.9768 -3.4392  1.4381
 7664SOL     OW23834   7.579   5.883   4.513  0.1032  0.0645 -0.1648
 7664SOL    HW123835   7.561   5.907   4.422  2.4395  0.2615 -0.6356
 7664SOL    HW223836   7.564   5.964   4.562 -3.4503 -0.5823  0.0932
 7665SOL     OW23837   4.295   6.879   5.099  0.0090  0.4497  0.1065
 7665SOL    HW123838   4.354   6.804   5.099 -0.3551  0.1540 -0.3579
 7665SOL    HW223839   4.259   6.881   5.010  1.9463  2.7015 -0.7516
 7666SOL     OW23840   7.493   5.219   1.229  0.0620  0.0883 -0.2574
 7666SOL    HW123841   7.576   5.176   1.210 -0.0830  0.1090 -0.9762
 7666SOL    HW223842   7.498   5.241   1.322  0.4015 -0.8888 -0.0375
 7667SOL     OW23843   6.301   6.697   2.936  0.2227 -0.3959 -0.4838
 7667SOL    HW123844   6.396   6.686   2.946  0.3605  0.3386 -0.8826
 7667SOL    HW223845   6.290   6.791   2.921 -0.6946 -0.2649  0.8781
 7668SOL     OW23846   5.863   5.252   6.626 -0.1060 -0.3340 -0.8765
 7668SOL    HW123847   5.850   5.289   6.713 -0.5876 -1.0016 -0.6591
 7668SOL    HW223848   5.776   5.221   6.600  0.3081 -1.4408 -0.9918
 7669SOL     OW23849   4.451   6.276   5.661  0.1053 -0.0971  0.3925
 7669SOL    HW123850   4.490   6.201   5.617  0.4621  0.7731 -0.8217
 7669SOL    HW223851   4.396   6.317   5.594  1.8654  2.1500  0.2020
 7670SOL     OW23852   1.462   6.060   3.771  0.3794 -0.5505 -0.3925
 7670SOL    HW123853   1.536   6.030   3.717  0.6681  1.4903 -1.2268
 7670SOL    HW223854   1.499   6.127   3.827 -0.6133 -0.3239  0.0132
 7671SOL     OW23855   3.290   1.009   3.638  0.0089  0.2249 -0.6533
 7671SOL    HW123856   3.307   0.919   3.609  0.1004 -0.9811  2.7363
 7671SOL    HW223857   3.196   1.021   3.624 -0.0244 -0.4147 -1.0565
 7672SOL     OW23858   2.318   4.545   5.317 -0.6855 -0.1980  0.3355
 7672SOL    HW123859   2.307   4.570   5.409  1.2834  0.7045  0.3780
 7672SOL    HW223860   2.341   4.626   5.272 -0.0447 -0.8986 -0.6494
 7673SOL     OW23861   4.641   5.282   3.479  0.3607  0.5504 -0.3040
 7673SOL    HW123862   4.618   5.193   3.455 -0.3603  0.5100  0.4714
 7673SOL    HW223863   4.575   5.336   3.437  0.6444  0.6972 -0.5621
 7674SOL     OW23864   0.117   1.673   1.666  0.5694 -0.1831  0.0894
 7674SOL    HW123865   0.067   1.643   1.590 -1.5075  1.1631  0.8227
 7674SOL    HW223866   0.090   1.764   1.678  3.1062  0.5482  0.7055
 7675SOL     OW23867   5.244   7.389   1.246 -0.1045  0.0445 -0.0811
 7675SOL    HW123868   5.234   7.424   1.157  0.8649 -1.2696 -0.7488
 7675SOL    HW223869   5.338   7.381   1.258 -0.2561 -0.8862  0.6015
 7676SOL     OW23870   6.805   7.051   6.591 -0.2220 -0.1890 -0.2484
 7676SOL    HW123871   6.714   7.022   6.584 -0.3026 -0.1799  0.6250
 7676SOL    HW223872   6.845   7.023   6.508 -1.1004  0.1382 -0.7991
 7677SOL     OW23873   1.102   5.079   0.689 -0.8944 -0.2287 -0.0527
 7677SOL    HW123874   1.011   5.105   0.691 -0.5454  1.0101  1.6329
 7677SOL    HW223875   1.135   5.098   0.777  1.0112 -0.5436 -0.6459
 7678SOL     OW23876   7.492   0.844   5.295 -0.3243 -0.5772 -0.0460
 7678SOL    HW123877   7.512   0.924   5.344  0.4667 -0.4699 -0.5234
 7678SOL    HW223878   7.398   0.832   5.306 -0.4952  0.5467 -0.1620
 7679SOL     OW23879   7.225   5.067   2.723 -0.4911 -0.4415 -0.2690
 7679SOL    HW123880   7.260   5.145   2.767  0.3926 -0.7057 -0.4781
 7679SOL    HW223881   7.196   5.098   2.638 -1.3023 -0.1110  0.1213
 7680SOL     OW23882   6.886   5.697   4.881 -0.4727  0.6586 -0.7544
 7680SOL    HW123883   6.838   5.617   4.857 -2.2276  1.2569  0.5944
 7680SOL    HW223884   6.909   5.736   4.797 -2.2908  0.2751 -1.4893
 7681SOL     OW23885   6.858   2.577   0.424 -0.0171  0.4132 -0.2991
 7681SOL    HW123886   6.859   2.575   0.328  1.3573 -0.7642 -0.2946
 7681SOL    HW223887   6.838   2.668   0.446 -1.7205  0.4309 -1.6816
 7682SOL     OW23888   6.684   5.022   0.654 -0.1402 -0.0833 -0.5444
 7682SOL    HW123889   6.709   4.930   0.668 -3.7021 -1.6526 -2.9825
 7682SOL    HW223890   6.595   5.029   0.688  0.5119  3.0243  0.9208
 7683SOL     OW23891   7.450   5.802   8.057  0.5622  0.8962 -0.0683
 7683SOL    HW123892   7.514   5.831   8.122 -1.3227  0.7501  1.9238
 7683SOL    HW223893   7.428   5.713   8.084 -0.8701  1.1317 -0.4264
 7684SOL     OW23894   2.743   7.453   5.392 -0.2356  0.1766 -0.4779
 7684SOL    HW123895   2.692   7.490   5.464  0.1267 -3.0054  1.6006
 7684SOL    HW223896   2.801   7.389   5.433 -0.4481 -2.3168 -3.6265
 7685SOL     OW23897   4.910   8.062   6.205 -0.2676 -0.2375  0.1800
 7685SOL    HW123898   4.909   8.070   6.301  0.6524 -3.7919  0.6193
 7685SOL    HW223899   4.998   8.090   6.180 -0.9729  2.1370  0.0919
 7686SOL     OW23900   1.630   1.278   5.325  0.7299 -0.0745  0.2411
 7686SOL    HW123901   1.664   1.250   5.239  2.5001  0.0146  0.8584
 7686SOL    HW223902   1.663   1.213   5.386 -1.7593 -0.9698  0.7246
 7687SOL     OW23903   0.127   4.296   5.744  0.0281 -0.2108  0.0390
 7687SOL    HW123904   0.183   4.369   5.771  0.5563 -0.0625 -1.3677
 7687SOL    HW223905   0.128   4.299   5.648 -3.1977  0.4005 -0.0843
 7688SOL     OW23906   5.257   7.436   2.595 -0.7218 -0.2049  0.5672
 7688SOL    HW123907   5.286   7.516   2.640 -1.5835  0.3127  0.2250
 7688SOL    HW223908   5.233   7.466   2.508  1.7419 -1.3194 -0.5955
 7689SOL     OW23909   0.383   3.822   0.334 -0.0697  0.0589  0.3330
 7689SOL    HW123910   0.433   3.859   0.260  0.0548 -1.8647 -0.6174
 7689SOL    HW223911   0.392   3.887   0.403 -0.1486  1.9402 -1.3138
 7690SOL     OW23912   1.857   3.986   2.070 -0.1094 -0.6320 -0.1377
 7690SOL    HW123913   1.773   4.031   2.056  0.4128  0.3863 -0.0892
 7690SOL    HW223914   1.910   4.009   1.994  1.0077  0.8589  1.0224
 7691SOL     OW23915   7.986   7.724   1.530  0.4165  0.3087 -0.0756
 7691SOL    HW123916   7.994   7.811   1.569  2.4249 -1.0439  2.8951
 7691SOL    HW223917   8.061   7.716   1.472 -1.2396  1.4206 -2.5315
 7692SOL     OW23918   2.078   3.146   7.123  0.4453 -0.1781 -0.8316
 7692SOL    HW123919   2.119   3.145   7.036  0.6238  0.6997 -0.7672
 7692SOL    HW223920   2.090   3.057   7.156  2.2811  0.0186 -0.8392
 7693SOL     OW23921   5.880   3.220   1.844  0.7304  0.2842  0.5975
 7693SOL    HW123922   5.891   3.310   1.875  1.0234  0.4525  0.0183
 7693SOL    HW223923   5.961   3.176   1.871  0.8156  0.3317  0.4229
 7694SOL     OW23924   1.029   4.675   1.607  0.2251 -0.0699  0.6392
 7694SOL    HW123925   1.118   4.685   1.573 -0.2731 -0.5707 -0.9225
 7694SOL    HW223926   1.040   4.665   1.702  1.6110  2.5801  0.8642
 7695SOL     OW23927   2.507   6.310   0.452 -0.5676 -0.3256  0.0169
 7695SOL    HW123928   2.566   6.367   0.501 -0.2290 -0.7787  0.1411
 7695SOL    HW223929   2.558   6.230   0.437 -0.4171  0.0472 -1.6518
 7696SOL     OW23930   0.802   7.125   6.517 -1.0043  0.4556  0.1901
 7696SOL    HW123931   0.753   7.056   6.560  1.2221 -1.2392  0.1950
 7696SOL    HW223932   0.884   7.084   6.491 -0.3679  2.6221 -1.5639
 7697SOL     OW23933   7.149   6.265   0.494  0.4335  0.4189  0.5121
 7697SOL    HW123934   7.205   6.334   0.460 -0.0747  0.2199 -0.7962
 7697SOL    HW223935   7.088   6.309   0.552  0.1583  1.0673 -0.2584
 7698SOL     OW23936   2.709   3.193   4.657 -0.2869  0.2318 -0.7206
 7698SOL    HW123937   2.698   3.127   4.589  0.1249 -1.2225  0.5864
 7698SOL    HW223938   2.631   3.249   4.649 -1.9512 -1.9018 -0.2471
 7699SOL     OW23939   5.209   5.288   2.746  0.0261 -0.2234 -0.3307
 7699SOL    HW123940   5.198   5.259   2.836  1.0334 -2.7339 -0.9399
 7699SOL    HW223941   5.247   5.376   2.754 -0.4100 -0.1692  1.6543
 7700SOL     OW23942   4.789   8.010   4.048  0.4739  1.0487  0.0332
 7700SOL    HW123943   4.790   7.964   3.965 -1.2764 -1.2895  1.2037
 7700SOL    HW223944   4.872   7.987   4.090  0.0314 -0.3044  0.1949
 7701SOL     OW23945   4.076   1.485   5.360 -0.5340 -0.2850 -0.2806
 7701SOL    HW123946   4.077   1.576   5.331 -1.9373  0.2741  1.2713
 7701SOL    HW223947   4.139   1.441   5.303  0.1487  1.6351 -1.0892
 7702SOL     OW23948   4.235   2.932   7.534 -0.1736 -0.3360  0.6742
 7702SOL    HW123949   4.211   2.895   7.449  0.8991  1.6320 -0.5468
 7702SOL    HW223950   4.255   2.856   7.589  0.3925 -1.6228 -1.2291
 7703SOL     OW23951   4.024   4.366   6.132 -0.0299 -0.1819  0.2515
 7703SOL    HW123952   4.048   4.364   6.225  1.0293  1.7106  0.0513
 7703SOL    HW223953   4.009   4.458   6.113 -0.5627 -0.5793 -1.4012
 7704SOL     OW23954   7.010   6.457   3.295  0.3680 -0.3068  0.1241
 7704SOL    HW123955   6.992   6.433   3.386 -0.5448  0.6491  0.2130
 7704SOL    HW223956   7.106   6.458   3.289  0.4343 -1.8341  0.6641
 7705SOL     OW23957   4.898   6.490   4.279  0.0391 -0.4959 -0.1870
 7705SOL    HW123958   4.808   6.457   4.284 -0.4660  0.9540  1.1906
 7705SOL    HW223959   4.937   6.464   4.362  0.7986 -0.7951 -0.6286
 7706SOL     OW23960   0.893   5.496   4.027  0.2816  0.1772 -0.0463
 7706SOL    HW123961   0.801   5.487   4.055  0.1288  1.4006 -0.0948
 7706SOL    HW223962   0.936   5.419   4.063 -0.5981  0.0153  0.7092
 7707SOL     OW23963   5.304   4.980   6.216  0.6246  0.0633  0.1862
 7707SOL    HW123964   5.375   4.928   6.255 -0.2025 -1.0823  0.2080
 7707SOL    HW223965   5.279   4.931   6.138 -0.4352  0.2135  0.4191
 7708SOL     OW23966   5.248   5.387   4.149  0.0566  0.4488 -0.0377
 7708SOL    HW123967   5.274   5.478   4.161  0.6902  0.0243  2.1311
 7708SOL    HW223968   5.290   5.361   4.067 -0.3794  2.1492 -0.8566
 7709SOL     OW23969   6.844   1.418   6.218  0.1193 -0.1412 -0.5113
 7709SOL    HW123970   6.934   1.392   6.239 -0.1304 -1.2810 -0.7603
 7709SOL    HW223971   6.822   1.484   6.283  0.7979 -0.5747  0.1824
 7710SOL     OW23972   1.112   5.604   7.813  0.1463  0.0742 -0.2857
 7710SOL    HW123973   1.080   5.610   7.904  1.3387  1.7083  0.0723
 7710SOL    HW223974   1.183   5.540   7.818  1.5243  1.5886  0.3903
 7711SOL     OW23975   2.630   6.677   6.484  0.4401  0.5468 -0.2965
 7711SOL    HW123976   2.609   6.587   6.457 -1.5391  1.0046 -0.4458
 7711SOL    HW223977   2.725   6.685   6.470  0.3516 -0.9154 -2.0975
 7712SOL     OW23978   4.434   2.295   4.805  0.8277  0.0263  0.4762
 7712SOL    HW123979   4.395   2.220   4.761  3.2906 -0.3013 -1.3754
 7712SOL    HW223980   4.377   2.368   4.782  1.1002 -0.4424 -1.9974
 7713SOL     OW23981   1.727   6.632   6.400  0.5430 -0.1938 -0.3037
 7713SOL    HW123982   1.688   6.676   6.324 -0.8573 -1.3439 -0.3065
 7713SOL    HW223983   1.811   6.599   6.368 -0.3857 -1.3900 -1.6761
 7714SOL     OW23984   0.390   1.629   6.221 -0.1292 -0.6088  0.0747
 7714SOL    HW123985   0.350   1.575   6.153  0.6695 -0.5284 -0.4755
 7714SOL    HW223986   0.324   1.633   6.290 -0.3246 -2.0232 -0.0005
 7715SOL     OW23987   4.126   0.096   7.532  0.0559 -0.1981  0.0541
 7715SOL    HW123988   4.139   0.002   7.520  0.7440  0.0214 -1.0741
 7715SOL    HW223989   4.053   0.102   7.593  0.0911 -1.4615  0.2615
 7716SOL     OW23990   6.050   4.356   7.384 -0.3316  0.1988  0.1679
 7716SOL    HW123991   5.994   4.328   7.457 -1.4835 -0.7576 -1.0341
 7716SOL    HW223992   6.065   4.449   7.400 -1.5549  0.2776  1.0008
 7717SOL     OW23993   2.068   7.223   7.563  0.2706  0.2892 -0.4509
 7717SOL    HW123994   2.152   7.248   7.603  0.7071  0.7941 -1.6174
 7717SOL    HW223995   2.073   7.128   7.552  1.2478  0.4470 -1.6470
 7718SOL     OW23996   3.283   8.113   6.216 -0.7827  0.0563 -0.4407
 7718SOL    HW123997   3.259   8.134   6.125  0.5897  0.8621 -0.6486
 7718SOL    HW223998   3.310   8.197   6.253  2.3413 -0.8302 -0.4864
 7719SOL     OW23999   5.374   5.317   1.057  0.2617  0.1901  0.3216
 7719SOL    HW124000   5.305   5.270   1.010  0.6717  1.8355 -2.1471
 7719SOL    HW224001   5.327   5.383   1.108 -0.1563 -1.2039  1.8230
 7720SOL     OW24002   3.509   0.036   6.636  0.3810 -0.4186 -0.7063
 7720SOL    HW124003   3.534   0.024   6.727  0.8242  1.0691 -0.6131
 7720SOL    HW224004   3.591   0.050   6.589  0.1584 -1.1663 -1.3564
 7721SOL     OW24005   2.165   4.530   1.138 -0.1669 -0.1111  0.4184
 7721SOL    HW124006   2.168   4.504   1.230 -0.9792 -0.2128  0.4202
 7721SOL    HW224007   2.241   4.486   1.098 -1.5337 -2.6265  0.4052
 7722SOL     OW24008   1.111   3.661   4.384 -0.0587  0.3839 -0.2278
 7722SOL    HW124009   1.159   3.632   4.307 -1.0327  0.4989 -0.8997
 7722SOL    HW224010   1.036   3.709   4.349 -0.3254  0.7570  0.8025
 7723SOL     OW24011   1.164   2.895   6.096  0.3079  0.4941 -0.2623
 7723SOL    HW124012   1.165   2.985   6.130 -0.0495  0.7989 -1.0262
 7723SOL    HW224013   1.138   2.842   6.171 -0.9034  1.1993 -0.1437
 7724SOL     OW24014   5.267   7.322   6.370 -0.8757  0.0345  0.1593
 7724SOL    HW124015   5.330   7.284   6.308 -2.7768 -1.1147 -1.2071
 7724SOL    HW224016   5.315   7.392   6.414  1.4003 -0.9567 -0.6160
 7725SOL     OW24017   2.178   7.680   1.855  0.4448 -0.4628  0.2777
 7725SOL    HW124018   2.153   7.730   1.778  0.2826 -0.9105  0.0343
 7725SOL    HW224019   2.161   7.739   1.929  0.6061 -0.0326 -0.0243
 7726SOL     OW24020   1.902   0.369   4.782  1.0854 -0.7104 -0.0713
 7726SOL    HW124021   1.815   0.369   4.822  1.7687 -1.6738  1.5210
 7726SOL    HW224022   1.886   0.391   4.690 -0.8485 -0.9515  0.1603
 7727SOL     OW24023   2.318   3.715   4.266 -0.1562  0.4785 -0.1306
 7727SOL    HW124024   2.348   3.789   4.319  0.3226  0.0590  0.1970
 7727SOL    HW224025   2.263   3.755   4.199 -1.6071  0.9323  1.2537
 7728SOL     OW24026   7.191   6.103   3.708  0.6892 -0.4276 -0.2335
 7728SOL    HW124027   7.246   6.036   3.747  0.5305 -0.4117  0.0165
 7728SOL    HW224028   7.186   6.172   3.773 -1.2841 -1.2935  0.6343
 7729SOL     OW24029   0.926   1.519   5.265 -0.1716 -0.2164 -0.1227
 7729SOL    HW124030   0.874   1.439   5.270 -0.6482  0.0620 -0.5151
 7729SOL    HW224031   1.017   1.490   5.274 -0.4177 -0.6500  1.1663
 7730SOL     OW24032   2.046   6.345   5.331  0.6130 -0.0807  0.0194
 7730SOL    HW124033   2.003   6.359   5.415  0.8104 -0.3236  0.1631
 7730SOL    HW224034   2.026   6.424   5.280 -0.7295 -0.5639 -0.2373
 7731SOL     OW24035   2.895   6.150   6.803 -0.0601  0.0204  0.1223
 7731SOL    HW124036   2.906   6.204   6.881  0.4811 -0.7333  0.5740
 7731SOL    HW224037   2.980   6.153   6.759 -0.7530  1.5879 -1.2098
 7732SOL     OW24038   1.904   8.111   2.968  0.4674  0.1844  0.0872
 7732SOL    HW124039   1.928   8.199   2.938  1.9579 -0.5155 -0.9267
 7732SOL    HW224040   1.865   8.125   3.054 -0.0626  1.9040 -0.3921
 7733SOL     OW24041   0.985   7.557   0.479  0.2335 -0.0630 -0.4920
 7733SOL    HW124042   0.984   7.634   0.421 -1.4079 -0.1362 -0.6065
 7733SOL    HW224043   0.900   7.559   0.523  0.8964 -0.7987  0.8965
 7734SOL     OW24044   6.389   5.209   1.772 -0.2589  0.0372  1.1244
 7734SOL    HW124045   6.459   5.221   1.708 -0.0158  2.9129  1.7829
 7734SOL    HW224046   6.309   5.209   1.720  0.0556 -0.0901  0.6279
 7735SOL     OW24047   1.122   6.473   6.163  0.1064 -0.4888  0.3022
 7735SOL    HW124048   1.081   6.494   6.247 -1.2085  0.2347 -0.4909
 7735SOL    HW224049   1.188   6.541   6.151 -0.7687  0.3378  0.0488
 7736SOL     OW24050   7.836   5.518   4.042 -0.0403 -0.6400 -0.5934
 7736SOL    HW124051   7.847   5.428   4.011  2.8381  0.4458 -3.2530
 7736SOL    HW224052   7.919   5.539   4.085 -0.7197  0.7375  0.1357
 7737SOL     OW24053   6.043   7.614   6.363  0.1508  0.1339 -0.1471
 7737SOL    HW124054   6.082   7.542   6.313 -0.0928 -0.0424 -0.0853
 7737SOL    HW224055   5.951   7.590   6.372  0.0792  0.4327 -0.0869
 7738SOL     OW24056   0.478   6.251   7.155 -0.4780  0.3014 -0.0016
 7738SOL    HW124057   0.499   6.317   7.090  0.9039 -0.2396 -0.1497
 7738SOL    HW224058   0.494   6.168   7.111  0.3879 -0.0752  0.9792
 7739SOL     OW24059   3.261   5.782   3.288 -0.4000 -0.0172  0.0029
 7739SOL    HW124060   3.185   5.739   3.250 -0.1983 -0.8422  0.5027
 7739SOL    HW224061   3.232   5.809   3.375 -1.2149  2.8538 -1.0551
 7740SOL     OW24062   4.432   0.079   1.116 -0.2486 -0.1280  0.3141
 7740SOL    HW124063   4.472   0.166   1.113 -1.1348  0.2858 -0.1708
 7740SOL    HW224064   4.421   0.055   1.024  0.1204 -0.8259  0.4447
 7741SOL     OW24065   1.612   5.016   2.963 -0.1097 -0.2338  0.5759
 7741SOL    HW124066   1.553   4.981   2.896 -0.7189 -1.1937  1.5536
 7741SOL    HW224067   1.613   5.110   2.948  0.3788 -0.4993 -1.2315
 7742SOL     OW24068   1.293   1.126   4.871  0.5721 -0.3501  0.6836
 7742SOL    HW124069   1.291   1.147   4.964 -0.2794 -1.6466  0.9802
 7742SOL    HW224070   1.212   1.163   4.836 -0.7157 -2.5725  1.1240
 7743SOL     OW24071   7.827   1.355   1.342 -0.1507  0.3062 -0.4099
 7743SOL    HW124072   7.902   1.345   1.283 -1.2589  1.4395 -2.1064
 7743SOL    HW224073   7.856   1.421   1.405  0.3459  0.6543 -0.9788
 7744SOL     OW24074   1.097   4.324   6.443 -0.4510  0.5896  0.5243
 7744SOL    HW124075   1.147   4.345   6.521 -0.9263 -0.4111  1.1087
 7744SOL    HW224076   1.145   4.253   6.401 -2.1578 -1.5436  1.9665
 7745SOL     OW24077   8.036   0.133   1.261  0.6464 -0.6369 -0.0864
 7745SOL    HW124078   8.050   0.045   1.295  1.0040 -0.4677  0.2178
 7745SOL    HW224079   7.949   0.158   1.292  1.0507 -0.4028  0.9077
 7746SOL     OW24080   6.481   4.225   6.552 -0.3298  0.4305 -0.3220
 7746SOL    HW124081   6.454   4.186   6.635 -0.5709  0.3747 -0.4251
 7746SOL    HW224082   6.447   4.165   6.485 -0.6701  0.7990 -0.4782
 7747SOL     OW24083   2.621   2.281   2.601 -0.1232 -0.1994 -0.1152
 7747SOL    HW124084   2.586   2.199   2.564 -0.9637 -0.1559  0.5427
 7747SOL    HW224085   2.564   2.349   2.565 -0.6150 -0.1025  0.8198
 7748SOL     OW24086   3.596   4.774   8.134  0.1557  0.5997  0.7628
 7748SOL    HW124087   3.664   4.741   8.076 -0.7128  0.5591 -0.2690
 7748SOL    HW224088   3.515   4.766   8.083 -0.3567  2.5497  1.1857
 7749SOL     OW24089   7.848   4.720   7.980  0.1183 -0.2289  0.2478
 7749SOL    HW124090   7.807   4.711   8.066  1.1215 -0.3292  0.7266
 7749SOL    HW224091   7.799   4.660   7.924  0.5156 -1.4335  1.1437
 7750SOL     OW24092   4.423   4.593   5.205  0.2527 -0.1806 -0.0366
 7750SOL    HW124093   4.499   4.645   5.178 -1.3376  2.4416  0.2452
 7750SOL    HW224094   4.448   4.557   5.290  1.5942 -0.3529 -0.4714
 7751SOL     OW24095   5.468   0.311   1.821 -0.0149  0.2330  0.6556
 7751SOL    HW124096   5.395   0.352   1.867  0.0832 -0.1877  1.1942
 7751SOL    HW224097   5.546   0.342   1.866  0.1121  0.2690  0.4127
 7752SOL     OW24098   1.698   7.939   2.722  0.0483  0.0858  0.7422
 7752SOL    HW124099   1.725   7.904   2.807  1.4662  1.5059  0.9227
 7752SOL    HW224100   1.779   7.969   2.681 -0.7820  0.7092 -0.5119
 7753SOL     OW24101   3.818   7.132   6.771  0.7419 -0.0578  0.3754
 7753SOL    HW124102   3.789   7.049   6.808  2.2853  0.0367  1.9616
 7753SOL    HW224103   3.765   7.198   6.815 -0.3158 -0.1567 -0.7074
 7754SOL     OW24104   0.878   3.189   4.676  0.2217  0.2929 -0.4078
 7754SOL    HW124105   0.873   3.282   4.697  0.3127  0.5538 -1.5005
 7754SOL    HW224106   0.814   3.177   4.606 -0.1079 -0.5613  0.0234
 7755SOL     OW24107   5.194   4.666   3.760 -0.5716 -0.0951  0.0475
 7755SOL    HW124108   5.224   4.752   3.731  0.3393 -0.3021  0.3204
 7755SOL    HW224109   5.110   4.682   3.802 -0.4637  0.6464 -0.0078
 7756SOL     OW24110   7.088   3.516   0.511  0.1295 -0.8240  0.3094
 7756SOL    HW124111   7.183   3.503   0.508  0.2578 -0.0695  0.9238
 7756SOL    HW224112   7.058   3.460   0.582  0.3840  0.4249  1.4307
 7757SOL     OW24113   0.569   3.623   1.036  0.0578 -0.0449  0.0445
 7757SOL    HW124114   0.660   3.652   1.041  0.3078 -0.8501  0.4322
 7757SOL    HW224115   0.538   3.625   1.127 -0.2180 -0.0571 -0.0481
 7758SOL     OW24116   6.759   0.320   0.397 -0.7371  0.1332 -0.4987
 7758SOL    HW124117   6.840   0.282   0.433 -0.9312 -0.2199 -0.4349
 7758SOL    HW224118   6.782   0.342   0.307 -0.7186 -0.4260 -0.6306
 7759SOL     OW24119   6.575   6.787   5.364  0.3266  0.3008  0.4675
 7759SOL    HW124120   6.635   6.818   5.296 -0.5247  1.8439  0.3638
 7759SOL    HW224121   6.497   6.759   5.316  0.6535 -0.9747  0.6532
 7760SOL     OW24122   0.928   5.854   7.406 -0.1191 -0.1192  0.0224
 7760SOL    HW124123   0.942   5.769   7.447 -0.1428 -0.0862  0.1000
 7760SOL    HW224124   0.834   5.871   7.417  0.1735  0.7377  1.6326
 7761SOL     OW24125   3.255   8.078   7.221 -0.0289 -0.1824 -0.2106
 7761SOL    HW124126   3.282   8.163   7.186  2.4920 -0.5519  0.5912
 7761SOL    HW224127   3.201   8.098   7.297  1.9823  0.7968  1.0292
 7762SOL     OW24128   5.192   3.513   6.133 -0.3569  0.1309  0.4762
 7762SOL    HW124129   5.102   3.513   6.099 -0.4949 -1.0279  0.7713
 7762SOL    HW224130   5.243   3.468   6.065 -0.1331  0.1958  0.6004
 7763SOL     OW24131   0.191   0.133   4.563 -0.2085 -0.4197 -0.0525
 7763SOL    HW124132   0.181   0.228   4.555 -1.4906 -0.4457  0.8886
 7763SOL    HW224133   0.104   0.101   4.587  0.1961 -1.8463 -0.3486
 7764SOL     OW24134   5.771   7.365   4.497 -0.2492 -0.1232 -0.2075
 7764SOL    HW124135   5.840   7.302   4.518 -0.5684 -0.1464  0.8744
 7764SOL    HW224136   5.790   7.439   4.555 -0.3384  0.4482 -0.8970
 7765SOL     OW24137   7.012   5.751   1.635 -0.0765  0.4354  0.8496
 7765SOL    HW124138   7.033   5.698   1.712 -1.0755 -0.2728  0.6509
 7765SOL    HW224139   6.956   5.821   1.669  0.1274  0.5822  0.8874
 7766SOL     OW24140   4.756   7.288   7.364  0.2043  0.1838  0.6081
 7766SOL    HW124141   4.806   7.221   7.411  0.6687 -0.4911 -0.7934
 7766SOL    HW224142   4.791   7.285   7.275 -0.8506  1.2242  0.1446
 7767SOL     OW24143   2.662   2.768   2.168 -0.0040  0.8484  0.0778
 7767SOL    HW124144   2.723   2.822   2.217  0.5779  0.4882 -0.2423
 7767SOL    HW224145   2.590   2.827   2.147  1.2108  1.8798 -1.4029
 7768SOL     OW24146   2.189   0.385   3.067 -0.6430 -0.3963  1.0259
 7768SOL    HW124147   2.224   0.382   2.978 -2.4046 -0.5588  0.3020
 7768SOL    HW224148   2.205   0.475   3.096  0.0773 -0.3873  0.6117
 7769SOL     OW24149   6.549   6.221   7.052  0.1498 -0.2239  0.4847
 7769SOL    HW124150   6.503   6.160   7.109  1.5497 -2.3396 -0.5363
 7769SOL    HW224151   6.495   6.227   6.974 -0.0730 -0.0126  0.6541
 7770SOL     OW24152   2.122   5.499   6.292 -0.0047  0.4868  0.2618
 7770SOL    HW124153   2.046   5.466   6.339 -0.7681 -0.1850 -1.3641
 7770SOL    HW224154   2.185   5.427   6.296 -0.0912  0.4075  0.2067
 7771SOL     OW24155   6.361   0.005   5.080 -0.2073 -0.0517  0.2309
 7771SOL    HW124156   6.430  -0.060   5.093  1.1147  1.3892  0.7989
 7771SOL    HW224157   6.401   0.071   5.023 -1.4213  0.3844 -0.1337
 7772SOL     OW24158   0.801   1.073   0.115  0.5078 -0.0856  0.8406
 7772SOL    HW124159   0.721   1.030   0.085  0.7978  1.0441 -1.8470
 7772SOL    HW224160   0.803   1.056   0.209 -2.0214 -1.5192  0.7442
 7773SOL     OW24161   0.917   1.255   1.207  0.4923 -0.4753 -0.2279
 7773SOL    HW124162   1.005   1.245   1.171  1.1493 -0.3120  1.2341
 7773SOL    HW224163   0.871   1.175   1.180  1.0130 -0.4594 -1.1935
 7774SOL     OW24164   2.571   5.741   5.773 -0.2926  1.2207 -0.2881
 7774SOL    HW124165   2.535   5.652   5.764 -0.5447  1.1491  1.1645
 7774SOL    HW224166   2.573   5.756   5.868  1.5720  2.0318 -0.4111
 7775SOL     OW24167   0.116   5.134   0.957 -0.1649 -0.2909 -0.8637
 7775SOL    HW124168   0.109   5.229   0.962 -2.3379 -0.4660  2.3419
 7775SOL    HW224169   0.071   5.111   0.875 -0.7771  1.3845 -1.0384
 7776SOL     OW24170   2.240   8.057   3.838 -0.2842  0.0043 -0.2383
 7776SOL    HW124171   2.279   8.113   3.905 -1.2014  1.3465 -0.7982
 7776SOL    HW224172   2.157   8.029   3.876  0.1062 -0.9048 -0.0168
 7777SOL     OW24173   0.592   5.060   4.589  0.7179 -0.1634 -0.1644
 7777SOL    HW124174   0.507   5.105   4.591  1.2288  0.8192  0.0703
 7777SOL    HW224175   0.594   5.011   4.671  1.1669  1.3489  0.7714
 7778SOL     OW24176   2.995   5.091   2.453 -0.2512 -0.0429  0.2221
 7778SOL    HW124177   3.079   5.063   2.415 -1.9256 -2.5720 -2.0129
 7778SOL    HW224178   2.964   5.159   2.395  0.0886  0.7214  0.9121
 7779SOL     OW24179   1.238   5.114   4.125  0.0362  0.2236 -0.1542
 7779SOL    HW124180   1.320   5.128   4.171 -0.2167 -0.7918  0.6535
 7779SOL    HW224181   1.214   5.024   4.147 -1.4780  0.6228 -0.0606
 7780SOL     OW24182   4.967   5.465   1.816  0.1077 -0.0584  0.2452
 7780SOL    HW124183   5.026   5.403   1.772 -0.1276 -0.8757  1.0305
 7780SOL    HW224184   4.975   5.442   1.909 -2.1021 -0.7878  0.3097
 7781SOL     OW24185   0.735   0.246   4.025 -0.0611 -0.2131 -0.2233
 7781SOL    HW124186   0.706   0.164   3.985 -2.4380 -0.7710  2.3327
 7781SOL    HW224187   0.770   0.220   4.110 -0.6797  1.3950  0.5628
 7782SOL     OW24188   3.632   4.190   3.608  0.4048  0.4239  0.2195
 7782SOL    HW124189   3.570   4.137   3.558  0.8401 -0.0296  0.1620
 7782SOL    HW224190   3.586   4.273   3.622  0.6250  0.9431 -1.7776
 7783SOL     OW24191   0.590   7.009   2.550 -0.0529 -0.1106 -0.2434
 7783SOL    HW124192   0.605   7.025   2.456  1.8391  1.3583  0.2487
 7783SOL    HW224193   0.552   7.091   2.582  1.0782  0.1092  0.6007
 7784SOL     OW24194   0.806   3.728   5.570 -0.4430  0.0671  0.3829
 7784SOL    HW124195   0.726   3.706   5.618 -0.2190  2.0790  1.8198
 7784SOL    HW224196   0.781   3.724   5.478 -1.8194 -0.6502  0.7590
 7785SOL     OW24197   3.543   3.451   7.005  0.5781  0.1278 -0.5910
 7785SOL    HW124198   3.539   3.406   6.920  0.5130  0.8772 -0.9869
 7785SOL    HW224199   3.628   3.496   7.005  0.8379 -0.3408 -0.0088
 7786SOL     OW24200   1.701   5.754   3.923 -0.1794  0.3644  0.0759
 7786SOL    HW124201   1.760   5.777   3.995  0.2931  0.8470 -0.4604
 7786SOL    HW224202   1.693   5.834   3.871 -0.6917  0.0826 -0.2961
 7787SOL     OW24203   0.544   0.433   3.951 -0.3465 -0.4030 -0.4168
 7787SOL    HW124204   0.587   0.503   4.001 -0.7044 -0.5292  0.0829
 7787SOL    HW224205   0.593   0.354   3.975 -0.0571 -0.3585 -0.8411
 7788SOL     OW24206   8.067   1.947   8.135  0.0256 -0.5430 -0.0707
 7788SOL    HW124207   8.100   2.019   8.081 -0.8868 -1.2632 -1.6742
 7788SOL    HW224208   8.022   1.889   8.073 -0.9505 -1.5032  1.4570
 7789SOL     OW24209   1.992   1.395   4.141 -0.2490 -0.1148  0.1165
 7789SOL    HW124210   1.936   1.365   4.070 -0.5376  1.6717 -0.4714
 7789SOL    HW224211   2.018   1.484   4.115  2.9584 -0.8748  0.3080
 7790SOL     OW24212   4.513   6.836   7.788  0.0469 -0.1294  0.6171
 7790SOL    HW124213   4.474   6.858   7.873  0.2910  0.3744  0.6050
 7790SOL    HW224214   4.444   6.853   7.725  0.0128 -0.0478  0.6753
 7791SOL     OW24215   7.235   1.748   4.457 -0.3848  0.2965  0.2564
 7791SOL    HW124216   7.211   1.841   4.464 -0.4991  0.3164 -0.3514
 7791SOL    HW224217   7.170   1.703   4.511 -0.8369  0.4925 -0.1207
 7792SOL     OW24218   5.213   3.789   6.243  0.7895 -0.1859 -0.2730
 7792SOL    HW124219   5.208   3.707   6.193  0.7616 -0.5692  0.3362
 7792SOL    HW224220   5.253   3.762   6.326  0.3247  0.3349  0.1213
 7793SOL     OW24221   2.277   2.791   2.088 -0.4046  0.1042 -0.4541
 7793SOL    HW124222   2.326   2.824   2.012 -0.5632  0.8152 -0.2571
 7793SOL    HW224223   2.268   2.867   2.145 -0.4423 -0.3835  0.1991
 7794SOL     OW24224   7.653   4.194   5.417 -0.7816  0.0236  0.3231
 7794SOL    HW124225   7.747   4.180   5.410 -0.3692  1.6343  1.7790
 7794SOL    HW224226   7.623   4.202   5.327  0.4796 -0.4715 -0.1639
 7795SOL     OW24227   1.337   2.116   4.970  0.6531  0.1955  0.1275
 7795SOL    HW124228   1.258   2.145   5.015  1.9607  3.6538  0.4664
 7795SOL    HW224229   1.327   2.149   4.881  1.2220 -0.3255 -0.1346
 7796SOL     OW24230   5.616   5.799   6.729  0.4716  0.2472  0.1318
 7796SOL    HW124231   5.588   5.870   6.671 -0.2727  0.7861  1.1328
 7796SOL    HW224232   5.694   5.833   6.773  1.9352 -0.7034 -1.5626
 7797SOL     OW24233   3.724   7.081   5.923 -0.4278 -0.5403 -0.2170
 7797SOL    HW124234   3.775   7.021   5.978  0.9370  0.9306  0.2092
 7797SOL    HW224235   3.718   7.036   5.839 -0.5249 -1.7989  0.4242
 7798SOL     OW24236   4.556   3.299   5.495  0.1731 -0.0375 -1.0313
 7798SOL    HW124237   4.596   3.213   5.483  0.0735 -0.5264  1.4837
 7798SOL    HW224238   4.491   3.306   5.425  1.6025 -1.0994 -2.5158
 7799SOL     OW24239   0.621   2.287   6.366 -0.3916  0.7244 -0.0530
 7799SOL    HW124240   0.621   2.199   6.405 -0.3899  1.5837  1.9972
 7799SOL    HW224241   0.709   2.297   6.328 -1.1135 -0.9799 -2.4665
 7800SOL     OW24242   4.512   1.201   1.707  0.0957  0.1264  0.1131
 7800SOL    HW124243   4.506   1.144   1.630 -0.0709  1.5146 -0.9332
 7800SOL    HW224244   4.592   1.251   1.694  0.0530  0.3940  0.8301
 7801SOL     OW24245   1.578   3.194   1.242  0.4886  0.0705 -0.3865
 7801SOL    HW124246   1.493   3.158   1.215  0.0939  1.8877 -1.7145
 7801SOL    HW224247   1.624   3.119   1.280 -1.6958 -0.9806  0.4156
 7802SOL     OW24248   7.527   1.295   4.659 -0.1753 -0.3723  0.0713
 7802SOL    HW124249   7.620   1.314   4.665 -0.1894  0.4816 -1.8531
 7802SOL    HW224250   7.485   1.364   4.711  0.1688  0.4983 -0.7911
 7803SOL     OW24251   2.092   6.653   0.697 -0.0533 -0.0320 -0.1525
 7803SOL    HW124252   2.165   6.623   0.642 -0.4545 -0.2505 -0.5692
 7803SOL    HW224253   2.035   6.577   0.704  0.1949 -0.1321  0.9172
 7804SOL     OW24254   5.268   1.306   4.937 -0.7479  0.5185 -0.4777
 7804SOL    HW124255   5.285   1.388   4.890 -0.3363  0.2838 -0.7368
 7804SOL    HW224256   5.192   1.269   4.892 -1.5454  1.2299  0.2523
 7805SOL     OW24257   1.348   2.351   0.949 -0.1989 -0.1766 -0.0333
 7805SOL    HW124258   1.428   2.351   1.000  0.7617  0.4865 -1.4631
 7805SOL    HW224259   1.278   2.333   1.013  0.6577  2.7927  1.9457
 7806SOL     OW24260   7.765   5.230   1.482 -0.1959  0.4926 -0.4145
 7806SOL    HW124261   7.680   5.253   1.519 -0.6913 -1.3905 -0.2523
 7806SOL    HW224262   7.800   5.164   1.543  0.7202  0.1768 -1.2524
 7807SOL     OW24263   2.436   6.482   3.197  0.2803 -0.2885 -0.1321
 7807SOL    HW124264   2.452   6.394   3.230 -1.2212 -1.1602 -1.5909
 7807SOL    HW224265   2.521   6.525   3.200  1.2040 -2.0485 -0.1192
 7808SOL     OW24266   7.972   4.223   4.952 -0.0754 -0.3965  0.4216
 7808SOL    HW124267   7.961   4.207   4.858  1.5081  0.7198  0.0160
 7808SOL    HW224268   7.899   4.280   4.975 -1.1189 -1.5699  0.1370
 7809SOL     OW24269   1.981   4.339   1.053 -0.0242 -0.6698 -0.3436
 7809SOL    HW124270   1.975   4.266   1.115  0.7648  0.7834  1.5372
 7809SOL    HW224271   2.073   4.362   1.052 -0.3636  0.7334 -0.3845
 7810SOL     OW24272   7.237   0.823   1.177 -0.3581 -0.4227 -0.5270
 7810SOL    HW124273   7.236   0.914   1.149 -0.5866 -0.4451 -0.5971
 7810SOL    HW224274   7.296   0.821   1.252 -0.3371 -0.2219 -0.5387
 7811SOL     OW24275   7.635   0.819   2.656 -0.1435  0.7096 -0.4950
 7811SOL    HW124276   7.692   0.777   2.720 -0.4779  0.4693 -0.3518
 7811SOL    HW224277   7.613   0.904   2.695 -1.7751 -0.1363  0.5490
 7812SOL     OW24278   3.327   3.099   8.197  0.1016  0.3314  0.4762
 7812SOL    HW124279   3.377   3.181   8.198  1.0650 -0.2379  1.1906
 7812SOL    HW224280   3.383   3.038   8.148 -1.2747  0.4627 -1.3831
 7813SOL     OW24281   5.563   5.846   2.169  0.5905  0.1525  0.1128
 7813SOL    HW124282   5.526   5.840   2.081  0.8698  0.7152 -0.0467
 7813SOL    HW224283   5.600   5.934   2.174 -0.0542  0.3899  1.0408
 7814SOL     OW24284   4.359   5.796   2.179  0.5189 -0.3227 -0.2099
 7814SOL    HW124285   4.306   5.768   2.253 -0.5017 -1.7528 -1.4166
 7814SOL    HW224286   4.320   5.879   2.151  0.2660 -0.2924  0.2260
 7815SOL     OW24287   2.596   0.194   7.256 -0.0112 -0.5271  0.3652
 7815SOL    HW124288   2.689   0.197   7.275  0.4563 -0.1095 -1.7585
 7815SOL    HW224289   2.566   0.284   7.269  0.0723 -0.4709  0.1668
 7816SOL     OW24290   3.773   0.964   1.078  0.4640  0.2194 -0.1351
 7816SOL    HW124291   3.863   0.981   1.106  0.8396  0.4743 -1.4008
 7816SOL    HW224292   3.735   0.912   1.148  1.8134 -0.4541  0.1308
 7817SOL     OW24293   7.790   4.953   4.792  0.2178 -0.4314  0.0661
 7817SOL    HW124294   7.761   4.863   4.808 -0.1537 -0.2298  0.5417
 7817SOL    HW224295   7.756   5.003   4.866  0.8977  0.0035  0.0958
 7818SOL     OW24296   2.224   6.280   3.156  0.4700 -0.2635  0.0290
 7818SOL    HW124297   2.302   6.250   3.202  0.3310  0.0894  0.5011
 7818SOL    HW224298   2.232   6.376   3.155 -0.5087 -0.1419  1.1030
 7819SOL     OW24299   0.369   3.266   1.685  0.1910  0.1150 -0.2634
 7819SOL    HW124300   0.426   3.307   1.620  2.7500  0.2711  1.9114
 7819SOL    HW224301   0.321   3.339   1.725 -0.4209  0.1623 -1.0703
 7820SOL     OW24302   1.117   1.373   5.483  0.0274 -0.4617 -0.0112
 7820SOL    HW124303   1.034   1.400   5.523 -0.5499 -0.8729 -0.8874
 7820SOL    HW224304   1.167   1.334   5.554 -1.1891 -1.6682  0.2168
 7821SOL     OW24305   6.514   6.084   0.393  0.4938  0.2986 -0.3685
 7821SOL    HW124306   6.565   6.102   0.472 -1.3840  0.9008  0.7586
 7821SOL    HW224307   6.480   5.995   0.407 -1.6809  1.2164  0.6214
 7822SOL     OW24308   5.730   6.188   5.809  0.3744 -0.9039  0.0693
 7822SOL    HW124309   5.724   6.284   5.810 -0.2336 -0.9430  1.1755
 7822SOL    HW224310   5.758   6.167   5.720 -1.5648  0.2035 -0.8795
 7823SOL     OW24311   6.950   1.294   1.543  0.3908  0.3039  0.1147
 7823SOL    HW124312   6.916   1.314   1.456 -0.0203  0.2729  0.2633
 7823SOL    HW224313   6.951   1.378   1.588  2.1849  0.6235 -0.4405
 7824SOL     OW24314   4.462   5.035   5.811  0.0306 -0.2214  0.0376
 7824SOL    HW124315   4.404   5.009   5.739  2.1787  0.2060 -1.9550
 7824SOL    HW224316   4.403   5.074   5.876 -1.9079  0.2680 -1.8862
 7825SOL     OW24317   2.030   0.274   4.443  0.2624 -0.6968  0.1814
 7825SOL    HW124318   2.074   0.317   4.516  0.1583 -0.4014  0.0710
 7825SOL    HW224319   2.008   0.187   4.476  0.8929 -0.8350  0.2522
 7826SOL     OW24320   2.031   6.491   6.681  0.2641  0.5409  0.1711
 7826SOL    HW124321   2.023   6.529   6.768 -0.3650 -0.7259  0.6941
 7826SOL    HW224322   2.080   6.555   6.631 -1.3942  2.3879  0.7927
 7827SOL     OW24323   1.050   4.254   5.496  0.5722  0.3463  0.2692
 7827SOL    HW124324   1.046   4.187   5.564  2.0533 -1.1164 -0.9763
 7827SOL    HW224325   0.980   4.230   5.435 -0.2865  1.2253  0.8994
 7828SOL     OW24326   4.060   1.660   2.222 -0.2686  0.4174 -0.4366
 7828SOL    HW124327   4.039   1.617   2.138 -0.3579 -0.5511  0.0669
 7828SOL    HW224328   4.154   1.650   2.230 -0.0881  1.5570 -0.9692
 7829SOL     OW24329   2.509   4.636   2.845 -0.3039  0.3816  0.0053
 7829SOL    HW124330   2.529   4.545   2.870  0.6203  0.8162  0.9131
 7829SOL    HW224331   2.583   4.662   2.790 -1.4262  0.0385 -1.7430
 7830SOL     OW24332   6.456   2.578   0.688 -0.0177  0.3624 -0.5405
 7830SOL    HW124333   6.387   2.642   0.668 -0.1849  0.8799  1.5237
 7830SOL    HW224334   6.408   2.498   0.709  0.0204  0.5805  0.3989
 7831SOL     OW24335   5.854   1.439   4.371 -0.0666 -0.4083 -0.5055
 7831SOL    HW124336   5.891   1.472   4.453 -0.4519 -0.5112 -0.2851
 7831SOL    HW224337   5.813   1.356   4.395 -1.0985  0.0645 -0.5757
 7832SOL     OW24338   5.925   4.944   4.044 -0.1540 -0.4003 -0.4044
 7832SOL    HW124339   5.923   5.007   4.116  0.4821  0.9903 -1.5583
 7832SOL    HW224340   5.958   4.993   3.969 -0.3010 -1.9357 -1.5401
 7833SOL     OW24341   6.217   5.885   7.099  0.2255  0.1682 -0.9545
 7833SOL    HW124342   6.155   5.955   7.078 -1.0781 -0.5890  0.2006
 7833SOL    HW224343   6.283   5.891   7.030 -0.4211  1.8339 -1.4996
 7834SOL     OW24344   1.303   7.401   1.126 -0.0444 -0.2812 -0.3857
 7834SOL    HW124345   1.279   7.460   1.054  0.0749 -1.0463 -1.0599
 7834SOL    HW224346   1.241   7.423   1.196  0.0249  0.6720 -0.6083
 7835SOL     OW24347   3.532   1.376   2.616  0.0460 -0.0004  0.0406
 7835SOL    HW124348   3.560   1.442   2.679  1.0249 -0.1529 -0.2174
 7835SOL    HW224349   3.454   1.413   2.575  0.1287  0.6456  0.4554
 7836SOL     OW24350   5.682   0.734   2.533  0.3584 -0.6423  0.6956
 7836SOL    HW124351   5.777   0.745   2.540  0.3030  1.0636 -0.6166
 7836SOL    HW224352   5.671   0.652   2.485  1.3799  1.3056 -3.2503
 7837SOL     OW24353   3.154   2.818   1.745  0.5129 -0.1213  0.0377
 7837SOL    HW124354   3.109   2.902   1.733 -0.4029 -0.7911 -1.4517
 7837SOL    HW224355   3.217   2.835   1.815  0.2989  1.7830 -0.1718
 7838SOL     OW24356   7.138   2.758   3.596 -0.4090 -0.6913 -0.2846
 7838SOL    HW124357   7.138   2.804   3.512  2.5285  0.2572  0.1246
 7838SOL    HW224358   7.051   2.720   3.603 -1.3773  0.8468 -2.8489
 7839SOL     OW24359   3.117   1.233   7.767  0.2132 -0.5550  0.4014
 7839SOL    HW124360   3.139   1.254   7.858  0.4012 -0.1863  0.2699
 7839SOL    HW224361   3.105   1.138   7.767  0.1586 -0.5501  0.8236
 7840SOL     OW24362   0.342   0.494   0.559  0.2579  0.3527  0.7239
 7840SOL    HW124363   0.346   0.533   0.471 -0.5547 -1.2264 -0.0588
 7840SOL    HW224364   0.384   0.558   0.616  1.7298  0.9799 -0.9766
 7841SOL     OW24365   8.034   4.658   2.638  0.0245 -0.4580  0.0016
 7841SOL    HW124366   8.101   4.639   2.703 -0.5593 -0.8744  0.5037
 7841SOL    HW224367   8.044   4.751   2.618  0.0341 -0.2610  0.8968
 7842SOL     OW24368   2.365   7.558   0.580  0.5961  0.1845  0.3412
 7842SOL    HW124369   2.403   7.471   0.573  1.8994  0.6713  0.9641
 7842SOL    HW224370   2.388   7.587   0.669  0.4921  1.2889  0.0212
 7843SOL     OW24371   2.739   7.253   0.582 -0.2240 -0.2679 -0.0691
 7843SOL    HW124372   2.749   7.167   0.540  1.6933 -0.0626 -0.0938
 7843SOL    HW224373   2.799   7.251   0.656  0.0468  1.1403 -0.2212
 7844SOL     OW24374   6.725   3.386   1.664  0.5521 -0.9530  0.5361
 7844SOL    HW124375   6.808   3.374   1.618 -0.2116  0.7088 -1.4704
 7844SOL    HW224376   6.740   3.349   1.751  3.3083 -0.9220  0.1772
 7845SOL     OW24377   6.724   7.529   2.536  0.4433  0.1078  0.0051
 7845SOL    HW124378   6.763   7.612   2.564  1.1815 -0.1651 -0.2022
 7845SOL    HW224379   6.703   7.484   2.618 -1.0493  0.9778  0.1449
 7846SOL     OW24380   7.899   2.470   6.763  1.1100  0.0566  0.2773
 7846SOL    HW124381   7.904   2.478   6.667  1.6153  0.1823  0.3148
 7846SOL    HW224382   7.910   2.376   6.779  0.5523 -0.0317  0.1877
 7847SOL     OW24383   0.893   0.212   3.693 -0.0057 -0.7502 -0.2102
 7847SOL    HW124384   0.815   0.161   3.672 -1.8245  0.9808  1.8418
 7847SOL    HW224385   0.883   0.293   3.642  0.2498 -0.3579  0.3537
 7848SOL     OW24386   3.035   3.033   0.046  0.2307 -0.0573 -0.2481
 7848SOL    HW124387   3.128   3.045   0.025  0.2267  1.3000  0.3826
 7848SOL    HW224388   3.029   3.056   0.139 -0.4872 -1.6583  0.1347
 7849SOL     OW24389   0.399   5.372   1.401  0.1740  0.2355 -0.3989
 7849SOL    HW124390   0.444   5.415   1.328  2.8209  2.9688  2.5469
 7849SOL    HW224391   0.307   5.397   1.391  0.5357  0.8923 -2.5028
 7850SOL     OW24392   5.014   2.707   1.552  0.1902 -0.3152  0.3166
 7850SOL    HW124393   5.046   2.720   1.463  0.2919  0.4162  0.4603
 7850SOL    HW224394   4.975   2.790   1.576 -0.2823 -0.6644  0.7799
 7851SOL     OW24395   3.266   2.101   7.046 -0.2664  0.1285  0.1156
 7851SOL    HW124396   3.269   2.191   7.080  0.2691 -0.0069  0.4272
 7851SOL    HW224397   3.247   2.112   6.953 -2.3197  0.4884  0.5241
 7852SOL     OW24398   8.153   1.487   4.113 -0.3218 -0.7518 -0.1913
 7852SOL    HW124399   8.201   1.436   4.179 -1.1177 -0.9400  0.2500
 7852SOL    HW224400   8.142   1.426   4.040 -0.6743 -0.9958  0.0637
 7853SOL     OW24401   6.285   1.946   5.865  0.2563  0.0402  0.1875
 7853SOL    HW124402   6.304   1.856   5.836 -2.0673 -0.3307 -0.3964
 7853SOL    HW224403   6.309   2.000   5.790  2.0303 -0.0079  0.6783
 7854SOL     OW24404   1.652   3.128   0.186 -0.1944  0.0376  0.0042
 7854SOL    HW124405   1.692   3.210   0.156  0.2636  0.1846  0.9830
 7854SOL    HW224406   1.693   3.061   0.131  0.7703  0.2817  0.3970
 7855SOL     OW24407   6.113   4.167   5.313  0.3562  0.0164 -0.0142
 7855SOL    HW124408   6.207   4.183   5.319  0.1116  1.8555 -0.5076
 7855SOL    HW224409   6.079   4.184   5.401  0.3840  0.0896 -0.0180
 7856SOL     OW24410   1.397   6.900   3.069 -0.0289 -0.2006  0.0079
 7856SOL    HW124411   1.444   6.862   2.995  1.1276 -0.6135  0.9076
 7856SOL    HW224412   1.340   6.829   3.100 -0.4372 -0.0604 -0.4184
 7857SOL     OW24413   1.383   6.363   4.634  0.1371 -0.2813  0.5213
 7857SOL    HW124414   1.359   6.336   4.545  1.4509  0.0944  0.0181
 7857SOL    HW224415   1.473   6.330   4.644  0.5188  0.9110  1.1677
 7858SOL     OW24416   6.603   4.084   2.998 -0.7578  0.3807  0.4396
 7858SOL    HW124417   6.645   4.022   2.938 -0.5392  0.1487  0.8234
 7858SOL    HW224418   6.665   4.156   3.006 -0.7440  0.3671  0.4566
 7859SOL     OW24419   3.416   2.533   4.443 -0.4707 -0.3970  0.4263
 7859SOL    HW124420   3.496   2.484   4.420 -1.3034 -1.1629 -1.0194
 7859SOL    HW224421   3.441   2.625   4.433  0.3968 -0.6050  0.5764
 7860SOL     OW24422   7.522   5.387   0.169  0.1701 -0.0586 -0.2100
 7860SOL    HW124423   7.453   5.443   0.206  0.3804 -0.8625  1.5284
 7860SOL    HW224424   7.496   5.298   0.195  0.7970 -0.5902 -1.3371
 7861SOL     OW24425   1.684   2.365   4.443 -0.5516 -0.7265 -0.3058
 7861SOL    HW124426   1.674   2.322   4.358 -1.3535 -0.5094 -0.3301
 7861SOL    HW224427   1.768   2.333   4.476 -0.4699 -1.2083 -0.9503
 7862SOL     OW24428   5.978   0.583   0.137  0.2030 -0.1891 -0.0100
 7862SOL    HW124429   5.922   0.652   0.171  0.9550  0.1938  0.4827
 7862SOL    HW224430   5.989   0.604   0.044  0.6692  0.5367  0.1981
 7863SOL     OW24431   3.438   3.555   3.962  0.4430 -0.2108  0.0654
 7863SOL    HW124432   3.497   3.574   4.035 -0.9344 -2.2574  1.8358
 7863SOL    HW224433   3.492   3.507   3.899  1.1538 -0.2737  0.7089
 7864SOL     OW24434   6.160   0.986   8.175  0.2106 -0.6276  0.3127
 7864SOL    HW124435   6.098   1.001   8.246 -0.5643  2.4808 -0.8529
 7864SOL    HW224436   6.116   1.022   8.097  2.5841 -0.3318 -0.9726
 7865SOL     OW24437   5.853   3.954   0.567 -0.4900  0.5452 -0.4435
 7865SOL    HW124438   5.798   3.892   0.519 -2.3123  0.8907  1.0830
 7865SOL    HW224439   5.792   4.001   0.624  1.2228  1.9124  0.3427
 7866SOL     OW24440   4.788   3.135   3.506  0.4723  0.2108  0.0609
 7866SOL    HW124441   4.877   3.114   3.479 -0.4456 -1.6581 -1.8261
 7866SOL    HW224442   4.761   3.062   3.561 -0.5357 -0.3044 -1.0689
 7867SOL     OW24443   5.876   2.474   3.863 -0.2837  0.2171 -0.1360
 7867SOL    HW124444   5.969   2.488   3.848 -0.2290  1.8154  1.3377
 7867SOL    HW224445   5.870   2.448   3.955 -1.2815  0.0534 -0.2389
 7868SOL     OW24446   4.895   3.519   3.947 -0.1470  0.0330  0.3435
 7868SOL    HW124447   4.856   3.432   3.941  1.5939 -0.7793  0.1366
 7868SOL    HW224448   4.820   3.578   3.956 -1.3184 -1.5699  1.8179
 7869SOL     OW24449   4.402   3.428   4.410 -0.2933  0.1726 -0.1974
 7869SOL    HW124450   4.450   3.350   4.381  0.0367  1.0649 -2.1820
 7869SOL    HW224451   4.468   3.496   4.417 -0.2157 -0.0420  3.4407
 7870SOL     OW24452   3.471   1.657   1.470 -0.1450  0.0949  0.2251
 7870SOL    HW124453   3.483   1.752   1.469 -0.8201  0.2113  1.1026
 7870SOL    HW224454   3.429   1.640   1.555  1.7598 -1.2060  0.9744
 7871SOL     OW24455   0.205   0.864   7.103 -0.0650 -0.1281  0.0958
 7871SOL    HW124456   0.277   0.809   7.073 -1.0723 -1.0782 -0.6915
 7871SOL    HW224457   0.143   0.803   7.142 -1.7095  0.2537 -1.7680
 7872SOL     OW24458   0.450   2.395   0.772  0.2886  0.2126 -0.5378
 7872SOL    HW124459   0.427   2.360   0.686  1.7781  1.0303 -1.3023
 7872SOL    HW224460   0.535   2.436   0.760  0.6765  0.0980  1.4116
 7873SOL     OW24461   3.123   5.581   5.868 -0.6000  0.5106  0.1641
 7873SOL    HW124462   3.112   5.493   5.903  0.7304  0.8909  1.6333
 7873SOL    HW224463   3.083   5.577   5.781 -1.0022 -1.3944  0.3916
 7874SOL     OW24464   8.110   7.141   7.580  0.6951  0.3367 -0.2712
 7874SOL    HW124465   8.053   7.110   7.509  0.9571  1.5784 -1.0618
 7874SOL    HW224466   8.052   7.152   7.655  0.5479 -1.7461 -0.0187
 7875SOL     OW24467   8.141   4.378   7.756 -0.1719  0.1424  0.1685
 7875SOL    HW124468   8.122   4.355   7.847  1.5521 -0.1216  0.4906
 7875SOL    HW224469   8.178   4.466   7.761  0.0561  0.0745 -0.2536
 7876SOL     OW24470   7.214   5.692   4.840 -0.4021 -0.0612 -0.4006
 7876SOL    HW124471   7.156   5.654   4.907 -1.3118 -0.5573 -1.4420
 7876SOL    HW224472   7.302   5.679   4.875 -0.9035  0.8294  1.2850
 7877SOL     OW24473   1.967   7.202   6.016 -0.3761  0.2937  0.4395
 7877SOL    HW124474   1.990   7.208   5.923  0.2662  0.0342  0.5843
 7877SOL    HW224475   1.996   7.115   6.043 -2.1097 -0.3174  0.4686
 7878SOL     OW24476   4.399   0.118   4.053  0.2793  0.1323 -0.1268
 7878SOL    HW124477   4.379   0.209   4.030  1.3229  0.8475  1.6335
 7878SOL    HW224478   4.493   0.111   4.041  0.0236 -1.1537 -1.5830
 7879SOL     OW24479   3.173   4.460   3.196  0.0191  0.3724  0.5986
 7879SOL    HW124480   3.119   4.427   3.267  1.1536 -0.6552  1.0294
 7879SOL    HW224481   3.242   4.394   3.186  0.9305  1.4102 -0.2259
 7880SOL     OW24482   5.777   3.572   2.875 -0.1681 -0.0423  0.3307
 7880SOL    HW124483   5.862   3.609   2.853  0.4320 -0.5466  1.6875
 7880SOL    HW224484   5.717   3.612   2.812  0.8037  1.5331  0.3366
 7881SOL     OW24485   0.120   1.323   1.101  0.2712  0.7948  0.3337
 7881SOL    HW124486   0.110   1.394   1.038  0.7976  0.2995 -0.3297
 7881SOL    HW224487   0.108   1.364   1.187 -1.3994  1.3109 -0.1072
 7882SOL     OW24488   2.221   4.289   6.552 -0.1162  0.0293  0.1997
 7882SOL    HW124489   2.268   4.352   6.498 -1.2136 -0.3664 -1.2674
 7882SOL    HW224490   2.287   4.222   6.571  0.5943  0.7472  0.3366
 7883SOL     OW24491   0.825   0.386   2.162  0.5007 -0.6730  0.5163
 7883SOL    HW124492   0.876   0.306   2.177  1.1481 -0.2129  0.7763
 7883SOL    HW224493   0.881   0.457   2.191  0.2666 -0.0464 -0.5178
 7884SOL     OW24494   1.735   1.062   6.632  0.1878  0.2132  0.0409
 7884SOL    HW124495   1.700   1.051   6.721 -0.3843  0.3041 -0.1709
 7884SOL    HW224496   1.658   1.056   6.575  0.5607  0.0962 -0.4539
 7885SOL     OW24497   2.207   7.455   7.430  0.1868 -0.0761 -0.0409
 7885SOL    HW124498   2.146   7.388   7.461 -0.7317 -0.1290 -1.8640
 7885SOL    HW224499   2.232   7.503   7.510 -1.1445 -0.9389  0.9340
 7886SOL     OW24500   7.520   5.406   4.722 -0.1610 -0.1093 -0.1110
 7886SOL    HW124501   7.589   5.365   4.670  0.3406  0.7063 -0.0942
 7886SOL    HW224502   7.551   5.494   4.739 -1.6155  0.5900 -0.8806
 7887SOL     OW24503   3.057   4.483   4.254  0.1474  0.5435  0.6412
 7887SOL    HW124504   3.131   4.423   4.247 -0.2562  0.1278 -0.1303
 7887SOL    HW224505   2.983   4.427   4.277 -0.1760  0.7756  0.1792
 7888SOL     OW24506   5.770   6.226   3.929  0.2860  0.4568  0.5436
 7888SOL    HW124507   5.722   6.190   3.854  1.0905  0.1754  0.1527
 7888SOL    HW224508   5.702   6.260   3.987 -0.4403 -0.7855  0.4534
 7889SOL     OW24509   2.477   6.312   2.770  0.6085 -0.9184 -0.3970
 7889SOL    HW124510   2.503   6.383   2.711  1.3974 -0.2810  0.6661
 7889SOL    HW224511   2.539   6.319   2.843 -0.0337 -1.9862  0.2693
 7890SOL     OW24512   3.846   6.317   3.697  0.1741  0.0767 -0.0643
 7890SOL    HW124513   3.873   6.319   3.605  0.7945 -0.8299  0.0879
 7890SOL    HW224514   3.756   6.286   3.694  0.2633 -0.1689 -0.3572
 7891SOL     OW24515   3.944   1.670   4.663 -0.3649  0.0675 -0.7709
 7891SOL    HW124516   3.865   1.640   4.618  0.5270 -0.9013 -1.7755
 7891SOL    HW224517   4.015   1.621   4.621  0.6110 -0.3487  1.2178
 7892SOL     OW24518   1.463   4.120   3.937  0.2012 -0.4310  0.9805
 7892SOL    HW124519   1.461   4.185   4.007 -0.7247 -1.4037  1.8876
 7892SOL    HW224520   1.375   4.083   3.936  0.4444 -1.0359 -0.1528
 7893SOL     OW24521   0.563   6.462   7.007 -0.6020 -0.1905 -0.2047
 7893SOL    HW124522   0.658   6.475   7.010 -0.8908  2.5587 -0.8588
 7893SOL    HW224523   0.540   6.479   6.915 -1.9292  1.0167  0.3250
 7894SOL     OW24524   7.170   6.652   1.372  0.1713  0.3292 -1.1435
 7894SOL    HW124525   7.144   6.613   1.455 -0.1650  3.0701  0.1522
 7894SOL    HW224526   7.104   6.622   1.310  0.9941 -2.5718 -0.7308
 7895SOL     OW24527   3.792   4.506   0.726 -0.6181 -0.2653  0.1771
 7895SOL    HW124528   3.728   4.503   0.654 -2.3834 -0.5343  1.6749
 7895SOL    HW224529   3.748   4.556   0.794  1.0325  0.0122  1.0803
 7896SOL     OW24530   6.980   3.457   5.701 -0.1213  0.4585  0.2776
 7896SOL    HW124531   7.020   3.414   5.777 -3.4238 -2.1636  0.7670
 7896SOL    HW224532   6.914   3.515   5.738 -1.5064 -0.5658 -0.4826
 7897SOL     OW24533   2.883   1.267   5.574  0.4115 -0.8941  0.2362
 7897SOL    HW124534   2.919   1.209   5.507  0.0745  0.1191 -0.8541
 7897SOL    HW224535   2.799   1.229   5.597 -0.2911 -0.3107 -1.2437
 7898SOL     OW24536   7.237   6.354   0.186  0.0702 -0.1801 -0.2973
 7898SOL    HW124537   7.166   6.297   0.158 -0.7950 -0.0999  1.5365
 7898SOL    HW224538   7.236   6.427   0.124  0.4553 -1.5542 -1.9889
 7899SOL     OW24539   6.807   0.444   3.382  0.4474  0.1759 -0.0836
 7899SOL    HW124540   6.721   0.414   3.410  0.8077 -1.1650 -0.3441
 7899SOL    HW224541   6.855   0.459   3.464  0.0034  0.8648  0.0595
 7900SOL     OW24542   4.744   7.224   3.481  0.9384  0.1141  0.0391
 7900SOL    HW124543   4.689   7.245   3.406  1.8035 -0.5056 -0.7953
 7900SOL    HW224544   4.746   7.128   3.484 -1.1627  0.0476  2.4455
 7901SOL     OW24545   4.698   2.714   5.264  0.1889 -0.1365 -0.2817
 7901SOL    HW124546   4.692   2.741   5.172 -2.3726  1.6359  0.3089
 7901SOL    HW224547   4.615   2.670   5.281  0.4957 -0.1419  1.2809
 7902SOL     OW24548   0.044   2.951   5.626  0.3184 -0.0525 -0.5295
 7902SOL    HW124549   0.084   2.864   5.622  1.6542  0.5449 -0.8691
 7902SOL    HW224550  -0.012   2.955   5.549  1.4881 -0.0592 -1.4087
 7903SOL     OW24551   3.629   6.128   6.083  0.3064  0.5704 -0.1051
 7903SOL    HW124552   3.637   6.123   5.988 -1.3900 -3.5236 -0.2682
 7903SOL    HW224553   3.541   6.160   6.099 -0.0293 -0.3690 -0.0135
 7904SOL     OW24554   5.546   6.543   5.595  0.7100 -0.0183  0.0259
 7904SOL    HW124555   5.488   6.512   5.525  1.5508 -1.5982 -0.0006
 7904SOL    HW224556   5.502   6.519   5.676  0.6660  0.0402  0.0191
 7905SOL     OW24557   1.175   4.496   3.207 -0.2327  0.0908 -0.4934
 7905SOL    HW124558   1.154   4.589   3.212  0.1699  0.1622  0.0063
 7905SOL    HW224559   1.214   4.476   3.293 -2.6922 -1.1162  0.4517
 7906SOL     OW24560   3.243   4.698   2.631  0.6658 -0.1682  0.2190
 7906SOL    HW124561   3.222   4.621   2.578 -2.1230  1.4646 -1.3215
 7906SOL    HW224562   3.329   4.727   2.600  0.1431 -0.6344 -1.7825
 7907SOL     OW24563   2.773   4.109   2.328  0.1155 -0.0870  0.0130
 7907SOL    HW124564   2.679   4.119   2.313  0.0661  0.5358  0.7280
 7907SOL    HW224565   2.798   4.186   2.378  0.9830 -0.3282 -0.0384
 7908SOL     OW24566   0.182   5.449   2.592  0.3492 -0.6401  0.1409
 7908SOL    HW124567   0.184   5.521   2.656 -0.0304 -1.4467  1.0829
 7908SOL    HW224568   0.271   5.413   2.595 -0.4059 -2.5778  2.4919
 7909SOL     OW24569   7.351   3.372   7.491 -0.1087 -0.2165 -0.2405
 7909SOL    HW124570   7.265   3.379   7.449 -0.2500 -3.0191 -0.5858
 7909SOL    HW224571   7.331   3.354   7.583  0.1267 -0.2966 -0.2057
 7910SOL     OW24572   6.038   4.594   1.238  0.0441 -0.0639  0.4601
 7910SOL    HW124573   5.964   4.595   1.300 -0.4970  1.8602 -0.1486
 7910SOL    HW224574   6.009   4.649   1.166  1.2579 -1.0664 -0.8324
 7911SOL     OW24575   2.169   7.210   5.463 -0.6784  0.0268 -0.4014
 7911SOL    HW124576   2.264   7.206   5.456 -0.7400 -0.4368 -1.0043
 7911SOL    HW224577   2.138   7.129   5.423 -1.2113 -1.3799  2.6150
 7912SOL     OW24578   1.762   3.369   7.211  0.1222  0.4713 -0.0903
 7912SOL    HW124579   1.796   3.365   7.301  2.9405 -0.1010 -1.0795
 7912SOL    HW224580   1.803   3.295   7.167 -0.8079  1.0386 -2.0091
 7913SOL     OW24581   1.425   6.375   2.708 -0.8090 -0.1845 -0.0780
 7913SOL    HW124582   1.458   6.453   2.662 -0.3749  0.9200  1.9781
 7913SOL    HW224583   1.498   6.313   2.705 -0.6807 -0.0091 -0.6194
 7914SOL     OW24584   2.151   3.413   1.421  0.0240  0.1322  0.5372
 7914SOL    HW124585   2.150   3.344   1.356 -0.5969 -0.1785  0.8604
 7914SOL    HW224586   2.138   3.494   1.371 -0.8744 -0.1405  0.3075
 7915SOL     OW24587   7.920   2.272   2.123  0.3760  0.3937 -0.5078
 7915SOL    HW124588   7.945   2.322   2.201 -2.2131 -1.0764  1.4589
 7915SOL    HW224589   7.942   2.181   2.145  1.8359  0.1817 -2.5805
 7916SOL     OW24590   5.297   4.365   2.023 -0.0975 -0.4948  0.5628
 7916SOL    HW124591   5.248   4.437   2.062 -0.8851 -0.8270  0.2062
 7916SOL    HW224592   5.276   4.289   2.076  0.0917 -0.6273  0.4520
 7917SOL     OW24593   6.714   7.237   1.682  0.3866 -0.2802  0.1310
 7917SOL    HW124594   6.726   7.322   1.724  0.9567 -0.0077 -0.5860
 7917SOL    HW224595   6.738   7.174   1.750  1.0931  0.1534  0.2911
 7918SOL     OW24596   6.671   7.191   6.021 -0.7000  0.2880 -0.0192
 7918SOL    HW124597   6.636   7.171   6.108 -0.9374 -1.0202 -0.3816
 7918SOL    HW224598   6.600   7.168   5.961 -0.5058  1.0841 -0.5709
 7919SOL     OW24599   5.802   5.103   2.187 -0.6277  0.0450 -0.3893
 7919SOL    HW124600   5.853   5.184   2.189 -0.7932  0.3211 -3.0263
 7919SOL    HW224601   5.770   5.093   2.276 -0.9333  3.1044 -0.0330
 7920SOL     OW24602   3.462   1.334   0.175 -0.2084 -0.4314 -0.8380
 7920SOL    HW124603   3.439   1.425   0.158  0.3436  0.0747  0.9956
 7920SOL    HW224604   3.397   1.284   0.124 -2.3092  0.9676  0.3134
 7921SOL     OW24605   5.579   3.671   4.625  0.1668  0.1210  0.3313
 7921SOL    HW124606   5.671   3.655   4.647  0.7732  1.2855 -1.1721
 7921SOL    HW224607   5.530   3.644   4.703  1.6618 -1.7008  0.7140
 7922SOL     OW24608   7.474   5.185   5.105  0.0822  0.1144  0.1568
 7922SOL    HW124609   7.415   5.247   5.062  0.6128 -0.4363 -1.4682
 7922SOL    HW224610   7.475   5.109   5.047 -0.4465 -1.4037  2.0206
 7923SOL     OW24611   4.152   3.290   6.425  0.9737 -0.5997 -0.5132
 7923SOL    HW124612   4.144   3.198   6.450 -1.1260  0.2315  2.4608
 7923SOL    HW224613   4.245   3.310   6.436  0.9630 -1.6169  2.1308
 7924SOL     OW24614   2.053   3.637   2.168 -0.3086 -0.3505 -0.3637
 7924SOL    HW124615   2.113   3.688   2.113 -0.0659 -0.1058  0.1239
 7924SOL    HW224616   2.099   3.628   2.252 -1.2177  0.3995  0.2355
 7925SOL     OW24617   1.832   5.416   0.352  0.1624 -0.1446 -0.0859
 7925SOL    HW124618   1.829   5.512   0.352  1.5143 -0.0832  0.2657
 7925SOL    HW224619   1.851   5.393   0.261 -0.4996 -0.1046 -0.2400
 7926SOL     OW24620   6.476   7.561   5.902  0.2033  0.1434  0.3330
 7926SOL    HW124621   6.430   7.593   5.824 -0.7735 -0.8037  0.5028
 7926SOL    HW224622   6.558   7.525   5.868  0.3758  0.8981 -0.0926
 7927SOL     OW24623   2.692   3.550   1.188 -0.1095 -0.1627 -0.0129
 7927SOL    HW124624   2.692   3.456   1.170 -0.3120  0.1741 -1.9790
 7927SOL    HW224625   2.607   3.580   1.159 -0.1555  0.6151  0.8665
 7928SOL     OW24626   1.606   7.413   6.280 -0.2530  0.3327 -0.7503
 7928SOL    HW124627   1.586   7.327   6.244  0.0218 -0.3918  0.7380
 7928SOL    HW224628   1.533   7.468   6.251 -1.1925 -0.7574 -0.5481
 7929SOL     OW24629   0.831   4.106   1.652 -0.9070 -0.7637 -0.6225
 7929SOL    HW124630   0.757   4.160   1.680 -0.3365 -0.5000  0.3778
 7929SOL    HW224631   0.908   4.150   1.687 -0.2771 -1.1540 -1.4857
 7930SOL     OW24632   5.027   6.391   4.516 -0.2724  0.4924  0.0822
 7930SOL    HW124633   5.120   6.388   4.495 -0.3359 -1.3259 -0.1280
 7930SOL    HW224634   5.022   6.362   4.607 -0.7691 -1.7433 -0.6007
 7931SOL     OW24635   1.200   5.275   8.107 -0.1107  0.3447 -0.0482
 7931SOL    HW124636   1.226   5.271   8.015 -2.4775 -1.0420 -0.7446
 7931SOL    HW224637   1.134   5.345   8.110 -0.9579 -0.4560  0.3233
 7932SOL     OW24638   2.229   3.029   2.266  0.0864 -0.1061 -0.2177
 7932SOL    HW124639   2.150   3.078   2.244 -0.9527 -2.0972 -1.2108
 7932SOL    HW224640   2.215   3.001   2.356  0.0678  0.2543 -0.1058
 7933SOL     OW24641   5.190   2.181   0.103 -0.1162 -0.4081  0.0241
 7933SOL    HW124642   5.130   2.249   0.135  2.2216  1.2120  1.3024
 7933SOL    HW224643   5.212   2.210   0.014 -0.9385 -0.8194 -0.3204
 7934SOL     OW24644   3.844   5.784   7.475  0.3607 -0.0368 -0.2238
 7934SOL    HW124645   3.794   5.768   7.395  1.9042  2.2041 -1.7491
 7934SOL    HW224646   3.890   5.702   7.492  0.0648 -0.5272 -1.6840
 7935SOL     OW24647   1.140   8.157   4.621  0.6419 -0.4115  0.1745
 7935SOL    HW124648   1.223   8.130   4.661  0.2509 -0.9006  0.6787
 7935SOL    HW224649   1.089   8.194   4.694  0.0459 -1.0122  0.0735
 7936SOL     OW24650   7.003   2.588   7.978 -0.8346 -0.2128 -0.8868
 7936SOL    HW124651   6.962   2.539   7.907 -1.4268  0.5614 -1.0875
 7936SOL    HW224652   7.017   2.522   8.047 -2.5858 -0.4708 -0.7409
 7937SOL     OW24653   4.232   6.061   2.556 -0.2159 -0.2987  0.2992
 7937SOL    HW124654   4.295   6.131   2.538 -1.0718  0.5330  0.4554
 7937SOL    HW224655   4.265   6.020   2.637  0.5078 -0.3434 -0.0116
 7938SOL     OW24656   3.250   1.179   0.050 -0.3720  0.3653 -0.7895
 7938SOL    HW124657   3.243   1.199  -0.043 -0.5377 -0.2937 -0.9213
 7938SOL    HW224658   3.205   1.095   0.061  1.4711 -0.6276 -0.4780
 7939SOL     OW24659   7.561   3.779   3.451  0.7736  0.2031 -0.1214
 7939SOL    HW124660   7.552   3.710   3.385 -0.3560 -0.5189  0.7415
 7939SOL    HW224661   7.573   3.859   3.400  0.6501 -0.4371 -1.1888
 7940SOL     OW24662   4.197   5.641   7.887 -0.5231  0.4082  0.5287
 7940SOL    HW124663   4.196   5.735   7.868 -2.0543  0.5352  1.0940
 7940SOL    HW224664   4.237   5.602   7.810 -1.2938  1.4012 -0.4142
 7941SOL     OW24665   4.710   1.240   2.281  0.0473  0.3389  0.7265
 7941SOL    HW124666   4.735   1.249   2.373 -0.5797 -1.1950  1.0804
 7941SOL    HW224667   4.625   1.195   2.283  0.0807  0.1704 -0.5919
 7942SOL     OW24668   0.153   0.700   3.377  0.0049  0.0735  0.4929
 7942SOL    HW124669   0.103   0.651   3.443 -1.0146  1.8099  1.0867
 7942SOL    HW224670   0.242   0.664   3.383 -0.2736 -0.4434  2.2008
 7943SOL     OW24671   3.938   0.358   2.206  0.1422 -0.0904 -0.0647
 7943SOL    HW124672   3.981   0.351   2.121 -2.2099 -1.1008 -1.2779
 7943SOL    HW224673   3.900   0.271   2.220  0.7748 -0.0505  2.2382
 7944SOL     OW24674   0.182   6.016   1.145  0.1236 -0.5101 -0.6510
 7944SOL    HW124675   0.203   5.969   1.064 -2.0473  0.9762 -2.2160
 7944SOL    HW224676   0.208   6.106   1.128 -0.8637 -0.0677  0.0671
 7945SOL     OW24677   6.353   4.066   6.358 -0.2625  0.1035 -0.0607
 7945SOL    HW124678   6.418   4.066   6.287 -1.4627 -1.6006 -1.2457
 7945SOL    HW224679   6.269   4.064   6.313 -1.1207  0.9212  1.4561
 7946SOL     OW24680   1.821   0.339   0.653 -0.4864  0.5423  0.0727
 7946SOL    HW124681   1.768   0.389   0.716 -0.0125  1.6847 -0.4065
 7946SOL    HW224682   1.821   0.393   0.574 -2.0442 -1.3871 -1.3661
 7947SOL     OW24683   7.612   6.307   4.133  0.1493 -0.0444  0.0148
 7947SOL    HW124684   7.601   6.227   4.081 -2.6111 -0.5072  1.1515
 7947SOL    HW224685   7.534   6.360   4.113  0.7733  1.3206  1.0442
 7948SOL     OW24686   7.167   5.549   2.937  0.2006  0.3442 -0.2025
 7948SOL    HW124687   7.140   5.577   3.025  1.3635 -1.0833  0.6601
 7948SOL    HW224688   7.244   5.603   2.917  1.3321 -0.8765  0.6793
 7949SOL     OW24689   4.849   5.617   8.106 -0.6669  0.1688  0.0047
 7949SOL    HW124690   4.881   5.705   8.127 -0.5160 -0.5149  3.1841
 7949SOL    HW224691   4.770   5.633   8.053 -0.6579  2.2304  0.5113
 7950SOL     OW24692   0.590   7.873   0.820  0.2457 -0.4369 -0.3857
 7950SOL    HW124693   0.550   7.787   0.826 -0.5208 -0.1417 -1.1258
 7950SOL    HW224694   0.638   7.883   0.903 -1.5137 -0.6517  0.7076
 7951SOL     OW24695   6.805   3.302   5.556 -0.1783 -0.0018 -0.5354
 7951SOL    HW124696   6.870   3.370   5.543 -0.8799  1.1983  1.7257
 7951SOL    HW224697   6.721   3.348   5.554 -0.7509 -0.9847 -0.1643
 7952SOL     OW24698   7.775   2.118   4.952  0.4770 -0.1502  0.2465
 7952SOL    HW124699   7.738   2.179   4.887 -1.4251  1.2601  2.4778
 7952SOL    HW224700   7.721   2.040   4.944 -1.1043  0.7639  1.3876
 7953SOL     OW24701   3.472   7.150   5.746  0.4039 -0.0590  0.5504
 7953SOL    HW124702   3.524   7.070   5.750  0.8459  0.1232 -1.0405
 7953SOL    HW224703   3.456   7.173   5.838 -0.2351 -2.2737  1.0356
 7954SOL     OW24704   5.084   4.177   1.346 -0.4803  0.2225  0.5050
 7954SOL    HW124705   5.037   4.211   1.422 -0.8898 -1.4101  1.0397
 7954SOL    HW224706   5.176   4.173   1.374 -0.1707  2.1703 -0.0792
 7955SOL     OW24707   3.316   7.568   2.338 -0.1224  0.8628  0.1455
 7955SOL    HW124708   3.396   7.597   2.383  0.3462 -1.5124  0.9990
 7955SOL    HW224709   3.321   7.609   2.252  2.0270  0.8244  0.1828
 7956SOL     OW24710   4.152   1.759   2.829 -0.1140  0.3869  0.1869
 7956SOL    HW124711   4.122   1.730   2.743 -0.1545 -1.3935  0.7750
 7956SOL    HW224712   4.076   1.804   2.867 -0.1732  0.9663 -0.5769
 7957SOL     OW24713   7.187   4.498   4.405  0.2264 -0.0220 -0.4378
 7957SOL    HW124714   7.147   4.494   4.318  0.4257 -0.0031 -0.5301
 7957SOL    HW224715   7.206   4.591   4.418 -1.1476  0.1967  0.2371
 7958SOL     OW24716   3.220   2.823   7.268 -0.0130  0.3452  0.5321
 7958SOL    HW124717   3.253   2.825   7.357  0.2260  0.1737  0.4476
 7958SOL    HW224718   3.297   2.808   7.213 -0.2434 -0.1950  0.3463
 7959SOL     OW24719   5.182   3.214   7.462 -0.1728  0.1665 -0.0617
 7959SOL    HW124720   5.111   3.190   7.403 -1.9290  2.2261  1.0712
 7959SOL    HW224721   5.202   3.134   7.510 -1.9525 -0.4034 -0.2075
 7960SOL     OW24722   1.023   6.119   5.243  0.1729  0.0184 -0.2644
 7960SOL    HW124723   1.118   6.124   5.254  0.2336 -1.8232  0.2669
 7960SOL    HW224724   0.989   6.172   5.315  0.7835 -0.4240  0.3626
 7961SOL     OW24725   0.206   0.998   7.546  0.3928  0.1669  1.1135
 7961SOL    HW124726   0.233   1.000   7.637  1.3705 -0.6262  0.8566
 7961SOL    HW224727   0.206   0.905   7.523  0.7072  0.3906  0.1577
 7962SOL     OW24728   1.306   2.816   2.894  0.2271  0.0743  0.5545
 7962SOL    HW124729   1.328   2.770   2.975  0.2642 -2.2050 -0.6576
 7962SOL    HW224730   1.220   2.782   2.869  0.4654  0.3012 -0.6419
 7963SOL     OW24731   5.889   0.873   1.796  0.2596  0.4705  0.0453
 7963SOL    HW124732   5.971   0.920   1.787  0.2117  1.3787  3.1441
 7963SOL    HW224733   5.913   0.780   1.796  1.5101  0.7418  1.9671
 7964SOL     OW24734   1.558   6.014   7.339  0.3792  0.0299  0.1121
 7964SOL    HW124735   1.552   6.076   7.267  0.0922  0.4498  0.4957
 7964SOL    HW224736   1.469   6.010   7.375  0.4419 -0.4354  0.2313
 7965SOL     OW24737   4.808   4.385   3.958 -0.2957 -0.0417  0.1277
 7965SOL    HW124738   4.854   4.370   4.041 -0.6266  0.3554  0.3831
 7965SOL    HW224739   4.857   4.332   3.894  0.8617  0.7986  0.2782
 7966SOL     OW24740   4.952   6.690   1.173 -0.2101  0.1999  0.4421
 7966SOL    HW124741   4.928   6.723   1.086 -0.0059  5.7510  2.1286
 7966SOL    HW224742   4.876   6.639   1.200 -1.8136  1.2934 -1.6706
 7967SOL     OW24743   1.613   1.777   3.471 -0.2563  0.4595  0.0228
 7967SOL    HW124744   1.642   1.686   3.467  0.1107  0.6278 -1.5629
 7967SOL    HW224745   1.669   1.823   3.408  1.3569  2.3131  2.5664
 7968SOL     OW24746   2.437   5.883   0.016  0.3258  0.2774  0.3431
 7968SOL    HW124747   2.439   5.788   0.020 -0.9843  0.2577  0.8585
 7968SOL    HW224748   2.352   5.904  -0.022 -0.2347  1.2622  2.0315
 7969SOL     OW24749   0.421   4.748   3.206  0.1451  0.0856  0.2971
 7969SOL    HW124750   0.474   4.784   3.135 -1.0631  0.5058 -0.4168
 7969SOL    HW224751   0.411   4.820   3.268  0.6999 -0.1063  0.6210
 7970SOL     OW24752   0.014   4.954   2.891  0.3085 -0.2758  1.1012
 7970SOL    HW124753  -0.003   5.012   2.816  1.2311  0.5532  1.5000
 7970SOL    HW224754   0.092   4.904   2.865  0.8527  0.2787  1.6388
 7971SOL     OW24755   7.142   0.469   2.472  0.4895  0.2550 -0.5355
 7971SOL    HW124756   7.126   0.381   2.505 -0.1539  0.4425 -0.3427
 7971SOL    HW224757   7.196   0.456   2.394 -1.9791 -0.5031 -2.2115
 7972SOL     OW24758   2.579   6.568   2.620  0.2282 -0.1933  0.2308
 7972SOL    HW124759   2.613   6.656   2.607  0.2807 -0.3734 -0.9057
 7972SOL    HW224760   2.567   6.533   2.532 -0.6753 -0.9906  0.6462
 7973SOL     OW24761   4.650   7.756   7.048 -0.1052 -0.0924  0.4591
 7973SOL    HW124762   4.703   7.828   7.082 -1.8577  0.6204  1.8377
 7973SOL    HW224763   4.714   7.687   7.028  1.6320  1.8695 -1.1234
 7974SOL     OW24764   7.579   7.426   0.522  0.5856 -0.3805 -0.6845
 7974SOL    HW124765   7.598   7.418   0.615  0.0150  1.9177 -0.3080
 7974SOL    HW224766   7.663   7.441   0.481  1.2554 -4.0680 -1.0218
 7975SOL     OW24767   4.528   2.869   1.160 -0.1356 -0.0817 -0.1532
 7975SOL    HW124768   4.518   2.829   1.074 -0.4759  0.3092 -0.3040
 7975SOL    HW224769   4.602   2.824   1.200 -2.6184 -3.4526  1.1538
 7976SOL     OW24770   5.733   1.653   1.313  0.1604  0.2989 -0.1307
 7976SOL    HW124771   5.723   1.571   1.264  0.8018 -0.4106  0.8945
 7976SOL    HW224772   5.743   1.626   1.404  1.6022  1.4454  0.0917
 7977SOL     OW24773   7.853   6.245   7.410  0.0939 -0.0378  0.0610
 7977SOL    HW124774   7.808   6.263   7.328  0.8906  0.1063 -0.3501
 7977SOL    HW224775   7.824   6.314   7.469  1.0755  1.0571 -0.7122
 7978SOL     OW24776   1.289   0.452   5.093 -0.1546  0.2670  0.4524
 7978SOL    HW124777   1.278   0.394   5.018 -0.1738 -1.1793  1.5238
 7978SOL    HW224778   1.231   0.415   5.160  0.1077  1.3325  1.2905
 7979SOL     OW24779   0.968   1.633   0.801  0.1584 -0.4932 -0.3070
 7979SOL    HW124780   0.888   1.671   0.766 -0.2217  0.4993  1.5189
 7979SOL    HW224781   0.940   1.551   0.842  0.0800 -0.1835  0.2655
 7980SOL     OW24782   5.307   4.098   5.897 -0.5864  0.5077 -0.0967
 7980SOL    HW124783   5.338   4.017   5.938  2.9313  1.3696 -0.7057
 7980SOL    HW224784   5.254   4.068   5.823 -0.6826 -1.1822  0.6029
 7981SOL     OW24785   8.140   2.622   2.883 -0.1511  0.2259 -0.5021
 7981SOL    HW124786   8.074   2.690   2.895 -0.2224  0.4262 -1.8530
 7981SOL    HW224787   8.167   2.599   2.971 -2.5930 -0.4458  0.1485
 7982SOL     OW24788   3.057   4.450   7.746 -0.3389  0.8276  0.1368
 7982SOL    HW124789   3.095   4.389   7.809  0.9274  0.2950 -1.0730
 7982SOL    HW224790   2.999   4.395   7.692  0.5575  0.7365 -0.7531
 7983SOL     OW24791   2.138   3.627   1.271 -0.1046 -0.0934 -0.3998
 7983SOL    HW124792   2.093   3.630   1.186 -1.1699 -0.7438  0.1235
 7983SOL    HW224793   2.072   3.654   1.334  0.6802  0.3813  0.2405
 7984SOL     OW24794   7.328   2.826   5.049 -0.6453 -0.5712 -0.1765
 7984SOL    HW124795   7.377   2.865   5.121 -1.3470  0.2092 -0.0980
 7984SOL    HW224796   7.339   2.887   4.976  0.4977 -1.6220 -0.9115
 7985SOL     OW24797   6.352   1.098   0.847  0.2689 -0.0962  0.3806
 7985SOL    HW124798   6.432   1.085   0.796  2.1564  0.5904  2.9666
 7985SOL    HW224799   6.314   1.010   0.855  1.9219 -0.8018  0.8600
 7986SOL     OW24800   5.162   3.957   5.676 -0.1345  0.0277 -0.2180
 7986SOL    HW124801   5.129   3.886   5.732 -1.9422  0.5768 -0.5283
 7986SOL    HW224802   5.168   3.918   5.589  0.3594 -0.1551 -0.1069
 7987SOL     OW24803   7.632   6.843   1.340  0.4538 -0.1358 -0.3613
 7987SOL    HW124804   7.671   6.758   1.363  0.4744 -0.2917 -0.9350
 7987SOL    HW224805   7.544   6.821   1.310  0.2803  0.1038 -0.0194
 7988SOL     OW24806   3.347   1.765   5.857  0.5861 -0.7162  0.3476
 7988SOL    HW124807   3.415   1.728   5.913  0.8151  1.9598  1.9988
 7988SOL    HW224808   3.392   1.791   5.777  1.6200  1.1174  1.4615
 7989SOL     OW24809   1.810   7.607   0.705  0.2271 -0.1071 -0.1060
 7989SOL    HW124810   1.865   7.680   0.733  0.3153 -0.3844  0.4591
 7989SOL    HW224811   1.747   7.596   0.777  0.7955 -1.1781  0.2469
 7990SOL     OW24812   3.317   0.284   1.642  0.2907 -0.0152 -0.1653
 7990SOL    HW124813   3.393   0.256   1.693  0.7642 -1.0190 -1.3751
 7990SOL    HW224814   3.354   0.327   1.565 -0.4178  2.1555  0.6156
 7991SOL     OW24815   0.460   2.754   3.073 -0.6685 -0.0474  0.3724
 7991SOL    HW124816   0.546   2.779   3.038 -0.8810  2.2118  1.2448
 7991SOL    HW224817   0.445   2.666   3.040  1.4865 -0.0783 -0.7264
 7992SOL     OW24818   6.798   4.689   4.249 -0.7894  0.0233  0.1767
 7992SOL    HW124819   6.892   4.709   4.250 -1.1928  2.3889 -1.3062
 7992SOL    HW224820   6.760   4.751   4.311 -1.3585 -1.4226  1.3484
 7993SOL     OW24821   3.447   3.658   0.569  0.3274 -0.4405  0.3337
 7993SOL    HW124822   3.415   3.622   0.652 -2.1419 -1.2663 -0.8550
 7993SOL    HW224823   3.500   3.587   0.532  1.2843 -0.1383  1.0867
 7994SOL     OW24824   7.838   0.977   4.496  0.0464  0.0506 -0.5583
 7994SOL    HW124825   7.927   0.957   4.523  0.5607 -0.1039 -2.2399
 7994SOL    HW224826   7.784   0.906   4.533  0.8246 -0.6179 -0.6894
 7995SOL     OW24827   5.843   0.221   2.181  0.2156 -0.1841  0.3111
 7995SOL    HW124828   5.754   0.254   2.187  0.2010 -0.2861  0.6964
 7995SOL    HW224829   5.833   0.127   2.166  0.2560 -0.2438  0.6472
 7996SOL     OW24830   4.880   1.592   7.826  0.2932 -0.2840 -0.2705
 7996SOL    HW124831   4.882   1.577   7.921 -0.1612 -0.9610 -0.3618
 7996SOL    HW224832   4.787   1.601   7.805  0.4776  2.0662 -0.3436
 7997SOL     OW24833   5.525   2.950   5.421  0.0338 -0.0986 -0.0300
 7997SOL    HW124834   5.532   3.046   5.426 -0.7031 -0.0888  1.2061
 7997SOL    HW224835   5.591   2.918   5.483 -0.3574 -0.3611  0.2562
 7998SOL     OW24836   2.144   3.791   4.023  0.3686  0.6824 -0.1929
 7998SOL    HW124837   2.206   3.762   3.956  0.4329  0.9691 -0.2607
 7998SOL    HW224838   2.118   3.879   3.995  0.6802  0.9564  0.3543
 7999SOL     OW24839   5.791   3.422   5.907 -0.2947 -0.3813  0.0245
 7999SOL    HW124840   5.873   3.387   5.941  0.2030  1.2505  0.5942
 7999SOL    HW224841   5.778   3.375   5.824  0.8936 -1.0991  0.2215
 8000SOL     OW24842   5.800   4.915   7.118  0.0937  0.1488  0.7981
 8000SOL    HW124843   5.819   4.913   7.024  0.6749 -1.2929  0.9288
 8000SOL    HW224844   5.755   4.833   7.136  0.1697  0.3173  1.8231
 8001SOL     OW24845   3.674   1.552   1.325  0.3285  0.4295  0.0851
 8001SOL    HW124846   3.589   1.579   1.360 -0.6673 -0.2480 -1.6721
 8001SOL    HW224847   3.693   1.469   1.368 -0.5209 -0.0408 -0.4268
 8002SOL     OW24848   5.526   1.119   4.053 -0.2330 -0.0418  0.2246
 8002SOL    HW124849   5.483   1.120   3.967  1.3331 -1.9449 -0.6535
 8002SOL    HW224850   5.540   1.026   4.071 -0.5098  0.3222  2.5769
 8003SOL     OW24851   2.776   0.547   8.039  0.0498 -0.1816 -0.3264
 8003SOL    HW124852   2.802   0.459   8.013 -0.7029 -0.9515  1.3910
 8003SOL    HW224853   2.687   0.557   8.005 -0.4136 -0.6589  0.7194
 8004SOL     OW24854   0.110   6.840   0.820  0.7405 -0.5551  0.3050
 8004SOL    HW124855   0.168   6.877   0.887  0.8247 -0.7874  0.3618
 8004SOL    HW224856   0.166   6.783   0.768  0.8526  0.2770 -0.4898
 8005SOL     OW24857   0.867   5.190   4.802 -0.1809  0.0209 -0.5265
 8005SOL    HW124858   0.777   5.198   4.772 -0.1683  0.7441 -0.3709
 8005SOL    HW224859   0.897   5.107   4.764 -1.3958 -1.0274  0.6940
 8006SOL     OW24860   4.496   6.021   2.993 -0.4181  0.4794 -0.2940
 8006SOL    HW124861   4.530   5.935   3.020 -1.4609  0.4110  0.8671
 8006SOL    HW224862   4.534   6.083   3.055 -2.4995  0.3744  1.1732
 8007SOL     OW24863   3.100   4.630   1.648  0.4377  0.6686 -0.1297
 8007SOL    HW124864   3.109   4.540   1.679 -1.3114  0.7735  0.8591
 8007SOL    HW224865   3.130   4.628   1.557 -1.3636 -1.3663 -0.7650
 8008SOL     OW24866   0.980   0.536   4.978  0.2738 -0.4438 -0.0814
 8008SOL    HW124867   0.919   0.570   4.912  0.0172 -1.5520 -0.4363
 8008SOL    HW224868   0.924   0.508   5.050  0.3419 -1.4540 -0.4042
 8009SOL     OW24869   3.221   3.557   0.393  0.1271 -0.3059  0.8619
 8009SOL    HW124870   3.291   3.536   0.454  0.6587 -2.5344 -0.4235
 8009SOL    HW224871   3.265   3.592   0.316 -0.3330  0.0545  0.7540
 8010SOL     OW24872   6.269   3.011   7.565  0.0081  0.2682 -0.2318
 8010SOL    HW124873   6.258   3.058   7.483 -0.0896 -2.2338 -1.7559
 8010SOL    HW224874   6.337   3.060   7.612 -0.8972  2.5224 -1.1418
 8011SOL     OW24875   1.453   0.878   6.574 -0.1694  0.6348 -0.0735
 8011SOL    HW124876   1.484   0.818   6.506  0.6581  0.3975  0.4922
 8011SOL    HW224877   1.496   0.847   6.654 -0.3845  1.4784  0.3773
 8012SOL     OW24878   4.834   1.350   0.198  0.4426 -1.0260  0.3636
 8012SOL    HW124879   4.832   1.264   0.240 -0.6249 -2.3068 -2.1195
 8012SOL    HW224880   4.877   1.335   0.114 -0.7497  0.6186 -0.6083
 8013SOL     OW24881   4.871   5.085   2.358  0.0791 -0.1645 -0.6879
 8013SOL    HW124882   4.865   4.989   2.349 -0.0181 -0.0884 -1.5203
 8013SOL    HW224883   4.946   5.099   2.416 -1.4031 -0.8207  1.5203
 8014SOL     OW24884   6.458   6.100   5.102 -0.4681 -0.1803  0.4549
 8014SOL    HW124885   6.508   6.156   5.162  1.4218 -0.6268 -0.6228
 8014SOL    HW224886   6.523   6.041   5.064 -1.5888  0.0506 -2.0062
 8015SOL     OW24887   1.686   0.594   5.393  0.1185  0.5492 -0.0168
 8015SOL    HW124888   1.597   0.629   5.389 -0.4386 -0.8245 -0.4318
 8015SOL    HW224889   1.742   0.670   5.382 -1.0385  1.1469 -2.8469
 8016SOL     OW24890   3.783   3.575   6.971  0.0862 -0.1073 -0.0909
 8016SOL    HW124891   3.829   3.614   6.896 -0.3625 -0.2606 -0.4509
 8016SOL    HW224892   3.825   3.490   6.984 -0.8177 -0.7323 -1.1300
 8017SOL     OW24893   0.207   3.184   2.352  0.4616 -0.4080  0.4397
 8017SOL    HW124894   0.235   3.161   2.440 -0.0355 -0.4578  0.5869
 8017SOL    HW224895   0.115   3.156   2.347  0.2917  0.1717  0.1267
 8018SOL     OW24896   4.764   5.332   0.282  0.1385  0.2806  0.2020
 8018SOL    HW124897   4.708   5.381   0.342 -1.0410 -0.8946  0.0897
 8018SOL    HW224898   4.816   5.274   0.338  1.2396  1.3151  0.2998
 8019SOL     OW24899   2.369   3.121   7.630  0.1764  0.0104 -0.1521
 8019SOL    HW124900   2.338   3.139   7.541  0.4989  1.6015  0.0195
 8019SOL    HW224901   2.342   3.031   7.648  1.5193 -0.9484 -2.4618
 8020SOL     OW24902   0.442   4.063   7.046 -0.3179 -0.3399 -0.6405
 8020SOL    HW124903   0.480   4.102   6.967 -1.7380 -0.3997 -1.3891
 8020SOL    HW224904   0.375   4.003   7.013 -1.2911  0.0160  0.6098
 8021SOL     OW24905   1.441   6.762   2.818 -0.2570  0.3619 -0.2054
 8021SOL    HW124906   1.404   6.806   2.742  0.7054 -0.7358 -1.3524
 8021SOL    HW224907   1.380   6.692   2.838  0.2131 -0.2540 -0.8943
 8022SOL     OW24908   5.906   3.966   5.646  0.4357 -0.3248  0.3110
 8022SOL    HW124909   5.936   4.051   5.615  2.2449 -0.7585  0.7933
 8022SOL    HW224910   5.817   3.982   5.679  0.0356  0.9693 -1.2773
 8023SOL     OW24911   6.410   2.647   6.879  0.3090 -0.3771  0.0783
 8023SOL    HW124912   6.496   2.604   6.874 -0.2391 -1.4785 -0.0504
 8023SOL    HW224913   6.407   2.704   6.802 -0.0996 -2.2995 -1.3836
 8024SOL     OW24914   5.849   4.172   1.277  0.0267 -0.4514 -0.5889
 8024SOL    HW124915   5.758   4.167   1.249  0.0231 -1.3360 -0.4723
 8024SOL    HW224916   5.855   4.106   1.347  0.7766 -0.4628 -0.6614
 8025SOL     OW24917   3.028   1.310   6.563  0.0270  0.1692 -0.1006
 8025SOL    HW124918   2.948   1.338   6.609 -0.3772 -0.0495 -0.6494
 8025SOL    HW224919   2.997   1.287   6.475  0.5636 -0.7770 -0.0460
 8026SOL     OW24920   2.669   7.732   4.866  0.2415 -0.5946  0.1736
 8026SOL    HW124921   2.587   7.782   4.867 -0.3808 -1.5583 -0.8280
 8026SOL    HW224922   2.726   7.779   4.927 -1.4160 -0.5045  1.7557
 8027SOL     OW24923   7.664   7.797   7.421  0.3350 -0.3328  0.4865
 8027SOL    HW124924   7.656   7.784   7.327 -1.8580  3.5066 -0.0606
 8027SOL    HW224925   7.758   7.809   7.435  0.6905 -0.8205 -1.2053
 8028SOL     OW24926   7.193   4.760   4.486 -0.1295  0.0237 -0.0279
 8028SOL    HW124927   7.208   4.752   4.580 -1.1682 -2.4002 -0.0073
 8028SOL    HW224928   7.151   4.846   4.476 -0.9528 -0.1061  1.8766
 8029SOL     OW24929   6.487   0.298   1.527  0.0614 -0.0824 -0.4027
 8029SOL    HW124930   6.449   0.212   1.509 -3.4868  1.6302 -2.3239
 8029SOL    HW224931   6.501   0.299   1.622 -1.1832 -2.2659 -0.1356
 8030SOL     OW24932   6.156   5.005   1.103 -0.2452 -0.2994  0.6040
 8030SOL    HW124933   6.080   4.949   1.088 -0.7523  0.8536 -1.5216
 8030SOL    HW224934   6.222   4.973   1.041  0.6416 -0.5750  1.6520
 8031SOL     OW24935   3.157   1.490   4.328  0.3090  0.0529  0.3238
 8031SOL    HW124936   3.204   1.558   4.376 -0.2945 -0.6859  2.0152
 8031SOL    HW224937   3.089   1.537   4.280  1.7686  0.9556 -0.9855
 8032SOL     OW24938   0.783   0.591   5.267 -0.3665 -0.0690 -0.1876
 8032SOL    HW124939   0.742   0.674   5.293 -0.6761  0.3541 -1.8673
 8032SOL    HW224940   0.713   0.526   5.277 -0.4083  0.0403  0.2443
 8033SOL     OW24941   2.664   0.143   3.994 -0.3885  0.1528 -0.0926
 8033SOL    HW124942   2.681   0.181   3.908 -0.8772  1.7898  0.5078
 8033SOL    HW224943   2.633   0.216   4.047  0.7322 -0.6328  1.7299
 8034SOL     OW24944   1.022   2.715   0.944 -0.2233  0.0477 -0.2940
 8034SOL    HW124945   1.011   2.634   0.993 -2.2701  0.9790  0.9230
 8034SOL    HW224946   1.061   2.776   1.007 -1.2298  0.7563 -0.3376
 8035SOL     OW24947   0.432   7.266   0.993  0.0548 -0.4537 -0.6216
 8035SOL    HW124948   0.412   7.198   0.929  1.8683 -0.2074 -1.5022
 8035SOL    HW224949   0.487   7.328   0.946  1.9456 -0.5483  1.2959
 8036SOL     OW24950   8.182   7.730   2.154 -0.0342 -0.5681  0.0570
 8036SOL    HW124951   8.255   7.668   2.154 -2.8495 -4.1435 -0.3992
 8036SOL    HW224952   8.163   7.744   2.247  1.2169  0.5629  0.1908
 8037SOL     OW24953   6.188   5.304   4.092  0.2509  0.0822  0.1114
 8037SOL    HW124954   6.211   5.361   4.165 -0.2849 -0.5541  0.7950
 8037SOL    HW224955   6.094   5.318   4.079  0.4489  0.6482 -0.8819
 8038SOL     OW24956   1.462   0.950   0.246 -0.4805  0.3273  0.2850
 8038SOL    HW124957   1.524   0.991   0.186 -0.5447  1.0637  0.7128
 8038SOL    HW224958   1.477   0.994   0.330  1.3570 -2.3212  1.5101
 8039SOL     OW24959   5.460   8.057   2.737  0.0503  0.2707 -0.0219
 8039SOL    HW124960   5.445   7.971   2.777 -0.0682  0.9260  1.4054
 8039SOL    HW224961   5.538   8.090   2.780  0.7995  0.3964 -1.4275
 8040SOL     OW24962   6.766   7.610   4.716 -0.3376  0.2941 -0.4223
 8040SOL    HW124963   6.741   7.689   4.668  1.1310  0.4567 -0.9603
 8040SOL    HW224964   6.855   7.627   4.746  0.9467 -2.0270 -2.5451
 8041SOL     OW24965   6.134   6.972   1.180  0.2417 -0.0642 -0.0321
 8041SOL    HW124966   6.107   6.998   1.092  0.1247  0.4683  0.1563
 8041SOL    HW224967   6.212   7.025   1.198  0.9528 -1.0090 -0.2569
 8042SOL     OW24968   1.175   4.777   5.605  0.1356  0.2842 -0.0960
 8042SOL    HW124969   1.131   4.849   5.650 -0.0036  0.8733 -1.1535
 8042SOL    HW224970   1.186   4.710   5.672  1.3814  1.7571  1.2549
 8043SOL     OW24971   7.395   8.055   4.090  0.6893 -0.6885  0.1641
 8043SOL    HW124972   7.441   8.008   4.160  2.6566  1.1178  0.1754
 8043SOL    HW224973   7.463   8.109   4.049 -1.1129  0.8271 -0.9589
 8044SOL     OW24974   6.910   5.356   0.944 -0.0223  0.4233 -0.3251
 8044SOL    HW124975   6.931   5.309   0.863 -0.2648  0.4920 -0.4280
 8044SOL    HW224976   6.876   5.441   0.915 -1.2606 -0.0146 -0.1835
 8045SOL     OW24977   3.871   3.705   6.063  0.3356 -0.6611 -0.0569
 8045SOL    HW124978   3.910   3.621   6.039 -1.3038 -1.2075 -0.9248
 8045SOL    HW224979   3.879   3.709   6.158  1.6023 -1.1860 -0.1219
 8046SOL     OW24980   4.801   0.333   8.010  0.5585  0.3476 -0.4121
 8046SOL    HW124981   4.774   0.243   7.992 -0.5385  0.4657  0.5277
 8046SOL    HW224982   4.888   0.325   8.049  0.9337 -0.2192 -1.3583
 8047SOL     OW24983   0.219   1.653   4.066  0.2253 -0.8603 -0.3528
 8047SOL    HW124984   0.282   1.675   3.997 -0.6733  0.7776 -0.7084
 8047SOL    HW224985   0.135   1.682   4.031 -0.1263  1.0163  1.7980
 8048SOL     OW24986   4.743   7.652   5.261 -0.0977  0.5526  0.9906
 8048SOL    HW124987   4.675   7.599   5.304 -0.6855 -0.2011 -0.7487
 8048SOL    HW224988   4.825   7.611   5.287 -0.5649 -2.9111 -2.1179
 8049SOL     OW24989   6.406   1.523   8.172 -0.0808  0.7647  0.4322
 8049SOL    HW124990   6.467   1.509   8.245  1.6909  1.5556 -0.8222
 8049SOL    HW224991   6.372   1.436   8.153  1.6786  0.0536  0.3501
 8050SOL     OW24992   5.211   4.436   7.422 -0.2858  0.3297  0.0464
 8050SOL    HW124993   5.212   4.530   7.441 -0.8772  0.4812 -0.6390
 8050SOL    HW224994   5.278   4.400   7.480 -0.0406  1.1743  0.3110
 8051SOL     OW24995   3.010   4.196   3.844 -0.1863  0.4122 -0.4185
 8051SOL    HW124996   3.047   4.284   3.837  0.2341  0.2271 -0.5888
 8051SOL    HW224997   3.063   4.143   3.784 -1.5219  0.3862 -1.6309
 8052SOL     OW24998   4.530   7.141   7.432 -0.2255  0.2001 -0.7472
 8052SOL    HW124999   4.540   7.128   7.526 -0.8101 -0.2188 -0.7304
 8052SOL    HW225000   4.604   7.195   7.406 -1.4236  2.5026  0.3872
 8053SOL     OW25001   5.704   0.479   6.919 -0.2876  0.4912 -0.3360
 8053SOL    HW125002   5.733   0.457   6.831  0.5361  0.7317 -0.1345
 8053SOL    HW225003   5.724   0.572   6.929 -1.8589  0.8738 -0.4524
 8054SOL     OW25004   3.102   6.214   2.113 -0.5409 -0.6428 -0.4054
 8054SOL    HW125005   3.153   6.136   2.092 -1.1615 -0.7035 -1.7550
 8054SOL    HW225006   3.092   6.211   2.209  0.9698 -1.2399 -0.2325
 8055SOL     OW25007   5.747   5.782   7.042  0.6371 -0.0518 -0.5541
 8055SOL    HW125008   5.670   5.839   7.038  0.5704 -0.1559 -0.7415
 8055SOL    HW225009   5.794   5.798   6.961  0.4764 -0.4612 -0.7329
 8056SOL     OW25010   2.332   1.715   3.002 -0.3036  0.2012 -0.4024
 8056SOL    HW125011   2.285   1.683   3.079  1.3123 -0.9214  0.1635
 8056SOL    HW225012   2.285   1.795   2.977 -1.4022  0.1020  1.1953
 8057SOL     OW25013   2.946   1.751   1.445 -0.0376  0.2171 -0.5358
 8057SOL    HW125014   2.865   1.774   1.491  0.0698  0.2548 -0.3649
 8057SOL    HW225015   2.921   1.678   1.388 -0.6866  1.5558 -2.0399
 8058SOL     OW25016   5.288   3.606   5.351  0.2291 -0.4639 -0.0869
 8058SOL    HW125017   5.254   3.638   5.434  2.0145 -0.2034  0.5693
 8058SOL    HW225018   5.298   3.511   5.364  2.4544 -0.1587  0.7602
 8059SOL     OW25019   5.824   3.402   5.153 -0.1042 -0.0479 -0.3751
 8059SOL    HW125020   5.809   3.423   5.061  0.4025  0.2307 -0.4014
 8059SOL    HW225021   5.920   3.400   5.161 -0.1384 -1.4352 -0.1623
 8060SOL     OW25022   1.041   1.635   1.124 -0.0337  0.5085  0.2453
 8060SOL    HW125023   0.980   1.578   1.170  0.0587  0.9131  0.8788
 8060SOL    HW225024   0.989   1.710   1.096  0.2376  1.0378  1.1218
 8061SOL     OW25025   0.162   2.612   1.616 -0.2481 -0.0920  0.2940
 8061SOL    HW125026   0.125   2.645   1.698  0.1284 -1.6504  1.1429
 8061SOL    HW225027   0.212   2.534   1.642  1.2129  0.2734 -1.2045
 8062SOL     OW25028   3.948   6.624   2.544 -0.1332  0.7844  0.7204
 8062SOL    HW125029   3.998   6.635   2.464 -0.6731 -1.0921  0.0850
 8062SOL    HW225030   3.903   6.708   2.556  1.4152  1.7418  0.1337
 8063SOL     OW25031   5.333   5.846   6.581 -0.5103  0.3907  0.0781
 8063SOL    HW125032   5.284   5.803   6.511  0.7096  0.8110 -1.0865
 8063SOL    HW225033   5.365   5.774   6.636 -0.2379 -0.0606 -0.6566
 8064SOL     OW25034   6.946   2.543   6.013 -0.2328 -0.6102 -0.3820
 8064SOL    HW125035   6.943   2.505   5.925 -0.2098  1.5326 -1.3678
 8064SOL    HW225036   7.017   2.608   6.008 -0.4299 -0.2486  1.1346
 8065SOL     OW25037   7.404   1.843   7.743 -0.3517  0.1754 -0.0110
 8065SOL    HW125038   7.439   1.761   7.709 -1.1412  0.0798 -0.6240
 8065SOL    HW225039   7.474   1.906   7.730  0.1549 -0.3277  0.1989
 8066SOL     OW25040   0.588   5.531   3.265 -0.0858  0.0720  0.4984
 8066SOL    HW125041   0.671   5.545   3.219  0.2061  1.2670  1.3460
 8066SOL    HW225042   0.535   5.607   3.243  0.2544  0.9614  2.4940
 8067SOL     OW25043   5.007   1.487   2.841  0.3410  0.3760 -0.0795
 8067SOL    HW125044   5.075   1.429   2.807  0.0409  0.4763 -0.8816
 8067SOL    HW225045   4.942   1.491   2.771 -0.1197  0.8934  0.3666
 8068SOL     OW25046   2.214   3.311   0.357  0.2031  0.2449 -0.4950
 8068SOL    HW125047   2.276   3.329   0.286  0.5830 -1.2668 -0.5860
 8068SOL    HW225048   2.256   3.241   0.408  0.3408  1.8728  1.7549
 8069SOL     OW25049   5.247   3.512   3.022  0.2889  0.6171  0.3177
 8069SOL    HW125050   5.302   3.583   3.054  1.0847  0.5669 -0.8698
 8069SOL    HW225051   5.255   3.517   2.926 -0.3344 -0.5282  0.1881
 8070SOL     OW25052   7.679   6.623   5.757  0.1912  0.9208  0.0785
 8070SOL    HW125053   7.731   6.655   5.683 -0.8891 -0.0935 -1.1856
 8070SOL    HW225054   7.598   6.674   5.754 -0.8823 -0.7445 -0.9946
 8071SOL     OW25055   5.679   5.972   6.312 -0.2453  0.5208  0.1777
 8071SOL    HW125056   5.688   5.991   6.219 -1.2279 -0.8618 -0.2361
 8071SOL    HW225057   5.592   6.005   6.335  0.1581  1.2266  0.7104
 8072SOL     OW25058   3.643   6.969   1.586 -0.1723  0.0043  0.0828
 8072SOL    HW125059   3.686   6.884   1.598  0.8889  0.5307  0.1309
 8072SOL    HW225060   3.572   6.969   1.651  0.4425 -0.4487  0.7716
 8073SOL     OW25061   4.350   0.530   3.233 -0.2819  0.6623  0.2822
 8073SOL    HW125062   4.302   0.590   3.290 -2.0724  0.4860 -0.9755
 8073SOL    HW225063   4.286   0.464   3.208  1.4074 -1.3085  0.8930
 8074SOL     OW25064   4.858   3.181   2.989  0.6074 -0.1776  0.2211
 8074SOL    HW125065   4.924   3.229   2.939  0.6156 -0.1938  0.2168
 8074SOL    HW225066   4.831   3.243   3.057  1.1709 -0.4247  0.6858
 8075SOL     OW25067   4.990   0.837   6.271 -0.5226 -0.1267  0.3181
 8075SOL    HW125068   4.970   0.921   6.230  0.4855  0.0213  0.1177
 8075SOL    HW225069   5.075   0.850   6.313 -0.7121 -0.8179  0.9403
 8076SOL     OW25070   3.096   1.246   4.177  0.3207 -0.2521  0.0123
 8076SOL    HW125071   3.051   1.295   4.245 -2.8017 -0.6863 -1.5676
 8076SOL    HW225072   3.139   1.313   4.123 -1.3376  0.5434 -0.3732
 8077SOL     OW25073   6.512   3.008   7.219  0.4472  0.6528  0.6092
 8077SOL    HW125074   6.429   3.046   7.247  0.0327 -0.6044  1.1754
 8077SOL    HW225075   6.544   2.961   7.296  0.2748 -1.2235 -0.3998
 8078SOL     OW25076   1.402   1.877   5.744 -0.4709  0.4808  0.3294
 8078SOL    HW125077   1.409   1.972   5.739  0.3980  0.3651 -1.7388
 8078SOL    HW225078   1.310   1.858   5.725 -0.6703  0.8993  0.8625
 8079SOL     OW25079   1.720   7.388   3.880 -0.0854 -0.5361  0.8653
 8079SOL    HW125080   1.787   7.377   3.948 -0.8995 -1.7617  1.5050
 8079SOL    HW225081   1.643   7.343   3.915 -1.3720  1.1186  0.2933
 8080SOL     OW25082   2.475   3.918   6.796  0.0497  0.0469 -0.2026
 8080SOL    HW125083   2.491   3.980   6.867 -0.4936  0.6149 -0.5727
 8080SOL    HW225084   2.520   3.838   6.824 -0.7812  0.0150  1.1460
 8081SOL     OW25085   6.638   0.283   6.758  0.5505  0.2532 -0.3240
 8081SOL    HW125086   6.672   0.206   6.802  1.1310  0.1674 -0.9017
 8081SOL    HW225087   6.669   0.357   6.811 -0.7999  0.0887  0.7705
 8082SOL     OW25088   3.391   5.167   2.265  0.2681  0.4134  0.1322
 8082SOL    HW125089   3.456   5.156   2.196 -0.8958 -1.1174 -0.7837
 8082SOL    HW225090   3.443   5.174   2.346  1.5890 -0.2933 -0.6201
 8083SOL     OW25091   3.134   1.635   1.992  0.7066  0.3998  0.1078
 8083SOL    HW125092   3.129   1.643   2.087  0.5608 -0.0017  0.1355
 8083SOL    HW225093   3.087   1.554   1.972 -1.7734  1.8856 -0.5361
 8084SOL     OW25094   5.953   1.839   3.150  0.2757 -0.0715  0.2844
 8084SOL    HW125095   5.988   1.750   3.154  1.3094  0.3194  0.1197
 8084SOL    HW225096   5.858   1.827   3.152  0.3485 -1.0465  3.3771
 8085SOL     OW25097   5.298   7.796   1.962 -0.0553  0.2520 -0.4495
 8085SOL    HW125098   5.212   7.785   1.922 -0.1820 -0.3422 -0.0367
 8085SOL    HW225099   5.279   7.807   2.055  0.2935  0.4940 -0.4094
 8086SOL     OW25100   1.147   3.559   5.145  0.4383 -0.4551  0.1724
 8086SOL    HW125101   1.231   3.517   5.125  0.7586  0.4603 -0.4695
 8086SOL    HW225102   1.160   3.650   5.120 -0.9251 -0.4128 -0.4323
 8087SOL     OW25103   5.960   1.272   5.230  0.0659 -0.0224  0.8134
 8087SOL    HW125104   5.952   1.247   5.138 -0.3375  0.4728  0.7125
 8087SOL    HW225105   5.985   1.364   5.228 -0.1755  0.0540  1.2009
 8088SOL     OW25106   3.685   2.599   4.230 -0.2671 -0.2392 -0.1307
 8088SOL    HW125107   3.766   2.556   4.258 -1.6487 -2.1776  1.1627
 8088SOL    HW225108   3.683   2.681   4.279  0.0508 -1.0459  1.3014
 8089SOL     OW25109   4.899   0.405   1.051  0.2234  0.2327  0.1779
 8089SOL    HW125110   4.928   0.431   0.963 -1.5635 -0.1221 -0.5626
 8089SOL    HW225111   4.808   0.436   1.056  0.4510  0.7099  2.1134
 8090SOL     OW25112   6.521   1.465   0.976 -0.8825  0.0592  0.1151
 8090SOL    HW125113   6.518   1.553   1.013 -0.6422 -0.3901  1.2394
 8090SOL    HW225114   6.520   1.479   0.881 -3.2540  1.1717  0.2388
 8091SOL     OW25115   3.817   5.493   0.004  0.0561  0.6177 -0.1079
 8091SOL    HW125116   3.893   5.479  -0.054  1.0233  0.6243  1.1237
 8091SOL    HW225117   3.805   5.409   0.048 -0.0976  0.8814  0.3537
 8092SOL     OW25118   1.313   5.467   4.165 -0.5501 -0.2407 -0.2497
 8092SOL    HW125119   1.350   5.525   4.099 -1.0267  1.7565  1.1534
 8092SOL    HW225120   1.247   5.417   4.118  0.9168 -0.7834 -1.8308
 8093SOL     OW25121   6.925   4.850   0.229 -0.1259 -0.4566 -0.0691
 8093SOL    HW125122   6.959   4.924   0.179 -1.3184  0.5833  0.5911
 8093SOL    HW225123   6.982   4.777   0.206  0.8261  0.5617 -1.0698
 8094SOL     OW25124   5.627   1.732   0.939 -0.2243 -0.3861 -0.2487
 8094SOL    HW125125   5.713   1.742   0.897 -0.5167 -1.0548 -1.0269
 8094SOL    HW225126   5.633   1.648   0.985  0.4412  0.7842  1.9483
 8095SOL     OW25127   2.649   2.028   2.369 -0.3470  0.2833 -0.2349
 8095SOL    HW125128   2.637   2.066   2.282  0.8930 -0.7688 -0.9084
 8095SOL    HW225129   2.580   1.961   2.374 -0.3703  0.2889 -0.4425
 8096SOL     OW25130   3.273   1.900   6.830  0.6555 -0.4968  0.0545
 8096SOL    HW125131   3.240   1.916   6.919 -1.4357 -0.4445 -0.6785
 8096SOL    HW225132   3.351   1.847   6.844 -0.4508 -1.8064  1.9097
 8097SOL     OW25133   7.260   3.497   4.202 -0.2494 -0.1778 -0.6209
 8097SOL    HW125134   7.230   3.406   4.206 -2.0227  0.3341 -1.1859
 8097SOL    HW225135   7.301   3.512   4.287 -0.5948 -1.2874 -0.2340
 8098SOL     OW25136   3.167   3.279   1.049  0.2902 -0.2845 -0.2385
 8098SOL    HW125137   3.105   3.227   1.100 -0.2956  0.3974 -0.2422
 8098SOL    HW225138   3.222   3.214   1.005 -0.3300 -0.8968 -0.1229
 8099SOL     OW25139   1.192   2.015   3.713 -0.1094  0.5281 -0.0782
 8099SOL    HW125140   1.132   1.947   3.682  0.5824  0.1887 -0.6821
 8099SOL    HW225141   1.277   1.991   3.678  0.2636  1.3849  0.1996
 8100SOL     OW25142   0.576   4.696   3.982 -0.1444 -0.2217  0.2492
 8100SOL    HW125143   0.613   4.778   4.014 -0.8878 -0.3474  1.5018
 8100SOL    HW225144   0.652   4.643   3.958  0.3733  0.4669  0.3373
 8101SOL     OW25145   0.182   5.719   4.072 -0.6646 -0.3379 -0.0131
 8101SOL    HW125146   0.117   5.696   4.006 -1.5930  0.9584  0.3973
 8101SOL    HW225147   0.136   5.710   4.156 -0.0801 -0.1574  0.3322
 8102SOL     OW25148   3.387   2.770   2.304 -0.0637  0.0179 -0.8471
 8102SOL    HW125149   3.301   2.765   2.346  1.0819 -0.9026  1.5275
 8102SOL    HW225150   3.392   2.690   2.251 -0.7482  0.2199 -1.2417
 8103SOL     OW25151   5.081   5.207   4.275 -0.2736  0.2566 -0.4362
 8103SOL    HW125152   4.996   5.251   4.276 -0.3596  0.1092 -0.8670
 8103SOL    HW225153   5.137   5.265   4.224 -0.4390 -0.2109 -1.1731
 8104SOL     OW25154   1.401   1.866   3.657 -0.0263 -0.1620 -0.2079
 8104SOL    HW125155   1.451   1.851   3.577 -2.3407 -0.1152 -1.7539
 8104SOL    HW225156   1.412   1.785   3.707  0.0984 -0.8985 -1.3712
 8105SOL     OW25157   3.829   7.034   6.468  0.0344 -0.7778 -0.5006
 8105SOL    HW125158   3.909   6.981   6.469  0.6265  0.0991 -0.2621
 8105SOL    HW225159   3.804   7.041   6.561  0.9804  0.8459 -0.3403
 8106SOL     OW25160   1.696   2.699   6.009 -0.2471 -0.4367  0.4999
 8106SOL    HW125161   1.770   2.669   6.060  0.8880  0.8366 -0.3189
 8106SOL    HW225162   1.692   2.794   6.025  1.4390  0.4467 -3.1698
 8107SOL     OW25163   4.040   0.847   2.708 -0.5443  0.1046  0.0493
 8107SOL    HW125164   4.019   0.938   2.725  0.0028  0.2807 -0.2003
 8107SOL    HW225165   4.055   0.809   2.795  0.3010  0.5179  0.0935
 8108SOL     OW25166   5.129   6.382   4.105  0.1565 -0.1978  0.4460
 8108SOL    HW125167   5.073   6.352   4.033  0.8352 -1.0565  0.2580
 8108SOL    HW225168   5.068   6.418   4.169 -0.4027  1.6138 -1.0090
 8109SOL     OW25169   7.863   6.157   0.712  0.0856  0.4033  0.1411
 8109SOL    HW125170   7.844   6.071   0.674 -0.2710  0.5521 -0.0252
 8109SOL    HW225171   7.901   6.137   0.798 -0.3092  0.0820  0.2489
 8110SOL     OW25172   7.570   7.294   2.308  0.2105 -0.1280 -0.1254
 8110SOL    HW125173   7.625   7.354   2.359  0.1700 -0.2042  0.0101
 8110SOL    HW225174   7.594   7.207   2.340  1.3202 -0.2974 -1.3480
 8111SOL     OW25175   4.096   2.863   3.268  0.2615 -0.4810 -0.2114
 8111SOL    HW125176   4.022   2.921   3.248 -0.0413 -1.2879 -1.6340
 8111SOL    HW225177   4.054   2.782   3.297  0.6873  0.2804  2.8346
 8112SOL     OW25178   6.678   6.927   0.873  1.4219  0.2771 -0.2469
 8112SOL    HW125179   6.695   6.835   0.894  0.7392  0.4851  1.4105
 8112SOL    HW225180   6.652   6.927   0.781  1.9965 -1.1129 -0.4257
 8113SOL     OW25181   6.183   3.192   0.820  0.1284  0.2868 -0.6832
 8113SOL    HW125182   6.173   3.281   0.786 -0.7309  0.1936 -0.6729
 8113SOL    HW225183   6.107   3.179   0.876 -0.2896 -0.8246 -1.4831
 8114SOL     OW25184   6.782   7.500   1.809  0.3527 -0.2469 -0.6892
 8114SOL    HW125185   6.727   7.567   1.767  0.7091  0.5085  0.0160
 8114SOL    HW225186   6.781   7.523   1.902  0.3036 -1.3680 -0.4023
 8115SOL     OW25187   0.819   5.252   3.752 -0.2430  0.1794  0.2066
 8115SOL    HW125188   0.803   5.199   3.830  0.6253  0.2579  0.4450
 8115SOL    HW225189   0.759   5.326   3.761 -0.0124  0.2889  0.9063
 8116SOL     OW25190   2.501   7.666   6.519 -0.1573 -0.2033  0.2814
 8116SOL    HW125191   2.437   7.734   6.537 -0.5605 -0.7529  0.9881
 8116SOL    HW225192   2.523   7.630   6.605  0.9538 -0.1641  0.0373
 8117SOL     OW25193   7.461   1.184   6.741  0.2898 -0.2063  0.0241
 8117SOL    HW125194   7.438   1.191   6.834 -2.2473  1.3056 -0.6335
 8117SOL    HW225195   7.451   1.091   6.721 -0.1260 -0.3935  1.0238
 8118SOL     OW25196   4.144   3.959   0.208 -0.0682  0.0573 -0.3927
 8118SOL    HW125197   4.128   3.918   0.293 -0.2556 -0.2411 -0.5675
 8118SOL    HW225198   4.110   3.896   0.145 -0.6136  0.6050 -0.6569
 8119SOL     OW25199   6.103   2.638   5.474 -0.1080 -0.1997 -0.1589
 8119SOL    HW125200   6.073   2.604   5.390 -0.8531  1.5005 -0.6165
 8119SOL    HW225201   6.169   2.575   5.503 -1.3038 -1.9351 -1.0072
 8120SOL     OW25202   4.721   6.412   1.835  0.4436 -0.2097  0.0184
 8120SOL    HW125203   4.733   6.317   1.828  1.6494 -0.0227 -0.9058
 8120SOL    HW225204   4.811   6.446   1.838  0.0264  0.9410 -0.3664
 8121SOL     OW25205   4.005   6.801   8.036  0.6792  0.1418  0.0790
 8121SOL    HW125206   3.936   6.782   7.972  2.0663  1.3224 -1.8958
 8121SOL    HW225207   4.046   6.716   8.053 -0.3396 -0.3409  0.1680
 8122SOL     OW25208   7.887   6.409   6.784 -0.7589  0.5468 -0.1001
 8122SOL    HW125209   7.882   6.331   6.730 -1.6542  0.0590  0.6635
 8122SOL    HW225210   7.907   6.480   6.723 -1.5721 -0.0129 -1.0381
 8123SOL     OW25211   2.564   5.998   1.029 -0.1125  0.0741 -0.0345
 8123SOL    HW125212   2.562   6.017   0.935 -2.2706 -1.5947 -0.4199
 8123SOL    HW225213   2.472   5.991   1.053  0.4157 -1.6483  1.7230
 8124SOL     OW25214   6.269   6.786   5.951 -0.3577  0.7238 -0.3996
 8124SOL    HW125215   6.187   6.752   5.986 -1.9499  0.5817 -3.8642
 8124SOL    HW225216   6.317   6.709   5.920 -0.7850  1.0518 -1.9544
 8125SOL     OW25217   0.037   0.558   1.128 -0.0375 -0.1507  0.1625
 8125SOL    HW125218   0.081   0.490   1.179  0.3082 -1.6096 -1.9521
 8125SOL    HW225219  -0.044   0.576   1.176  0.8473 -0.5189  1.8537
 8126SOL     OW25220   2.232   7.256   3.487 -0.5360 -0.1166 -0.0243
 8126SOL    HW125221   2.147   7.276   3.448 -0.4422  0.1672 -0.0835
 8126SOL    HW225222   2.285   7.226   3.413 -0.4188  0.2307 -0.0821
 8127SOL     OW25223   3.204   7.672   6.521  0.3339 -0.4490 -0.3947
 8127SOL    HW125224   3.131   7.734   6.519  1.6931  1.2295 -1.4439
 8127SOL    HW225225   3.211   7.646   6.612  0.2505  1.6594  0.2680
 8128SOL     OW25226   7.068   4.138   2.387  0.0686  0.0728 -0.4874
 8128SOL    HW125227   7.069   4.230   2.363  0.7070  0.1919 -0.0403
 8128SOL    HW225228   7.159   4.109   2.375  0.8312  0.5070  2.9940
 8129SOL     OW25229   7.361   6.552   6.539 -0.6627 -0.4164  0.3368
 8129SOL    HW125230   7.348   6.585   6.628  0.4062  2.8346 -0.5740
 8129SOL    HW225231   7.426   6.611   6.501 -2.5417 -0.3996 -3.2388
 8130SOL     OW25232   0.244   2.241   7.970  0.4646  0.2528 -0.2960
 8130SOL    HW125233   0.248   2.157   8.017 -0.6663  0.9572  1.1351
 8130SOL    HW225234   0.259   2.307   8.037  0.3996  1.2496 -1.2375
 8131SOL     OW25235   7.386   5.084   7.965  0.1663  0.1353 -0.5243
 8131SOL    HW125236   7.359   5.116   7.879  1.3600 -0.6850 -1.2258
 8131SOL    HW225237   7.317   5.023   7.990  1.2337 -1.9095 -2.2686
 8132SOL     OW25238   1.894   3.513   7.829  0.6979  0.1790 -0.0054
 8132SOL    HW125239   1.827   3.502   7.762 -0.1819 -0.0878  0.9044
 8132SOL    HW225240   1.883   3.438   7.887  0.5486  1.1088  1.2062
 8133SOL     OW25241   7.703   3.376   4.057 -0.3482 -0.3139 -0.3594
 8133SOL    HW125242   7.627   3.407   4.008  0.6224  1.3588 -0.9117
 8133SOL    HW225243   7.670   3.359   4.145 -1.0963  1.9735 -0.1371
 8134SOL     OW25244   2.596   4.366   5.947  0.2519  0.7869 -0.3100
 8134SOL    HW125245   2.609   4.313   6.026 -0.7139  0.2189 -0.5103
 8134SOL    HW225246   2.572   4.452   5.981 -1.8926  0.1106  0.0817
 8135SOL     OW25247   0.072   7.711   0.753 -0.1687 -0.2269 -0.1339
 8135SOL    HW125248   0.155   7.668   0.733  0.9257  0.6392  2.1568
 8135SOL    HW225249   0.056   7.689   0.845 -1.7734  0.7495 -0.1544
 8136SOL     OW25250   5.976   6.518   0.693  0.0944  0.2123  0.1662
 8136SOL    HW125251   5.885   6.488   0.694  0.5973 -1.3980  1.6060
 8136SOL    HW225252   5.981   6.583   0.763 -0.1034  0.8627 -0.4132
 8137SOL     OW25253   6.527   6.645   2.691 -0.1033 -0.3068 -0.0322
 8137SOL    HW125254   6.605   6.606   2.652 -1.2613 -1.3265 -1.4393
 8137SOL    HW225255   6.515   6.727   2.643  0.7117  0.4242  0.9677
 8138SOL     OW25256   4.418   2.158   7.708  0.6583  0.3224 -0.6732
 8138SOL    HW125257   4.327   2.131   7.721  1.3963 -1.8260  0.3542
 8138SOL    HW225258   4.455   2.163   7.796  1.7505  0.4176 -1.1223
 8139SOL     OW25259   6.196   6.622   4.914 -0.5530  0.0317  0.8883
 8139SOL    HW125260   6.263   6.562   4.882 -0.8023 -0.2319  0.8519
 8139SOL    HW225261   6.186   6.599   5.006  1.2588  1.8086  1.5975
 8140SOL     OW25262   7.149   4.757   6.795  0.6146  0.0136  0.4716
 8140SOL    HW125263   7.123   4.849   6.795  0.8487  0.0868 -0.3245
 8140SOL    HW225264   7.229   4.755   6.848 -0.7710 -0.1672  2.6841
 8141SOL     OW25265   0.593   6.391   3.666 -0.5954 -0.1814  0.4852
 8141SOL    HW125266   0.600   6.311   3.719 -0.1817 -0.2677  0.3029
 8141SOL    HW225267   0.513   6.379   3.615 -0.0654 -0.8900 -0.2094
 8142SOL     OW25268   4.968   2.156   4.496 -0.3101 -0.5661  0.1396
 8142SOL    HW125269   4.928   2.114   4.571 -1.6447  1.2233  0.4982
 8142SOL    HW225270   4.920   2.239   4.486  0.3264 -0.4032 -2.2128
 8143SOL     OW25271   3.287   5.517   1.108  0.6151 -0.0385  0.0564
 8143SOL    HW125272   3.325   5.604   1.097  0.6786 -0.0132  0.4762
 8143SOL    HW225273   3.359   5.464   1.144  0.7744 -0.4285 -0.7972
 8144SOL     OW25274   4.115   5.054   3.561 -0.4083 -0.2382  0.5539
 8144SOL    HW125275   4.020   5.064   3.569 -0.1720  2.2521  1.2812
 8144SOL    HW225276   4.145   5.138   3.524  1.3677 -1.5984 -1.3788
 8145SOL     OW25277   5.671   2.337   3.698 -0.3353 -0.1161  0.2377
 8145SOL    HW125278   5.666   2.278   3.773 -1.6597  0.8664  0.9693
 8145SOL    HW225279   5.730   2.407   3.726  1.4783 -1.1829 -0.7394
 8146SOL     OW25280   3.808   3.939   2.358 -0.2921  0.1227 -0.3347
 8146SOL    HW125281   3.803   3.942   2.453  1.5270  1.0770 -0.2332
 8146SOL    HW225282   3.793   4.030   2.331 -3.1169 -0.4700 -1.1735
 8147SOL     OW25283   4.646   0.073   5.845  0.4396 -0.2503  0.0103
 8147SOL    HW125284   4.579   0.016   5.806  0.8038 -1.9203  1.6682
 8147SOL    HW225285   4.655   0.042   5.935  0.1690  2.9402  1.2783
 8148SOL     OW25286   0.811   0.408   2.648 -1.2149  0.0502  0.6879
 8148SOL    HW125287   0.756   0.335   2.619 -1.1104  0.4085 -0.4572
 8148SOL    HW225288   0.896   0.368   2.666 -0.9456 -0.0083 -0.6541
 8149SOL     OW25289   4.451   5.250   2.469 -0.2960  0.2627  0.4699
 8149SOL    HW125290   4.495   5.249   2.554  0.3340 -2.3772  0.2150
 8149SOL    HW225291   4.385   5.182   2.476 -1.9631  1.7233 -0.3762
 8150SOL     OW25292   1.738   5.595   1.811 -0.0396  0.1876 -0.3800
 8150SOL    HW125293   1.830   5.573   1.829 -0.1170 -1.0917 -1.3982
 8150SOL    HW225294   1.724   5.678   1.856  1.6006  0.3736 -0.1562
 8151SOL     OW25295   7.814   6.509   1.678  0.1927  0.2672 -0.4270
 8151SOL    HW125296   7.780   6.514   1.589  1.7144 -0.7533 -1.1187
 8151SOL    HW225297   7.903   6.544   1.672 -0.1055  1.3817  0.9815
 8152SOL     OW25298   2.166   0.432   0.188 -0.3795 -0.0578 -0.4614
 8152SOL    HW125299   2.243   0.469   0.230 -0.6844  1.7665 -1.3850
 8152SOL    HW225300   2.199   0.386   0.111 -0.0972 -0.5807 -0.0284
 8153SOL     OW25301   2.449   5.219   6.013 -0.4706 -0.1568 -0.3754
 8153SOL    HW125302   2.439   5.138   5.961  0.7157 -0.1260 -0.6835
 8153SOL    HW225303   2.368   5.267   5.998 -0.1799 -0.1528 -2.2543
 8154SOL     OW25304   5.912   1.608   2.683  0.4287 -0.2723 -0.6048
 8154SOL    HW125305   5.886   1.527   2.639  0.5055 -0.2422 -0.7053
 8154SOL    HW225306   5.833   1.638   2.727  0.7914 -1.2700  0.7975
 8155SOL     OW25307   4.215   6.837   3.096  0.2845  0.2544  0.3582
 8155SOL    HW125308   4.132   6.884   3.083  0.9820  1.7394  0.9684
 8155SOL    HW225309   4.272   6.871   3.027  1.1147  1.1308  1.4289
 8156SOL     OW25310   1.983   3.514   1.849 -0.4138 -0.1305 -0.0127
 8156SOL    HW125311   1.954   3.569   1.922 -0.8991  0.3165 -0.5351
 8156SOL    HW225312   1.938   3.549   1.772  1.0266  0.2050 -0.7498
 8157SOL     OW25313   2.658   5.839   1.826  0.0954 -0.0430 -0.3369
 8157SOL    HW125314   2.652   5.746   1.845 -0.7890 -0.1441 -1.0931
 8157SOL    HW225315   2.572   5.874   1.849  0.6691  0.7407  0.7055
 8158SOL     OW25316   5.845   5.271   1.232 -0.4426  0.1570  0.4355
 8158SOL    HW125317   5.808   5.214   1.165  1.5027 -0.8064  0.1099
 8158SOL    HW225318   5.869   5.212   1.303  0.6648  0.6800  0.5290
 8159SOL     OW25319   3.632   4.909   3.533  0.1839 -0.1434  0.9832
 8159SOL    HW125320   3.562   4.848   3.509 -0.5940  0.5377  1.4679
 8159SOL    HW225321   3.646   4.893   3.627  0.7049 -0.3000  0.8806
 8160SOL     OW25322   6.128   3.933   6.742  0.3693 -0.5087 -0.4180
 8160SOL    HW125323   6.156   3.856   6.792 -0.5505 -0.4075  0.2761
 8160SOL    HW225324   6.032   3.927   6.741  0.2858  0.6139 -0.3673
 8161SOL     OW25325   3.674   0.257   7.151 -0.4906  0.1804  0.5081
 8161SOL    HW125326   3.599   0.305   7.115  0.7462  0.8988 -1.2335
 8161SOL    HW225327   3.636   0.203   7.221 -2.2248  2.3558  1.3853
 8162SOL     OW25328   1.949   2.118   1.911  0.0194  0.3240 -0.5582
 8162SOL    HW125329   1.920   2.033   1.944  1.3385  0.5778  1.4841
 8162SOL    HW225330   2.017   2.098   1.847 -0.0634 -0.1796 -0.4884
 8163SOL     OW25331   7.156   7.720   3.697  0.3529  0.2707  0.5555
 8163SOL    HW125332   7.148   7.703   3.603  0.7561  0.0320  0.5638
 8163SOL    HW225333   7.248   7.740   3.710  0.1816  0.9306  0.8010
 8164SOL     OW25334   1.808   3.575   0.921  0.6001  0.3876  0.2728
 8164SOL    HW125335   1.761   3.530   0.991 -0.4111  0.3460 -0.3951
 8164SOL    HW225336   1.808   3.512   0.848 -0.6796  1.3626 -0.6173
 8165SOL     OW25337   7.051   0.245   8.120 -0.7085 -0.2894 -0.1663
 8165SOL    HW125338   7.031   0.154   8.143 -0.1296  0.0350  1.8003
 8165SOL    HW225339   7.147   0.250   8.124 -0.7904  0.7652  1.3923
 8166SOL     OW25340   7.593   6.147   3.154  0.5170  0.2041  0.3042
 8166SOL    HW125341   7.670   6.149   3.211  1.6584  0.2247 -1.1937
 8166SOL    HW225342   7.628   6.144   3.066 -1.2068  2.3569 -0.5324
 8167SOL     OW25343   0.587   8.180   7.489 -0.6885 -0.4856  0.6018
 8167SOL    HW125344   0.608   8.101   7.440  2.4542  0.3642  0.3757
 8167SOL    HW225345   0.501   8.206   7.457 -0.6649 -2.3846 -1.1938
 8168SOL     OW25346   4.878   5.042   5.874  0.6499 -0.6682 -0.1814
 8168SOL    HW125347   4.815   5.044   5.946  0.0474 -1.3212 -0.6750
 8168SOL    HW225348   4.929   4.962   5.889  0.0342 -1.2017 -0.8726
 8169SOL     OW25349   7.418   7.402   4.128 -0.3546  0.1764  0.9523
 8169SOL    HW125350   7.436   7.492   4.101  0.5330  0.1340  1.3444
 8169SOL    HW225351   7.356   7.369   4.064  1.0982  0.3196 -0.5891
 8170SOL     OW25352   2.417   4.355   5.662  0.1108  0.7014  0.4774
 8170SOL    HW125353   2.482   4.375   5.595  0.0459 -0.0684  0.1714
 8170SOL    HW225354   2.448   4.401   5.740 -0.0420  1.9506 -0.1801
 8171SOL     OW25355   2.100   3.264   5.470  0.4818 -0.1585 -0.4264
 8171SOL    HW125356   2.074   3.282   5.380  0.2176 -0.0866 -0.3392
 8171SOL    HW225357   2.024   3.219   5.508 -0.9716  2.9874  0.8128
 8172SOL     OW25358   2.419   4.951   5.831 -0.0692  0.1013 -0.1500
 8172SOL    HW125359   2.373   4.964   5.748  1.8866  1.2576 -1.1281
 8172SOL    HW225360   2.502   4.998   5.820  1.6123 -2.3052  1.2996
 8173SOL     OW25361   5.203   7.334   5.253  0.5710 -0.4976 -0.0819
 8173SOL    HW125362   5.138   7.271   5.284 -0.4764 -0.3954 -1.9362
 8173SOL    HW225363   5.285   7.284   5.251 -0.1444 -1.6965 -1.0418
 8174SOL     OW25364   7.578   1.958   0.699 -0.1978 -0.0939 -0.0035
 8174SOL    HW125365   7.604   1.983   0.787 -1.6286  1.1981  0.0857
 8174SOL    HW225366   7.660   1.932   0.656  0.4957 -0.8724  1.7188
 8175SOL     OW25367   4.561   2.362   5.033 -0.3053  0.0727  0.1713
 8175SOL    HW125368   4.519   2.353   4.948 -0.0566 -0.3203  0.0909
 8175SOL    HW225369   4.655   2.359   5.014 -0.2566 -0.9064  0.5585
 8176SOL     OW25370   4.969   1.943   2.202 -0.2818 -0.2906 -0.1933
 8176SOL    HW125371   5.054   1.905   2.227 -0.6528 -0.9277  0.1193
 8176SOL    HW225372   4.943   1.995   2.278 -0.6601 -0.9425  0.1300
 8177SOL     OW25373   6.562   2.203   6.336  0.2381  0.1345 -0.0036
 8177SOL    HW125374   6.628   2.191   6.403 -1.7148 -0.8169  1.8702
 8177SOL    HW225375   6.572   2.294   6.308  0.7822  0.7357  1.9786
 8178SOL     OW25376   1.834   3.741   3.978 -0.1972  0.5335 -0.5742
 8178SOL    HW125377   1.855   3.726   4.070 -1.1930  2.2255 -0.0285
 8178SOL    HW225378   1.894   3.684   3.930  0.0320 -0.7242  1.1182
 8179SOL     OW25379   1.530   7.802   7.045  0.8887 -0.0723  0.2029
 8179SOL    HW125380   1.606   7.835   6.997  0.6005 -0.7950 -0.8032
 8179SOL    HW225381   1.488   7.879   7.081  2.1171  0.3352  0.8016
 8180SOL     OW25382   5.702   6.692   6.424 -0.1209  0.3792 -0.1931
 8180SOL    HW125383   5.702   6.676   6.329 -0.5840  0.1717 -0.1636
 8180SOL    HW225384   5.668   6.610   6.462  1.2886 -0.0165  0.2471
 8181SOL     OW25385   5.572   2.756   5.939  0.0870  0.1494 -0.4706
 8181SOL    HW125386   5.531   2.792   6.017 -0.3484  1.0003 -1.0706
 8181SOL    HW225387   5.499   2.720   5.888  0.1695  0.9462 -1.1706
 8182SOL     OW25388   4.978   7.667   4.253 -0.2306 -0.1321 -0.0396
 8182SOL    HW125389   4.967   7.754   4.215 -1.1768 -0.5497 -0.7646
 8182SOL    HW225390   4.911   7.662   4.321 -1.8011 -1.1243 -1.5817
 8183SOL     OW25391   1.419   5.833   4.414  0.5757 -0.1148  0.3036
 8183SOL    HW125392   1.401   5.895   4.485  1.6790  1.1391 -0.4658
 8183SOL    HW225393   1.340   5.780   4.409  0.6400 -0.5477  2.7525
 8184SOL     OW25394   3.214   1.073   0.638  0.5518  1.0386  0.4232
 8184SOL    HW125395   3.196   0.982   0.664  0.7897  1.1770  1.0934
 8184SOL    HW225396   3.308   1.082   0.646  0.3884  1.7588  1.7903
 8185SOL     OW25397   4.964   2.556   6.164 -0.2594  0.0177  0.3579
 8185SOL    HW125398   4.988   2.519   6.249  0.5390  1.1425  0.6359
 8185SOL    HW225399   5.016   2.635   6.156 -1.6026  0.8712 -0.4255
 8186SOL     OW25400   3.513   6.266   2.951  0.0303  0.2254  0.4066
 8186SOL    HW125401   3.498   6.359   2.934  0.1781  0.6089  2.1866
 8186SOL    HW225402   3.426   6.231   2.970 -0.0923 -0.1226 -0.7574
 8187SOL     OW25403   2.700   4.150   3.222 -0.3313 -0.2569 -0.3009
 8187SOL    HW125404   2.698   4.245   3.235 -1.1587 -0.1552 -1.0630
 8187SOL    HW225405   2.723   4.114   3.308  0.1611  0.6347 -0.0514
 8188SOL     OW25406   8.066   7.125   4.832 -0.2651 -0.5250 -0.0081
 8188SOL    HW125407   8.023   7.106   4.749 -0.3519 -2.1933  0.3713
 8188SOL    HW225408   8.072   7.039   4.875  2.9746 -0.3141  0.1823
 8189SOL     OW25409   5.154   1.634   1.542 -0.2844  0.1783 -0.2078
 8189SOL    HW125410   5.225   1.609   1.600 -0.9193 -1.1820  0.0053
 8189SOL    HW225411   5.167   1.582   1.463 -0.9505  0.0370 -0.2314
 8190SOL     OW25412   7.999   4.665   0.481  0.1908  0.2216  0.8127
 8190SOL    HW125413   8.041   4.748   0.458 -0.8980  1.0155  1.5599
 8190SOL    HW225414   8.057   4.627   0.547  2.6233 -1.4379 -2.0928
 8191SOL     OW25415   6.769   1.541   3.884 -0.3828 -0.0186 -0.4078
 8191SOL    HW125416   6.844   1.555   3.826 -1.6443 -0.5696 -2.2637
 8191SOL    HW225417   6.771   1.447   3.903 -1.4495 -0.3550 -1.7759
 8192SOL     OW25418   6.290   2.738   7.930 -0.2130  0.1135  0.1345
 8192SOL    HW125419   6.379   2.725   7.897 -0.1047  1.6777 -0.2753
 8192SOL    HW225420   6.235   2.735   7.852 -0.5185 -0.7049  0.3696
 8193SOL     OW25421   3.357   7.596   1.043 -0.3684  0.6522  0.0092
 8193SOL    HW125422   3.296   7.546   1.097  1.1527 -0.4566  0.7862
 8193SOL    HW225423   3.401   7.655   1.105 -0.6130  1.4095 -0.5293
 8194SOL     OW25424   5.080   4.752   0.275  0.1860 -0.5726 -0.3817
 8194SOL    HW125425   5.016   4.723   0.210 -0.5620 -1.1466  0.5909
 8194SOL    HW225426   5.032   4.814   0.330  1.0255  0.4979 -0.8165
 8195SOL     OW25427   4.906   1.668   3.414  0.7194  0.5684  0.3856
 8195SOL    HW125428   4.931   1.717   3.336 -2.4433 -0.1973 -1.2869
 8195SOL    HW225429   4.836   1.720   3.454 -1.2936 -1.4175 -0.3117
 8196SOL     OW25430   3.981   6.161   2.954  0.5239 -0.4553  0.1540
 8196SOL    HW125431   4.066   6.187   2.919 -0.1798  0.5147 -0.9045
 8196SOL    HW225432   3.938   6.114   2.882  0.6691 -2.1653  1.1237
 8197SOL     OW25433   1.709   2.453   8.037  0.4617  1.1803  0.3463
 8197SOL    HW125434   1.680   2.526   7.983  1.2875 -0.5229 -2.5860
 8197SOL    HW225435   1.800   2.472   8.057  0.5934  1.1076 -0.1759
 8198SOL     OW25436   4.050   8.101   2.812 -0.0229  0.0647  0.4843
 8198SOL    HW125437   4.138   8.138   2.814  0.1715 -0.2583 -0.9013
 8198SOL    HW225438   4.000   8.163   2.758 -0.2260 -0.5960 -0.0914
 8199SOL     OW25439   4.332   5.644   6.562 -0.0238 -0.0405  0.1181
 8199SOL    HW125440   4.347   5.639   6.467 -3.3348 -3.0928 -0.4448
 8199SOL    HW225441   4.262   5.709   6.572 -0.5063 -0.5819  0.3066
 8200SOL     OW25442   3.326   7.888   2.446  0.3738  0.1559 -0.2262
 8200SOL    HW125443   3.291   7.933   2.368  1.5232  0.3926 -0.6317
 8200SOL    HW225444   3.324   7.795   2.423 -1.6993 -0.0230  0.4855
 8201SOL     OW25445   7.311   5.769   4.138 -0.9502 -0.2984 -0.4690
 8201SOL    HW125446   7.299   5.800   4.228  0.6542  0.0132 -0.3416
 8201SOL    HW225447   7.405   5.763   4.127 -1.1217 -0.2787 -2.1720
 8202SOL     OW25448   3.809   1.302   1.608 -0.5468 -0.1773  0.8562
 8202SOL    HW125449   3.812   1.316   1.514  1.5772 -3.6443  0.2210
 8202SOL    HW225450   3.876   1.236   1.625 -2.3968 -1.4386  4.4713
 8203SOL     OW25451   8.020   5.089   1.611  0.7013 -0.1391 -0.2319
 8203SOL    HW125452   8.045   5.041   1.532 -0.6240 -0.6578 -0.3708
 8203SOL    HW225453   7.980   5.022   1.667 -1.1644  0.7641 -0.4125
 8204SOL     OW25454   4.102   2.919   2.042 -0.7316  0.1698  0.0467
 8204SOL    HW125455   4.104   2.937   1.948 -0.2382  0.9726  0.1963
 8204SOL    HW225456   4.159   2.843   2.053 -0.9143 -0.0247 -0.3196
 8205SOL     OW25457   7.535   0.602   6.153  0.1905 -0.8146 -0.1017
 8205SOL    HW125458   7.561   0.662   6.082 -1.2410  0.7952  0.6728
 8205SOL    HW225459   7.447   0.573   6.129 -1.7464  2.2909  2.4171
 8206SOL     OW25460   7.973   2.376   5.672 -0.0138  0.3655  0.1483
 8206SOL    HW125461   8.047   2.419   5.629  0.5746  0.4460  1.2116
 8206SOL    HW225462   7.898   2.432   5.651  0.0216 -0.1897 -1.6816
 8207SOL     OW25463   7.575   4.887   7.866 -0.6843 -0.4280  0.0396
 8207SOL    HW125464   7.661   4.888   7.908  0.4509  1.8839 -2.1094
 8207SOL    HW225465   7.522   4.948   7.918 -0.3281 -0.1163  0.0383
 8208SOL     OW25466   6.670   2.111   7.482  0.3282 -0.1583  0.4418
 8208SOL    HW125467   6.697   2.038   7.426 -0.6014 -0.7623  0.7580
 8208SOL    HW225468   6.584   2.136   7.448  1.0488  1.4687 -0.2989
 8209SOL     OW25469   4.152   7.616   1.126  0.1476 -0.3583  0.1716
 8209SOL    HW125470   4.151   7.702   1.169 -2.1319  0.0558 -0.5909
 8209SOL    HW225471   4.114   7.557   1.190 -0.1527 -0.3975 -0.0415
 8210SOL     OW25472   6.878   5.696   0.554  0.0735  0.0520  0.5295
 8210SOL    HW125473   6.941   5.628   0.531 -1.1570 -0.1532 -2.8835
 8210SOL    HW225474   6.925   5.778   0.543  0.0220 -0.1223 -1.4414
 8211SOL     OW25475   0.916   6.735   1.462 -0.1931 -0.0009 -0.2363
 8211SOL    HW125476   0.957   6.796   1.401  1.2227 -0.0841  0.5943
 8211SOL    HW225477   0.906   6.785   1.543  2.7642 -1.2993  1.0932
 8212SOL     OW25478   0.325   5.276   1.926 -0.1262  0.5582  0.2900
 8212SOL    HW125479   0.311   5.342   1.858  1.3191 -0.0137 -0.6199
 8212SOL    HW225480   0.385   5.213   1.886 -1.8694 -1.6201  0.9315
 8213SOL     OW25481   4.230   1.301   3.509  0.7642 -0.0753  0.6894
 8213SOL    HW125482   4.160   1.366   3.503  0.8446 -0.0630 -0.3590
 8213SOL    HW225483   4.255   1.284   3.418  1.3789 -0.8916  0.9954
 8214SOL     OW25484   0.299   1.532   2.427 -0.8318  0.3514  0.0094
 8214SOL    HW125485   0.254   1.613   2.450 -1.6851 -0.6929  2.3939
 8214SOL    HW225486   0.231   1.465   2.431  0.2045 -0.7477 -0.1349
 8215SOL     OW25487   3.848   3.043   6.401  0.1417 -0.1464 -0.4196
 8215SOL    HW125488   3.824   3.125   6.358  0.3197  0.8472  1.2881
 8215SOL    HW225489   3.937   3.024   6.370  0.4613  0.8171 -0.1238
 8216SOL     OW25490   3.592   0.337   1.181  0.6795  0.1857 -0.6923
 8216SOL    HW125491   3.586   0.352   1.275 -0.3729 -1.1764 -0.4951
 8216SOL    HW225492   3.585   0.424   1.142 -3.7487  0.5685  0.3451
 8217SOL     OW25493   4.331   7.866   2.578 -0.5341  0.0190 -0.2354
 8217SOL    HW125494   4.235   7.874   2.574 -0.7135 -1.9383 -0.8412
 8217SOL    HW225495   4.362   7.914   2.501 -0.9967  0.8476  0.0803
 8218SOL     OW25496   4.074   6.246   0.573  0.1737  0.3983  0.3864
 8218SOL    HW125497   4.106   6.258   0.662 -1.2182 -0.4647  1.0486
 8218SOL    HW225498   3.979   6.255   0.581 -0.1771 -1.7847 -0.5936
 8219SOL     OW25499   0.812   4.452   0.263 -0.1375  0.1485  0.3957
 8219SOL    HW125500   0.833   4.382   0.324  0.5564  0.5409  0.6209
 8219SOL    HW225501   0.882   4.449   0.197  0.4366  1.2087  0.9284
 8220SOL     OW25502   2.849   6.751   3.692 -0.5212 -0.4718  0.1087
 8220SOL    HW125503   2.814   6.707   3.614 -3.6596 -0.4348  1.3585
 8220SOL    HW225504   2.865   6.841   3.664 -0.0652 -0.8423 -0.8713
 8221SOL     OW25505   3.891   5.051   1.594  0.5981 -0.2183  0.2234
 8221SOL    HW125506   3.824   5.099   1.545  0.4453  0.2817  0.9056
 8221SOL    HW225507   3.972   5.097   1.576  0.8356 -1.0425 -0.8981
 8222SOL     OW25508   4.475   2.617   2.552  0.1971  0.5975  0.5851
 8222SOL    HW125509   4.535   2.542   2.543  0.0213  0.4126  0.9349
 8222SOL    HW225510   4.392   2.578   2.579 -0.1402  0.8336 -0.0904
 8223SOL     OW25511   2.448   6.630   6.858 -0.4855 -0.5282 -0.6806
 8223SOL    HW125512   2.440   6.555   6.798  1.7862 -0.4453 -1.1626
 8223SOL    HW225513   2.415   6.704   6.808 -0.0274 -0.7231 -1.2830
 8224SOL     OW25514   0.888   3.869   2.622  0.1423 -0.2841 -0.3413
 8224SOL    HW125515   0.948   3.921   2.676  0.3872 -1.4388  0.5341
 8224SOL    HW225516   0.801   3.890   2.657  0.1525  0.2878 -0.6518
 8225SOL     OW25517   1.164   0.411   4.528  0.3672 -0.1084 -0.2991
 8225SOL    HW125518   1.076   0.374   4.525 -0.8567  2.5843 -1.9309
 8225SOL    HW225519   1.175   0.441   4.618  0.4383 -2.0979  0.4043
 8226SOL     OW25520   1.785   4.898   6.422 -0.0543  0.0031 -0.3972
 8226SOL    HW125521   1.852   4.965   6.410  0.0349 -0.1666 -0.8824
 8226SOL    HW225522   1.742   4.920   6.504  0.6263  0.0886 -0.0638
 8227SOL     OW25523   3.745   2.861   6.559 -0.0245 -0.0359 -0.2722
 8227SOL    HW125524   3.787   2.779   6.533 -1.4332 -0.0773 -2.6750
 8227SOL    HW225525   3.784   2.927   6.502 -1.3887  0.3399 -0.8058
 8228SOL     OW25526   1.157   5.815   6.192 -0.0444 -0.7777  0.1709
 8228SOL    HW125527   1.244   5.852   6.206  0.5202 -1.8753 -0.3215
 8228SOL    HW225528   1.124   5.799   6.281  0.1674 -0.1919  0.3654
 8229SOL     OW25529   6.676   7.839   0.515 -0.1975 -0.1021  0.4835
 8229SOL    HW125530   6.688   7.850   0.421  0.2716  0.0656  0.5579
 8229SOL    HW225531   6.624   7.759   0.523  1.3369 -1.1778  0.1379
 8230SOL     OW25532   7.908   0.606   2.495 -0.1577  0.3432  0.2107
 8230SOL    HW125533   7.897   0.572   2.584  0.2860  1.0630  0.5449
 8230SOL    HW225534   7.890   0.531   2.438  1.3626 -0.6022  0.9427
 8231SOL     OW25535   5.244   5.136   5.054  0.0584 -0.7248  0.1432
 8231SOL    HW125536   5.181   5.069   5.029  0.9527 -1.6034  0.1409
 8231SOL    HW225537   5.317   5.124   4.993 -0.5819  1.6237 -1.2017
 8232SOL     OW25538   5.797   1.232   6.428 -0.5611  0.1512  0.2115
 8232SOL    HW125539   5.732   1.288   6.471 -0.8937 -0.7425  0.9121
 8232SOL    HW225540   5.748   1.184   6.361 -0.4373  0.1551  0.1182
 8233SOL     OW25541   4.015   7.187   2.461  0.2508 -0.1020  0.2917
 8233SOL    HW125542   4.071   7.227   2.528 -0.1715 -0.2384  0.7346
 8233SOL    HW225543   4.063   7.110   2.433  0.8753  0.4711 -0.2593
 8234SOL     OW25544   7.424   6.663   4.591 -0.2122 -0.2724 -0.0091
 8234SOL    HW125545   7.400   6.571   4.601 -1.0607 -0.0675 -0.0793
 8234SOL    HW225546   7.502   6.662   4.536  0.3199 -0.9969  0.7320
 8235SOL     OW25547   5.644   1.641   2.734  0.1924  0.6472 -0.1608
 8235SOL    HW125548   5.624   1.558   2.779  1.5326 -0.1556 -0.9862
 8235SOL    HW225549   5.629   1.622   2.642  1.0780  1.1361 -0.4155
 8236SOL     OW25550   2.394   4.665   4.596 -0.0582  0.8790 -0.0550
 8236SOL    HW125551   2.394   4.701   4.684  2.0856 -0.3044  0.5000
 8236SOL    HW225552   2.416   4.573   4.607  0.2313  0.6972 -1.8171
 8237SOL     OW25553   1.882   2.558   2.700 -0.5013 -0.3214  0.2944
 8237SOL    HW125554   1.797   2.602   2.694  0.4707  1.5945 -0.4447
 8237SOL    HW225555   1.914   2.579   2.788 -0.0651  0.4561 -0.0362
 8238SOL     OW25556   6.897   4.642   3.568 -0.0666 -0.0085 -0.2744
 8238SOL    HW125557   6.928   4.720   3.614 -1.0017  0.0620  0.2396
 8238SOL    HW225558   6.804   4.658   3.554 -0.8024 -2.0231  1.8761
 8239SOL     OW25559   2.373   7.453   1.640 -0.5112 -0.3467  0.2376
 8239SOL    HW125560   2.288   7.494   1.653 -0.6642 -0.3319 -0.7169
 8239SOL    HW225561   2.382   7.392   1.713 -1.9211 -1.2890 -0.3347
 8240SOL     OW25562   7.706   4.101   8.052  0.2738  0.2519  0.2438
 8240SOL    HW125563   7.771   4.052   8.002  0.3488 -0.9915  1.4934
 8240SOL    HW225564   7.639   4.126   7.989  0.0698 -1.7581 -0.3966
 8241SOL     OW25565   1.387   5.121   5.287  0.1252  0.2121  0.0278
 8241SOL    HW125566   1.475   5.155   5.270 -0.4099  1.0521 -1.1718
 8241SOL    HW225567   1.402   5.045   5.343  1.4861  1.2914  1.2151
 8242SOL     OW25568   2.447   5.488   6.238  0.1325  0.0980  0.4927
 8242SOL    HW125569   2.392   5.562   6.212 -0.9303 -0.8619 -0.1124
 8242SOL    HW225570   2.388   5.413   6.236  0.9315 -0.6378  2.0515
 8243SOL     OW25571   3.564   2.777   2.845 -0.3105 -0.3490  0.3039
 8243SOL    HW125572   3.486   2.828   2.821  0.3458  0.6704  0.3054
 8243SOL    HW225573   3.551   2.693   2.802 -0.1681  0.7033 -1.9094
 8244SOL     OW25574   2.206   5.277   5.608  0.3248  0.1572 -0.1596
 8244SOL    HW125575   2.212   5.194   5.655  0.5520 -0.2291 -0.8584
 8244SOL    HW225576   2.118   5.278   5.571 -0.1740  0.8533  0.9527
 8245SOL     OW25577   4.216   0.384   0.742 -0.2523  0.3543  0.0229
 8245SOL    HW125578   4.192   0.313   0.683  0.5903 -1.3984  1.6854
 8245SOL    HW225579   4.172   0.363   0.825  1.4821  0.7277  1.0934
 8246SOL     OW25580   7.499   3.057   1.866  0.1661 -0.1737 -0.0323
 8246SOL    HW125581   7.488   3.066   1.772  0.2643 -0.0767 -0.0348
 8246SOL    HW225582   7.496   3.147   1.900  1.0029 -0.1339 -0.0418
 8247SOL     OW25583   2.167   0.886   0.423  0.2037  0.0541  0.0218
 8247SOL    HW125584   2.091   0.903   0.366  0.1798  1.8267  0.5118
 8247SOL    HW225585   2.128   0.866   0.508  0.2778 -0.4086 -0.0502
 8248SOL     OW25586   4.439   0.260   3.158  0.2285 -0.6111 -0.0526
 8248SOL    HW125587   4.366   0.242   3.218 -0.9188  0.3444 -1.1199
 8248SOL    HW225588   4.464   0.350   3.177  0.7208 -0.7253 -0.1446
 8249SOL     OW25589   3.400   4.297   5.149  0.1114  1.0841 -0.1797
 8249SOL    HW125590   3.413   4.237   5.075 -1.8657  2.1449 -1.4724
 8249SOL    HW225591   3.439   4.379   5.121  1.6009  0.8332  1.0357
 8250SOL     OW25592   3.327   6.566   7.693  0.1415  0.0950 -0.0101
 8250SOL    HW125593   3.289   6.615   7.621  0.3039 -0.5150 -0.5186
 8250SOL    HW225594   3.306   6.617   7.771  1.9082  1.9740 -0.6779
 8251SOL     OW25595   3.842   7.412   7.379  0.0968  0.3719 -0.0857
 8251SOL    HW125596   3.782   7.481   7.407  0.5732  0.8714 -0.2799
 8251SOL    HW225597   3.834   7.345   7.447 -1.6224 -0.1505 -0.7467
 8252SOL     OW25598   4.100   7.681   2.398  0.1372  0.5202  0.4544
 8252SOL    HW125599   4.056   7.690   2.483  2.1462  1.0191  1.4986
 8252SOL    HW225600   4.129   7.589   2.395  0.4532  0.6179  0.5051
 8253SOL     OW25601   2.299   1.497   0.690 -0.1487  0.3562  0.3805
 8253SOL    HW125602   2.389   1.475   0.711 -0.1556  0.0489  0.0947
 8253SOL    HW225603   2.267   1.545   0.766 -0.1884 -0.7479  1.0729
 8254SOL     OW25604   1.521   4.123   6.198  0.1502 -0.1915  0.1564
 8254SOL    HW125605   1.479   4.124   6.112  0.7258  1.1252 -0.1428
 8254SOL    HW225606   1.608   4.084   6.181 -0.3705 -1.5656  0.5001
 8255SOL     OW25607   5.241   0.338   7.942 -0.1037  0.8265  0.1007
 8255SOL    HW125608   5.249   0.379   8.028 -0.9053  1.0350  0.0884
 8255SOL    HW225609   5.320   0.284   7.933  0.0998  0.9836  0.8612
 8256SOL     OW25610   5.080   6.336   0.150  0.4666 -0.1525 -0.5219
 8256SOL    HW125611   5.064   6.370   0.238  1.8338  1.1080 -0.7262
 8256SOL    HW225612   5.091   6.242   0.162  1.9144  0.1577  0.8748
 8257SOL     OW25613   0.071   3.152   8.204  0.0808 -0.0615  0.2381
 8257SOL    HW125614   0.091   3.204   8.126  1.4100 -0.0294  0.5877
 8257SOL    HW225615   0.009   3.086   8.173 -0.4678  0.7885 -0.5359
 8258SOL     OW25616   3.332   2.374   7.090 -0.1709 -0.7065 -0.3762
 8258SOL    HW125617   3.390   2.438   7.049  0.4575 -0.9879  0.0584
 8258SOL    HW225618   3.321   2.406   7.180 -1.0139 -0.4451 -0.5549
 8259SOL     OW25619   2.090   5.019   1.263 -0.1706  0.3353  0.0359
 8259SOL    HW125620   2.084   5.084   1.332  0.5776 -1.1121  1.5337
 8259SOL    HW225621   2.183   5.013   1.242  0.2144 -2.2366  2.0114
 8260SOL     OW25622   4.815   6.458   6.982  0.1271 -0.9458 -0.5618
 8260SOL    HW125623   4.728   6.421   6.970 -0.7418  1.2611 -1.7583
 8260SOL    HW225624   4.857   6.449   6.897 -0.4814  1.5313 -1.2005
 8261SOL     OW25625   6.835   0.500   1.169  0.4988  0.3024 -0.0093
 8261SOL    HW125626   6.770   0.452   1.220 -0.5607 -0.2836 -1.8078
 8261SOL    HW225627   6.910   0.510   1.228  0.4335 -2.7930  0.7355
 8262SOL     OW25628   3.489   4.597   4.691 -0.1014 -0.0447 -0.5010
 8262SOL    HW125629   3.403   4.630   4.665 -0.2285  0.5428  0.6381
 8262SOL    HW225630   3.549   4.670   4.673 -0.2553  0.5321  1.2270
 8263SOL     OW25631   5.036   7.815   2.447 -0.3725  0.3327  0.0663
 8263SOL    HW125632   5.038   7.808   2.542 -0.3445 -1.1702 -0.0225
 8263SOL    HW225633   4.970   7.751   2.420 -0.0171  0.3812 -0.9430
 8264SOL     OW25634   5.484   5.282   1.470  0.5172  0.3247 -0.0775
 8264SOL    HW125635   5.549   5.352   1.472  0.8790 -0.0144  0.0738
 8264SOL    HW225636   5.473   5.256   1.561  0.0054  0.5261 -0.0764
 8265SOL     OW25637   2.209   3.923   5.074 -0.6602  0.3524 -0.1242
 8265SOL    HW125638   2.171   3.843   5.111 -1.5160  0.6520 -0.3441
 8265SOL    HW225639   2.236   3.974   5.151 -1.8870  0.7058  0.0955
 8266SOL     OW25640   5.193   3.465   7.862  0.2520 -0.0878  0.2082
 8266SOL    HW125641   5.139   3.499   7.934 -0.5492  1.7789 -1.1807
 8266SOL    HW225642   5.226   3.543   7.818 -0.5087 -1.0933 -2.3366
 8267SOL     OW25643   7.449   7.966   2.845  0.5779 -0.8376  0.1876
 8267SOL    HW125644   7.355   7.955   2.860  0.4806 -0.8197 -0.3902
 8267SOL    HW225645   7.457   8.056   2.812  1.1564  0.3205  3.1492
 8268SOL     OW25646   7.603   4.709   3.763  0.2914 -0.5209 -0.1984
 8268SOL    HW125647   7.696   4.687   3.772 -0.0484 -1.6779  0.7975
 8268SOL    HW225648   7.559   4.653   3.828 -1.0419  0.4200 -0.2543
 8269SOL     OW25649   3.615   0.147   2.847  0.0590  0.1738 -0.1288
 8269SOL    HW125650   3.564   0.227   2.851  2.3020  1.6344  2.2716
 8269SOL    HW225651   3.613   0.123   2.754 -0.7588  2.9716 -0.9466
 8270SOL     OW25652   7.321   2.930   6.378 -0.3538  0.7430  1.0514
 8270SOL    HW125653   7.229   2.940   6.401 -1.3735 -2.3657 -0.9610
 8270SOL    HW225654   7.368   2.937   6.461 -2.8129 -1.0663  2.7288
 8271SOL     OW25655   7.305   4.672   5.172 -0.4762  0.1482 -0.4589
 8271SOL    HW125656   7.222   4.691   5.126 -0.4726 -1.3951 -1.1761
 8271SOL    HW225657   7.303   4.578   5.186  1.8050 -0.1666 -1.7829
 8272SOL     OW25658   2.071   0.751   7.200 -0.3624  0.3883  0.1526
 8272SOL    HW125659   2.007   0.792   7.141  0.1877 -0.8978 -1.3970
 8272SOL    HW225660   2.151   0.801   7.186  0.4218 -1.3222 -2.0420
 8273SOL     OW25661   6.430   6.562   1.149  0.9943 -0.5840 -0.4005
 8273SOL    HW125662   6.389   6.648   1.147  1.6597 -0.2407  0.1829
 8273SOL    HW225663   6.507   6.571   1.092  1.4718 -0.5665  0.2370
 8274SOL     OW25664   2.640   7.641   2.401 -0.2066  0.4014 -0.3122
 8274SOL    HW125665   2.639   7.635   2.496 -1.1614  2.2099 -0.1752
 8274SOL    HW225666   2.606   7.556   2.371  0.3158 -0.2674  0.9190
 8275SOL     OW25667   6.085   6.805   2.258 -0.3667  0.1965 -0.4435
 8275SOL    HW125668   5.995   6.801   2.291 -1.1867 -0.2806 -2.5897
 8275SOL    HW225669   6.078   6.855   2.176  0.9001 -1.8140 -1.8459
 8276SOL     OW25670   8.070   1.498   7.230  0.1700 -0.5330 -0.9576
 8276SOL    HW125671   8.085   1.475   7.322  0.8688 -0.5137 -1.0613
 8276SOL    HW225672   7.996   1.559   7.233  0.5761 -0.0511 -0.3435
 8277SOL     OW25673   3.767   7.330   7.663  0.1117  0.0160  0.3119
 8277SOL    HW125674   3.858   7.313   7.637 -0.2744  0.7279 -1.6476
 8277SOL    HW225675   3.741   7.251   7.711  1.0297 -1.2514 -1.1762
 8278SOL     OW25676   6.812   7.710   5.683  0.2599 -0.0910  0.3759
 8278SOL    HW125677   6.894   7.671   5.652 -0.0123 -1.0073  0.7541
 8278SOL    HW225678   6.780   7.649   5.749 -0.4745  0.5130  0.5980
 8279SOL     OW25679   1.048   5.652   1.246 -0.0776  0.0530 -0.2370
 8279SOL    HW125680   1.035   5.746   1.242  2.1281  0.4468  0.4669
 8279SOL    HW225681   1.053   5.633   1.340 -1.6660 -0.9760 -0.3271
 8280SOL     OW25682   7.139   7.084   3.642 -0.3967  0.2577 -0.2927
 8280SOL    HW125683   7.201   7.053   3.576 -1.9354 -0.9121 -1.2540
 8280SOL    HW225684   7.156   7.178   3.648  1.3748  0.0030 -0.5906
 8281SOL     OW25685   7.930   8.169   1.798  0.0087  0.3592  0.2929
 8281SOL    HW125686   7.875   8.202   1.726 -0.9623  0.1260  0.9111
 8281SOL    HW225687   7.991   8.240   1.816 -0.3727  0.7998 -0.1215
 8282SOL     OW25688   3.498   4.531   7.990 -0.3721  0.2056 -0.2495
 8282SOL    HW125689   3.498   4.453   7.934  0.9335  1.7688 -2.6024
 8282SOL    HW225690   3.407   4.562   7.988  0.0405  1.5933 -3.7129
 8283SOL     OW25691   7.708   3.485   2.678  1.0435  0.1005 -0.3715
 8283SOL    HW125692   7.622   3.523   2.661  0.8764  0.1633  0.5631
 8283SOL    HW225693   7.734   3.520   2.763  1.9982  0.0846 -0.6441
 8284SOL     OW25694   3.427   1.216   3.464  0.5049  0.3179 -0.0023
 8284SOL    HW125695   3.357   1.281   3.458 -0.1289 -0.2871  0.5598
 8284SOL    HW225696   3.385   1.139   3.504  1.7917  0.4083  1.6634
 8285SOL     OW25697   3.299   1.294   5.974  0.3329 -0.3949 -0.0211
 8285SOL    HW125698   3.255   1.257   5.898 -0.5280 -2.5284  1.4269
 8285SOL    HW225699   3.235   1.354   6.012 -0.3289 -1.4443  0.5592
 8286SOL     OW25700   2.008   5.049   6.408 -0.1124 -0.1591  0.2931
 8286SOL    HW125701   2.079   5.080   6.465 -1.1237  0.5845  1.1955
 8286SOL    HW225702   2.035   5.073   6.320  0.2194  1.1877  0.7445
 8287SOL     OW25703   2.850   7.521   6.429 -0.3597  0.0098 -0.0111
 8287SOL    HW125704   2.913   7.495   6.495  0.2680  0.9362 -0.2139
 8287SOL    HW225705   2.872   7.469   6.352  0.9132  1.1267 -0.4330
 8288SOL     OW25706   1.476   0.142   5.235  0.3734  0.3119 -0.1758
 8288SOL    HW125707   1.441   0.179   5.316  0.8738  0.2988  0.0524
 8288SOL    HW225708   1.400   0.107   5.189  0.0722  0.4212  0.2393
 8289SOL     OW25709   7.143   2.909   4.566  0.3007 -0.4139  0.0720
 8289SOL    HW125710   7.052   2.904   4.538  0.3305 -0.9547  0.0636
 8289SOL    HW225711   7.142   2.967   4.642 -0.1637 -0.9997  0.5260
 8290SOL     OW25712   2.376   0.655   3.752 -0.3105 -0.2685  0.2344
 8290SOL    HW125713   2.383   0.596   3.677  1.4547 -0.3934  0.4390
 8290SOL    HW225714   2.303   0.621   3.804  1.2139 -2.9081  0.8458
 8291SOL     OW25715   1.012   5.545   5.606 -0.5302  0.0406  0.1158
 8291SOL    HW125716   0.984   5.510   5.690 -0.3196  0.9310  0.5748
 8291SOL    HW225717   0.960   5.497   5.541 -0.7860 -0.5650  0.7556
 8292SOL     OW25718   5.486   1.129   0.021  0.4062  0.1350 -0.2274
 8292SOL    HW125719   5.550   1.064   0.052 -0.5067 -0.3283  0.7582
 8292SOL    HW225720   5.476   1.110  -0.072  0.8665 -0.5223 -0.1532
 8293SOL     OW25721   3.944   2.470   3.993  0.0202  0.1322  0.1670
 8293SOL    HW125722   3.923   2.407   3.924 -1.1116  0.2728  0.3561
 8293SOL    HW225723   3.908   2.431   4.073 -0.2050  0.7449  0.3782
 8294SOL     OW25724   5.077   6.494   0.522  0.6853  0.1662 -0.3569
 8294SOL    HW125725   4.998   6.440   0.512  0.3923  0.7862 -1.5668
 8294SOL    HW225726   5.149   6.432   0.517  0.3090 -0.2920 -0.2268
 8295SOL     OW25727   5.427   5.820   7.642 -0.1578  0.1642  0.2452
 8295SOL    HW125728   5.394   5.906   7.670  0.6605  0.2048  1.1157
 8295SOL    HW225729   5.351   5.776   7.604 -1.4479 -0.0601  2.8964
 8296SOL     OW25730   3.584   4.382   2.155 -0.0218 -0.0528  0.0001
 8296SOL    HW125731   3.550   4.448   2.216  0.9292  0.3711  0.0860
 8296SOL    HW225732   3.508   4.358   2.101 -0.1855  1.8162 -0.6670
 8297SOL     OW25733   6.123   8.111   5.042  0.1844  0.2764  0.3932
 8297SOL    HW125734   6.122   8.037   5.103 -2.2546  0.4273  0.6496
 8297SOL    HW225735   6.209   8.151   5.053  1.5099 -2.3626  0.3928
 8298SOL     OW25736   1.745   7.017   6.204 -0.0945 -0.0283  0.5363
 8298SOL    HW125737   1.767   7.006   6.112  0.8800  0.8003  0.6534
 8298SOL    HW225738   1.826   7.045   6.245 -0.5158 -0.3892  1.6540
 8299SOL     OW25739   4.979   2.267   0.854  0.1037  0.7033  0.6654
 8299SOL    HW125740   4.903   2.219   0.819  0.4355 -0.9307  2.0306
 8299SOL    HW225741   5.054   2.213   0.829  0.7523  1.7826  0.2026
 8300SOL     OW25742   2.399   6.516   0.957  0.3541  0.0037 -0.5338
 8300SOL    HW125743   2.352   6.599   0.947  0.7547  0.3160  0.0910
 8300SOL    HW225744   2.331   6.449   0.948 -0.0243  0.4080 -0.7425
 8301SOL     OW25745   2.447   3.559   2.902  0.5717 -0.3493 -0.3763
 8301SOL    HW125746   2.378   3.570   2.966  2.1097 -0.9176  1.4615
 8301SOL    HW225747   2.485   3.647   2.892 -1.2082  0.2751 -2.4523
 8302SOL     OW25748   3.137   6.522   5.755  0.1231  0.6598 -0.5127
 8302SOL    HW125749   3.172   6.551   5.839  0.2920 -0.7443 -0.0715
 8302SOL    HW225750   3.042   6.534   5.763  0.1112  0.2437 -0.0045
 8303SOL     OW25751   3.692   0.826   4.685 -0.2424  0.1126 -0.4671
 8303SOL    HW125752   3.692   0.733   4.707  0.5589 -0.1001 -1.2838
 8303SOL    HW225753   3.605   0.843   4.650 -0.2834 -0.4125 -0.6255
 8304SOL     OW25754   1.999   4.104   4.963  0.5129 -0.6373  0.5455
 8304SOL    HW125755   2.015   4.184   4.914 -1.0726 -0.6681 -0.0979
 8304SOL    HW225756   2.086   4.070   4.984  1.3626 -1.2817 -3.3261
 8305SOL     OW25757   6.052   0.536   6.987  0.7152 -0.5876  0.0824
 8305SOL    HW125758   6.068   0.604   6.921 -2.0263  1.5648  1.4339
 8305SOL    HW225759   6.069   0.580   7.071 -1.4208 -1.4121  1.0163
 8306SOL     OW25760   7.594   1.811   6.503  0.0891 -0.4021  0.3139
 8306SOL    HW125761   7.653   1.743   6.470 -1.5274 -0.8437 -1.9194
 8306SOL    HW225762   7.507   1.782   6.475 -0.7015  2.3367 -0.3532
 8307SOL     OW25763   2.451   3.084   6.491  0.3655  0.3940 -0.3847
 8307SOL    HW125764   2.412   3.161   6.532  0.0927 -1.6117  3.5773
 8307SOL    HW225765   2.544   3.104   6.486  0.6321  0.4004  2.5535
 8308SOL     OW25766   2.639   6.423   0.886 -0.7056 -0.2048 -0.0591
 8308SOL    HW125767   2.653   6.459   0.798 -1.4115 -0.9767 -0.4958
 8308SOL    HW225768   2.548   6.443   0.906 -0.7361 -0.6211  0.2190
 8309SOL     OW25769   7.152   5.859   2.775 -0.6502 -0.0457  0.3877
 8309SOL    HW125770   7.221   5.822   2.830 -1.3160 -1.3029  0.4085
 8309SOL    HW225771   7.108   5.783   2.737 -4.0979  0.4645  2.8665
 8310SOL     OW25772   1.257   1.355   0.221 -0.2400  0.1722 -0.7500
 8310SOL    HW125773   1.173   1.320   0.191 -0.5868  0.2242  0.1326
 8310SOL    HW225774   1.261   1.330   0.314  0.6040  0.3879 -0.7278
 8311SOL     OW25775   1.983   2.265   0.143 -0.5642  0.1628 -0.0239
 8311SOL    HW125776   2.048   2.322   0.184 -0.9347  1.5834 -1.2895
 8311SOL    HW225777   2.031   2.222   0.072 -0.6593  0.1510 -0.0813
 8312SOL     OW25778   6.676   4.143   4.633  0.3635 -0.2591 -0.0040
 8312SOL    HW125779   6.611   4.145   4.704 -0.8587 -2.3417 -0.9431
 8312SOL    HW225780   6.735   4.072   4.657  0.8703  0.0512 -0.3257
 8313SOL     OW25781   5.147   4.518   1.730 -0.6238  0.0132  0.7681
 8313SOL    HW125782   5.191   4.521   1.815 -0.3439 -0.1169  0.6301
 8313SOL    HW225783   5.060   4.484   1.748 -1.1099  1.4094  1.2312
 8314SOL     OW25784   7.412   6.445   1.389 -0.2642  0.0668  0.6133
 8314SOL    HW125785   7.352   6.514   1.420 -1.9080 -0.9047 -0.2607
 8314SOL    HW225786   7.468   6.489   1.325 -1.4077  0.5776 -0.0672
 8315SOL     OW25787   4.316   1.371   7.134 -0.2280 -0.2254 -0.2702
 8315SOL    HW125788   4.325   1.350   7.227  1.6625  2.4359  0.2886
 8315SOL    HW225789   4.405   1.364   7.099 -0.3468  1.7283 -1.1006
 8316SOL     OW25790   0.732   1.343   7.821  0.4672 -0.5886  0.4646
 8316SOL    HW125791   0.813   1.377   7.785  0.3772 -1.2690 -0.4296
 8316SOL    HW225792   0.757   1.305   7.905  0.4986  1.9337  1.6678
 8317SOL     OW25793   4.713   1.802   4.704 -0.0705 -0.1526 -0.2241
 8317SOL    HW125794   4.753   1.790   4.618  0.7564 -1.7181  0.3418
 8317SOL    HW225795   4.675   1.717   4.725 -2.1324  0.7745  0.0784
 8318SOL     OW25796   6.679   3.616   1.039 -0.0405  0.3360 -0.1811
 8318SOL    HW125797   6.629   3.540   1.008 -0.4616  1.1779 -1.6696
 8318SOL    HW225798   6.771   3.589   1.029 -0.1528  0.6438 -2.4746
 8319SOL     OW25799   5.211   4.172   3.477 -0.6118 -0.3171 -0.2059
 8319SOL    HW125800   5.183   4.205   3.392 -0.5774 -0.1716 -0.1626
 8319SOL    HW225801   5.288   4.117   3.459 -1.0190 -0.8448 -0.3411
 8320SOL     OW25802   7.724   1.165   7.913  0.1765  0.2826  0.5586
 8320SOL    HW125803   7.666   1.091   7.929 -0.9604  0.9525 -0.3503
 8320SOL    HW225804   7.674   1.241   7.941  0.1429  0.9793 -1.2459
 8321SOL     OW25805   4.939   5.674   2.341 -0.1998 -0.2176 -0.1234
 8321SOL    HW125806   5.031   5.701   2.346 -0.5906  1.3411 -0.6522
 8321SOL    HW225807   4.897   5.744   2.291 -1.7376 -0.7416  0.3972
 8322SOL     OW25808   6.493   1.782   4.949  0.4353  0.4451 -0.2045
 8322SOL    HW125809   6.443   1.813   5.025  1.6608  2.7188 -0.2443
 8322SOL    HW225810   6.427   1.741   4.893 -0.9712  1.1646  0.8528
 8323SOL     OW25811   7.191   4.322   8.047  0.7394  0.1320 -0.5487
 8323SOL    HW125812   7.221   4.387   8.110  0.9019  1.2864 -1.7885
 8323SOL    HW225813   7.124   4.367   7.996 -1.3119 -1.5955  0.4626
 8324SOL     OW25814   3.740   7.901   2.837  0.1085 -0.5486  0.1411
 8324SOL    HW125815   3.676   7.834   2.814 -1.3844  0.5984  0.7890
 8324SOL    HW225816   3.760   7.945   2.755 -0.4815 -0.4546  0.0467
 8325SOL     OW25817   0.041   0.218   2.346 -0.3595  0.7250  0.1899
 8325SOL    HW125818   0.060   0.311   2.356  0.4788  0.6622 -0.6458
 8325SOL    HW225819   0.086   0.176   2.419  1.3730  0.7489 -0.8144
 8326SOL     OW25820   1.018   6.171   1.346  0.6279  0.2237 -0.0369
 8326SOL    HW125821   1.114   6.178   1.350  0.8298 -1.3952 -1.0845
 8326SOL    HW225822   0.990   6.252   1.303  1.6363  0.2949 -0.6076
 8327SOL     OW25823   7.882   0.453   3.334  0.3984  0.1792  0.6223
 8327SOL    HW125824   7.859   0.361   3.326 -1.5406  0.8343 -3.3959
 8327SOL    HW225825   7.974   0.458   3.307  0.4577 -0.5168  0.6891
 8328SOL     OW25826   7.341   5.564   0.294 -0.0723 -0.2103  0.0384
 8328SOL    HW125827   7.395   5.636   0.325  0.4697 -0.4319 -0.3846
 8328SOL    HW225828   7.268   5.560   0.357 -0.6121  1.3028 -0.4563
 8329SOL     OW25829   3.411   0.495   7.015  0.5716  0.2835  0.1879
 8329SOL    HW125830   3.361   0.440   6.955  0.5395 -0.6817  1.0760
 8329SOL    HW225831   3.351   0.512   7.087  0.7913  0.9846  0.2127
 8330SOL     OW25832   0.617   1.764   1.441  0.1361  0.1860  0.2582
 8330SOL    HW125833   0.570   1.709   1.503 -1.8896  1.3129 -0.1849
 8330SOL    HW225834   0.670   1.822   1.495 -1.4538  1.0264  0.9634
 8331SOL     OW25835   8.184   2.555   3.134  0.5252  0.2189 -0.0651
 8331SOL    HW125836   8.221   2.631   3.179  1.0819 -0.2771  0.3367
 8331SOL    HW225837   8.094   2.550   3.165  0.2756  1.1075 -0.6148
 8332SOL     OW25838   7.549   4.414   2.413  0.2959 -0.2207 -0.4831
 8332SOL    HW125839   7.609   4.440   2.483 -0.9161  1.9639 -0.1546
 8332SOL    HW225840   7.575   4.467   2.338  0.3889 -1.1543 -1.1236
 8333SOL     OW25841   3.359   2.468   3.824  0.0303  0.3055 -0.1014
 8333SOL    HW125842   3.425   2.538   3.823 -0.4456  0.7735  0.3150
 8333SOL    HW225843   3.292   2.500   3.885 -0.0365 -0.6690  0.3486
 8334SOL     OW25844   6.796   1.087   5.209 -0.2675  0.0400  0.2449
 8334SOL    HW125845   6.704   1.111   5.216 -0.2363 -0.2658  2.0799
 8334SOL    HW225846   6.809   1.020   5.276  1.4698  0.6061  0.5258
 8335SOL     OW25847   0.969   6.953   1.284  0.0778 -0.3892 -0.8406
 8335SOL    HW125848   0.912   7.028   1.296  0.1683 -0.2552 -1.2388
 8335SOL    HW225849   1.049   6.988   1.244  0.4217 -0.5825 -0.3328
 8336SOL     OW25850   1.814   8.124   3.237 -0.3731 -0.9480 -0.2627
 8336SOL    HW125851   1.740   8.185   3.241 -0.4389 -0.9326 -1.3477
 8336SOL    HW225852   1.881   8.162   3.293 -0.6840 -0.2537 -0.3584
 8337SOL     OW25853   3.827   0.763   1.280 -0.0090 -0.3751 -0.1511
 8337SOL    HW125854   3.908   0.804   1.311 -1.1864  0.5608  1.8438
 8337SOL    HW225855   3.856   0.679   1.245  2.1127  0.8955 -1.7514
 8338SOL     OW25856   5.596   4.659   4.360  0.4304 -0.0422  0.5503
 8338SOL    HW125857   5.646   4.582   4.387  1.1956  0.4895  0.6673
 8338SOL    HW225858   5.646   4.696   4.287 -0.9109 -0.7004 -0.7661
 8339SOL     OW25859   2.662   0.364   3.393 -0.0686  0.7139  0.4129
 8339SOL    HW125860   2.755   0.365   3.417  0.1822 -0.8274 -0.3988
 8339SOL    HW225861   2.662   0.360   3.298 -0.9167 -0.8286  0.4464
 8340SOL     OW25862   2.401   2.737   1.777  0.2009  0.7706 -0.0106
 8340SOL    HW125863   2.486   2.781   1.786  0.9773 -0.7533  0.4229
 8340SOL    HW225864   2.422   2.651   1.740 -1.0440  0.0258  0.9395
 8341SOL     OW25865   3.891   4.116   2.665 -0.1376 -0.3037  0.1653
 8341SOL    HW125866   3.818   4.177   2.664 -0.3466 -0.5553  0.0141
 8341SOL    HW225867   3.852   4.031   2.683 -0.2630 -0.8881 -2.3706
 8342SOL     OW25868   2.742   6.398   5.629 -0.6952 -0.0822 -0.5497
 8342SOL    HW125869   2.762   6.479   5.675  0.5960 -1.0609  0.7045
 8342SOL    HW225870   2.743   6.422   5.536 -0.2109  1.2946 -0.2138
 8343SOL     OW25871   7.136   0.362   7.247 -0.0538  0.2237 -0.0832
 8343SOL    HW125872   7.157   0.270   7.261  0.6367  0.1775 -1.2571
 8343SOL    HW225873   7.145   0.403   7.333  0.6561 -0.6153  0.2507
 8344SOL     OW25874   1.850   1.346   2.725 -0.1129 -0.7938  0.4886
 8344SOL    HW125875   1.791   1.305   2.788  1.0034 -0.8890  1.5220
 8344SOL    HW225876   1.867   1.433   2.761  0.9520 -1.0408  0.6272
 8345SOL     OW25877   5.699   0.360   0.225  0.5559 -0.4861 -0.3579
 8345SOL    HW125878   5.654   0.294   0.277  0.7284 -0.2487  0.0969
 8345SOL    HW225879   5.710   0.435   0.284  1.3758 -0.4734 -0.5107
 8346SOL     OW25880   6.820   1.503   5.954 -0.5642 -0.2042  0.4842
 8346SOL    HW125881   6.816   1.472   6.044  4.2719 -0.4767  0.8712
 8346SOL    HW225882   6.899   1.462   5.918 -1.1041  1.5659 -3.2108
 8347SOL     OW25883   1.484   7.147   4.799 -0.7039 -0.3024 -0.2430
 8347SOL    HW125884   1.496   7.212   4.730  0.0764  2.0373  1.9259
 8347SOL    HW225885   1.543   7.076   4.775  1.2732  1.4288 -0.9182
 8348SOL     OW25886   3.843   1.494   0.507  0.0462 -0.1502  0.6007
 8348SOL    HW125887   3.900   1.560   0.547  1.8044 -0.7501 -0.7804
 8348SOL    HW225888   3.894   1.413   0.511 -1.4227 -1.1020  0.8106
 8349SOL     OW25889   8.057   8.215   3.891 -0.2851 -0.3708  0.4477
 8349SOL    HW125890   7.987   8.150   3.902 -0.6144  0.1515  1.5518
 8349SOL    HW225891   8.132   8.164   3.861 -1.2461 -0.8783 -1.2570
 8350SOL     OW25892   4.392   3.972   1.335  0.0931  0.1219 -0.6357
 8350SOL    HW125893   4.424   4.056   1.367  3.6498 -0.6654 -1.6330
 8350SOL    HW225894   4.366   3.924   1.414  0.9717  1.0646  0.2486
 8351SOL     OW25895   5.890   2.643   3.543 -0.0755 -0.0096 -0.0066
 8351SOL    HW125896   5.884   2.734   3.514 -1.5062  0.2158  0.9291
 8351SOL    HW225897   5.877   2.647   3.638  1.9380 -1.0019  0.3784
 8352SOL     OW25898   6.127   0.718   2.373 -0.4218 -0.3563 -0.3133
 8352SOL    HW125899   6.200   0.767   2.333 -1.8916  0.4574 -2.1555
 8352SOL    HW225900   6.069   0.697   2.300 -2.1419 -0.8176  1.1120
 8353SOL     OW25901   5.349   5.358   4.839  0.1851  0.2675  0.1265
 8353SOL    HW125902   5.298   5.336   4.760 -1.1788  1.3666  0.6742
 8353SOL    HW225903   5.383   5.273   4.869  0.0757 -0.2728 -1.1818
 8354SOL     OW25904   3.840   2.029   0.025 -0.1709 -0.1443 -0.2268
 8354SOL    HW125905   3.771   2.044  -0.039  1.3849  1.0848 -1.7092
 8354SOL    HW225906   3.899   1.966  -0.018  0.0946 -0.5017  0.6404
 8355SOL     OW25907   1.115   6.040   2.050 -0.2408  0.4594  0.7801
 8355SOL    HW125908   1.115   5.987   2.130 -0.6890 -0.0272  0.4666
 8355SOL    HW225909   1.050   6.108   2.065 -0.1107  0.5488  0.9425
 8356SOL     OW25910   4.898   3.469   1.068 -0.8266 -0.0270 -0.0174
 8356SOL    HW125911   4.980   3.516   1.058 -0.6907  0.3955  2.5265
 8356SOL    HW225912   4.917   3.381   1.035 -0.3421  0.9096 -2.4103
 8357SOL     OW25913   5.723   6.451   1.571  0.0645 -0.2301 -0.2565
 8357SOL    HW125914   5.773   6.441   1.490 -0.9172  0.2367 -0.9320
 8357SOL    HW225915   5.789   6.443   1.640  1.1407  0.7503 -1.1299
 8358SOL     OW25916   1.999   0.948   0.010  0.6146  0.3396  0.2123
 8358SOL    HW125917   2.094   0.952   0.018  0.5271  2.2860  0.8443
 8358SOL    HW225918   1.979   0.855   0.007  2.6663 -0.1212 -1.7557
 8359SOL     OW25919   6.661   6.004   6.047 -0.4078  0.1254  0.2007
 8359SOL    HW125920   6.682   6.031   5.958 -0.1016  1.3848  0.6255
 8359SOL    HW225921   6.683   6.081   6.101 -0.2003 -0.7418  1.4036
 8360SOL     OW25922   3.332   2.728   7.730  0.1592  0.0432 -0.0507
 8360SOL    HW125923   3.278   2.794   7.773  0.6467  0.7598 -0.5153
 8360SOL    HW225924   3.368   2.675   7.801 -0.9105 -0.2577  0.2728
 8361SOL     OW25925   1.719   2.343   6.830 -0.0758  0.6857 -0.2933
 8361SOL    HW125926   1.730   2.274   6.896  0.4259  0.1576 -0.9268
 8361SOL    HW225927   1.639   2.388   6.856 -1.5780 -1.4360 -1.0405
 8362SOL     OW25928   6.444   7.637   2.750  0.3463 -0.4808 -0.2504
 8362SOL    HW125929   6.497   7.558   2.742  0.8484 -0.3676  1.5276
 8362SOL    HW225930   6.367   7.609   2.800  1.3301  0.4392  1.9183
 8363SOL     OW25931   6.388   7.102   6.107  0.5120  0.4647  0.1245
 8363SOL    HW125932   6.415   7.118   6.017  2.0679  0.2239  0.5223
 8363SOL    HW225933   6.361   7.188   6.139 -2.3497  0.1953 -1.2207
 8364SOL     OW25934   6.860   7.899   1.729 -0.0456 -0.0450 -0.5432
 8364SOL    HW125935   6.799   7.826   1.721  1.2005 -0.9825 -2.1870
 8364SOL    HW225936   6.925   7.870   1.792  0.1406 -0.1478 -0.7781
 8365SOL     OW25937   0.387   8.091   1.540  0.2913  0.2017 -0.3495
 8365SOL    HW125938   0.360   8.168   1.490  0.3002  0.6741  0.3517
 8365SOL    HW225939   0.311   8.033   1.539  0.8491 -0.5740 -2.3422
 8366SOL     OW25940   1.509   0.313   5.808 -0.3809  0.3024 -0.1821
 8366SOL    HW125941   1.544   0.358   5.731 -0.4653 -0.4283 -0.6564
 8366SOL    HW225942   1.414   0.328   5.804 -0.6085 -1.1920 -1.2113
 8367SOL     OW25943   1.230   1.665   6.530  0.6211  0.3931 -0.1887
 8367SOL    HW125944   1.160   1.725   6.553  1.3197  1.5405 -0.9672
 8367SOL    HW225945   1.291   1.717   6.478  1.3172 -0.9527 -0.7842
 8368SOL     OW25946   0.400   2.774   7.881  0.4298  0.2263  0.2068
 8368SOL    HW125947   0.387   2.749   7.973 -1.1986 -1.7206 -0.4829
 8368SOL    HW225948   0.475   2.722   7.853 -0.2754 -0.6882 -0.0491
 8369SOL     OW25949   1.739   1.981   3.070 -0.3548  0.2257  0.0868
 8369SOL    HW125950   1.656   1.934   3.079 -0.0918 -0.0437  1.2372
 8369SOL    HW225951   1.744   2.003   2.977 -1.6386  0.1135 -0.0254
 8370SOL     OW25952   3.465   7.877   3.374 -0.1976 -0.3555  0.0185
 8370SOL    HW125953   3.453   7.783   3.361 -1.0107 -0.1150 -1.0699
 8370SOL    HW225954   3.383   7.916   3.345  0.2369  0.7199  0.2005
 8371SOL     OW25955   4.831   7.379   2.674  0.2620 -0.1771 -0.0162
 8371SOL    HW125956   4.812   7.309   2.736  0.2165  0.1227  0.3128
 8371SOL    HW225957   4.883   7.338   2.606 -0.9347 -0.8633 -0.5572
 8372SOL     OW25958   3.207   6.251   0.017 -0.1121  0.6417 -0.1332
 8372SOL    HW125959   3.145   6.241  -0.056  0.5921  1.6945 -0.9059
 8372SOL    HW225960   3.219   6.162   0.050 -1.9718  0.3913  0.0089
 8373SOL     OW25961   0.932   3.825   1.671  0.2699  0.1948  0.0096
 8373SOL    HW125962   1.008   3.805   1.617  1.7416  1.2731  1.5879
 8373SOL    HW225963   0.927   3.921   1.671  1.0969  0.3108  2.7219
 8374SOL     OW25964   2.051   3.431   4.160  0.5011 -0.0056 -0.3765
 8374SOL    HW125965   2.116   3.430   4.090  0.6495  0.5458 -0.2527
 8374SOL    HW225966   2.098   3.466   4.236 -0.3700  2.0444 -0.7312
 8375SOL     OW25967   2.134   4.179   0.434  0.2758 -0.1776 -0.1892
 8375SOL    HW125968   2.134   4.189   0.529 -1.7887 -1.8958  0.0612
 8375SOL    HW225969   2.123   4.268   0.400  0.1020  0.3543  1.2078
 8376SOL     OW25970   6.124   2.510   5.116  0.5781 -0.0165  0.6103
 8376SOL    HW125971   6.089   2.432   5.073  1.3408 -0.6836  1.1736
 8376SOL    HW225972   6.071   2.520   5.195  1.7442 -1.1713  1.5934
 8377SOL     OW25973   4.543   8.205   7.753 -0.3083 -0.6504 -0.0348
 8377SOL    HW125974   4.621   8.151   7.764 -0.7603 -1.4104 -0.4922
 8377SOL    HW225975   4.490   8.157   7.690 -0.5868  0.4825 -0.6722
 8378SOL     OW25976   3.474   4.247   4.499 -0.4827  0.3321  0.0218
 8378SOL    HW125977   3.484   4.181   4.567 -0.8135 -0.4274 -0.6403
 8378SOL    HW225978   3.485   4.198   4.417 -0.8292  1.0799 -0.4808
 8379SOL     OW25979   0.443   3.904   5.674  0.5670  0.4059  0.6078
 8379SOL    HW125980   0.492   3.928   5.753 -0.3856 -1.1530  1.7310
 8379SOL    HW225981   0.488   3.826   5.641  0.5725  0.6750 -0.0285
 8380SOL     OW25982   4.964   1.460   1.991 -0.8638 -0.5285 -0.2550
 8380SOL    HW125983   4.876   1.462   2.030 -0.4368 -1.5192  0.8138
 8380SOL    HW225984   4.977   1.367   1.969  0.1864 -0.4998  0.2327
 8381SOL     OW25985   3.120   7.059   3.429 -0.2305  0.2333 -0.2830
 8381SOL    HW125986   3.043   7.116   3.431  0.0060  0.5415  1.5373
 8381SOL    HW225987   3.192   7.116   3.458  0.4151 -0.4222 -0.5880
 8382SOL     OW25988   5.455   2.693   1.516 -0.3990  0.4491 -0.4554
 8382SOL    HW125989   5.476   2.763   1.578  0.2796 -0.9655  0.9986
 8382SOL    HW225990   5.379   2.649   1.555 -0.1706 -0.2625 -0.7925
 8383SOL     OW25991   7.880   3.873   5.058  0.1889 -0.6481 -0.2955
 8383SOL    HW125992   7.971   3.902   5.056  0.1032  0.0875  2.6582
 8383SOL    HW225993   7.847   3.901   5.143 -3.6720  1.5919 -2.2494
 8384SOL     OW25994   1.418   4.934   7.393 -0.1809 -0.6765  0.7449
 8384SOL    HW125995   1.324   4.926   7.409 -0.0510  0.7492  2.5211
 8384SOL    HW225996   1.435   5.028   7.393  0.8790 -0.7498 -2.3321
 8385SOL     OW25997   3.722   1.207   6.033 -0.3333  0.0068 -0.1894
 8385SOL    HW125998   3.656   1.261   6.077 -0.3598 -1.0682  1.1639
 8385SOL    HW225999   3.713   1.121   6.073  0.4140 -0.7378 -1.5694
 8386SOL     OW26000   8.201   5.527   2.940 -0.4414  0.4962  0.0592
 8386SOL    HW126001   8.147   5.565   3.009  0.7883  0.0801  1.3176
 8386SOL    HW226002   8.234   5.446   2.979 -0.0057  0.0624 -1.1760
 8387SOL     OW26003   5.865   5.979   1.304 -0.0013 -0.4824 -0.0165
 8387SOL    HW126004   5.834   5.938   1.223 -1.7256 -1.4075  1.0279
 8387SOL    HW226005   5.873   5.906   1.366 -0.0990  0.3691  1.0343
 8388SOL     OW26006   1.038   8.046   3.952 -0.1203  0.1080  0.2856
 8388SOL    HW126007   0.973   8.033   3.883 -0.9405  0.9100  0.8836
 8388SOL    HW226008   0.994   8.019   4.033  1.1465 -1.7531  0.4283
 8389SOL     OW26009   6.222   3.757   5.281  0.0333  0.6794  0.3856
 8389SOL    HW126010   6.299   3.700   5.281  0.5384  1.3332 -0.6303
 8389SOL    HW226011   6.151   3.700   5.311  1.0662  0.3144  2.2938
 8390SOL     OW26012   6.139   2.208   3.309 -0.0280 -0.6366 -0.3018
 8390SOL    HW126013   6.158   2.297   3.280  0.8338  0.0338  2.0888
 8390SOL    HW226014   6.148   2.212   3.404 -1.6360 -2.9026  0.0041
 8391SOL     OW26015   2.128   0.332   5.931 -0.0437 -0.1611 -0.0749
 8391SOL    HW126016   2.123   0.238   5.915 -1.3847  0.0583 -1.0916
 8391SOL    HW226017   2.205   0.343   5.987  0.2870 -1.8255 -0.1664
 8392SOL     OW26018   2.234   1.918   6.996 -0.0129  0.0073  0.2518
 8392SOL    HW126019   2.228   1.845   6.935  0.2542 -0.1195  0.3749
 8392SOL    HW226020   2.146   1.926   7.033  0.1022 -0.6293  0.6725
 8393SOL     OW26021   8.173   3.973   5.352  0.4296 -0.1525 -0.0273
 8393SOL    HW126022   8.146   4.014   5.270  1.3396 -0.4390 -0.4736
 8393SOL    HW226023   8.090   3.954   5.397 -0.0270  2.1649  0.2117
 8394SOL     OW26024   7.425   0.445   0.447  0.0145  0.8400  0.3434
 8394SOL    HW126025   7.427   0.530   0.492  1.8991  0.8053  0.3926
 8394SOL    HW226026   7.348   0.401   0.483 -0.9587  2.4830  0.3703
 8395SOL     OW26027   1.223   6.979   1.466  0.7844  1.0288  0.6194
 8395SOL    HW126028   1.308   6.950   1.435  0.2723  0.9479 -0.7664
 8395SOL    HW226029   1.202   7.055   1.411  0.5566  1.8896  1.8558
 8396SOL     OW26030   7.652   0.812   4.202  0.6100 -0.3661  0.0051
 8396SOL    HW126031   7.590   0.859   4.257  0.3549 -0.9506  0.2249
 8396SOL    HW226032   7.695   0.750   4.261  1.0931 -0.2631 -0.2344
 8397SOL     OW26033   1.849   2.871   4.890  0.3062  0.2222  0.0597
 8397SOL    HW126034   1.798   2.858   4.811 -0.1348 -0.9101  0.4987
 8397SOL    HW226035   1.842   2.787   4.937  1.4832  0.4848  0.7529
 8398SOL     OW26036   7.781   0.416   5.712 -0.0668 -0.8535  0.2177
 8398SOL    HW126037   7.861   0.363   5.703  1.8333  1.3620  2.3965
 8398SOL    HW226038   7.785   0.477   5.638  2.4784  1.6897  2.2149
 8399SOL     OW26039   3.528   0.722   4.947 -0.0257  0.1077 -0.1055
 8399SOL    HW126040   3.478   0.745   4.869  1.0275  2.2941 -0.1937
 8399SOL    HW226041   3.584   0.649   4.919 -0.4162  0.1678 -1.0825
 8400SOL     OW26042   3.828   2.219   4.098  0.5357 -0.2392 -0.1510
 8400SOL    HW126043   3.820   2.147   4.035 -0.5798 -1.4103  1.2444
 8400SOL    HW226044   3.743   2.262   4.097  0.1795 -0.8500  1.1712
 8401SOL     OW26045   2.129   8.012   1.273 -0.3829  0.0823  0.3580
 8401SOL    HW126046   2.224   8.017   1.283 -0.5015  0.5957  1.2810
 8401SOL    HW226047   2.113   7.922   1.245  0.4607  0.3108 -0.9609
 8402SOL     OW26048   0.762   7.242   1.097 -0.0783  0.2939 -0.1657
 8402SOL    HW126049   0.839   7.226   1.151 -0.5803 -1.9305 -0.0314
 8402SOL    HW226050   0.706   7.166   1.111 -1.0443  0.4986 -2.4074
 8403SOL     OW26051   4.911   7.682   3.480 -0.1385  0.0709 -0.0303
 8403SOL    HW126052   4.913   7.680   3.576  1.2345  0.0326 -0.0475
 8403SOL    HW226053   4.997   7.652   3.453 -0.4882  0.1320 -1.2940
 8404SOL     OW26054   4.459   3.168   4.848  0.1249  0.4579 -0.2394
 8404SOL    HW126055   4.436   3.247   4.898 -2.9181 -1.0241  0.9317
 8404SOL    HW226056   4.421   3.183   4.761 -0.5940  0.2453  0.0317
 8405SOL     OW26057   5.535   2.982   0.784 -0.4099  0.5963 -0.3261
 8405SOL    HW126058   5.606   2.931   0.746 -0.3659  0.3813  0.0318
 8405SOL    HW226059   5.456   2.932   0.763 -0.4951  1.0223 -1.0347
 8406SOL     OW26060   7.747   6.599   2.066  0.3509  0.2434  0.2426
 8406SOL    HW126061   7.656   6.596   2.097 -0.2652  1.4565 -1.3139
 8406SOL    HW226062   7.765   6.692   2.052  0.9159 -0.1552 -1.9632
 8407SOL     OW26063   5.798   6.925   6.315 -0.0585  0.4177 -0.5158
 8407SOL    HW126064   5.752   6.844   6.339 -0.4910  0.3388 -1.5277
 8407SOL    HW226065   5.885   6.916   6.354 -0.5656  0.1100  0.5801
 8408SOL     OW26066   1.721   3.927   6.078  0.1306 -0.2216  0.3800
 8408SOL    HW126067   1.788   3.972   6.027  0.6752 -1.2868  0.1309
 8408SOL    HW226068   1.747   3.835   6.076 -1.0803 -0.5869  0.6840
 8409SOL     OW26069   2.231   5.689   7.286  0.6201 -0.3565  0.1965
 8409SOL    HW126070   2.143   5.665   7.314  0.3317  2.2484  1.8822
 8409SOL    HW226071   2.232   5.671   7.192 -2.0727  0.3806 -0.0689
 8410SOL     OW26072   3.872   0.593   3.290  0.1671  0.0408 -0.1235
 8410SOL    HW126073   3.882   0.600   3.385  2.0645 -1.3768 -0.1466
 8410SOL    HW226074   3.884   0.682   3.259  0.2578  0.4159  0.9284
 8411SOL     OW26075   7.237   5.958   2.273 -0.2748 -0.0317  0.1800
 8411SOL    HW126076   7.249   5.995   2.360  1.3182  1.3895 -0.5887
 8411SOL    HW226077   7.304   5.890   2.266  0.3889  0.6730 -0.3561
 8412SOL     OW26078   4.864   0.355   5.134  0.5930  0.0174  0.0785
 8412SOL    HW126079   4.881   0.351   5.228 -1.1864  0.8964  0.4732
 8412SOL    HW226080   4.925   0.292   5.096  1.2421 -0.4632  1.8239
 8413SOL     OW26081   4.032   4.237   4.711  0.3126 -0.3067 -0.2004
 8413SOL    HW126082   3.973   4.296   4.759 -0.6067  0.8528 -2.5783
 8413SOL    HW226083   3.981   4.158   4.695  0.3599 -0.3954  0.0922
 8414SOL     OW26084   5.546   1.107   2.764 -0.1956 -0.0488 -0.0485
 8414SOL    HW126085   5.454   1.126   2.745  0.0070  0.3262 -0.6975
 8414SOL    HW226086   5.556   1.014   2.745 -0.4288 -0.0747 -0.0440
 8415SOL     OW26087   3.927   0.511   5.903  0.6396 -0.1155  0.5889
 8415SOL    HW126088   3.864   0.494   5.973  0.0200 -2.8330 -0.4827
 8415SOL    HW226089   4.011   0.486   5.940  0.7107  0.8514  1.1208
 8416SOL     OW26090   3.384   0.510   6.221  0.2844  0.2586  0.0163
 8416SOL    HW126091   3.387   0.589   6.167 -0.1360  1.4272  1.6046
 8416SOL    HW226092   3.418   0.538   6.306  1.4273 -1.6353  0.2518
 8417SOL     OW26093   6.822   2.201   2.249 -0.0771  0.3417  0.3511
 8417SOL    HW126094   6.886   2.267   2.222  0.3692  0.4087  1.5081
 8417SOL    HW226095   6.737   2.245   2.241  0.2523  1.2882  1.6849
 8418SOL     OW26096   1.524   2.036   2.682 -0.4280 -0.2536 -0.2487
 8418SOL    HW126097   1.429   2.049   2.673 -0.2757 -0.0821 -2.0213
 8418SOL    HW226098   1.562   2.115   2.645  0.4523  0.5746  2.2310
 8419SOL     OW26099   6.691   5.702   3.731 -0.8520 -0.2801 -0.2201
 8419SOL    HW126100   6.678   5.797   3.720  3.1611  0.3805 -0.9046
 8419SOL    HW226101   6.633   5.679   3.804 -1.0241  3.0190  0.9014
 8420SOL     OW26102   4.133   5.581   0.096 -0.4175 -0.0299 -0.2103
 8420SOL    HW126103   4.117   5.507   0.156 -2.0078  0.6329  0.2295
 8420SOL    HW226104   4.049   5.595   0.053 -0.4004  2.0748  0.3500
 8421SOL     OW26105   2.906   0.039   1.614 -0.6177 -0.4206 -0.1794
 8421SOL    HW126106   2.937   0.130   1.607 -1.3648 -0.3146 -3.5020
 8421SOL    HW226107   2.842   0.042   1.686 -1.3646  1.9468 -0.8386
 8422SOL     OW26108   3.814   6.428   7.271 -0.0125 -0.6932 -0.2826
 8422SOL    HW126109   3.831   6.498   7.208  0.1100  1.1302  1.6497
 8422SOL    HW226110   3.723   6.440   7.296  0.3378 -0.4250  0.9442
 8423SOL     OW26111   7.726   0.993   3.284 -0.5487  0.8007  0.5455
 8423SOL    HW126112   7.671   1.038   3.220  0.9553  1.7193 -0.1471
 8423SOL    HW226113   7.723   0.901   3.258 -1.3336  0.9195  0.2063
 8424SOL     OW26114   6.979   7.402   4.173  0.3682 -0.3518 -0.1586
 8424SOL    HW126115   7.009   7.490   4.195 -1.7754  0.6276 -0.8658
 8424SOL    HW226116   6.906   7.386   4.233  0.2022 -1.2956 -0.6024
 8425SOL     OW26117   0.113   7.048   7.932 -0.3177 -0.7817  0.3364
 8425SOL    HW126118   0.059   7.084   8.002  1.6443  0.8846  1.1015
 8425SOL    HW226119   0.139   6.962   7.964  0.2603 -0.1907  1.5398
 8426SOL     OW26120   5.240   1.327   4.446  0.1628 -0.0561  0.0236
 8426SOL    HW126121   5.252   1.421   4.435 -2.3328  0.1184 -1.9602
 8426SOL    HW226122   5.291   1.288   4.375 -1.0187  0.0119 -0.8970
 8427SOL     OW26123   5.136   1.643   5.347 -0.0905 -0.7340 -0.0037
 8427SOL    HW126124   5.118   1.554   5.316 -0.7600 -1.3489  1.9545
 8427SOL    HW226125   5.215   1.669   5.300  0.0522 -2.3266 -0.7260
 8428SOL     OW26126   7.441   3.722   7.700  0.1393 -0.0501  0.0200
 8428SOL    HW126127   7.494   3.689   7.627  0.1385  1.1491 -0.5438
 8428SOL    HW226128   7.356   3.742   7.660 -0.3606 -0.8034  0.6713
 8429SOL     OW26129   7.935   7.843   3.256 -0.5420  0.1178  0.6751
 8429SOL    HW126130   8.025   7.849   3.225 -0.8382  1.0996 -0.0635
 8429SOL    HW226131   7.935   7.888   3.340 -0.4286  0.5137  0.4648
 8430SOL     OW26132   6.865   0.870   1.994  0.3936  0.0906  0.1141
 8430SOL    HW126133   6.837   0.961   1.990  2.1336  0.7279  1.0208
 8430SOL    HW226134   6.881   0.855   2.087 -0.2372 -1.2626  0.0122
 8431SOL     OW26135   3.550   4.945   0.144  0.2483  0.3063 -0.0238
 8431SOL    HW126136   3.468   4.953   0.096 -0.2479  0.1691  0.7850
 8431SOL    HW226137   3.593   4.868   0.107 -0.8953 -0.7839  0.8543
 8432SOL     OW26138   6.911   6.277   7.093 -0.6333  0.0380 -1.1454
 8432SOL    HW126139   6.831   6.264   7.144 -1.0034 -1.4953 -2.0502
 8432SOL    HW226140   6.890   6.243   7.006  1.1845 -0.9831 -1.2372
 8433SOL     OW26141   7.010   5.005   1.525  0.0121 -0.6470 -0.3317
 8433SOL    HW126142   6.956   5.041   1.454 -0.4401 -0.5799  0.0376
 8433SOL    HW226143   7.100   5.021   1.498 -0.1757  1.5930  0.2253
 8434SOL     OW26144   6.880   1.117   2.874  0.3256 -0.6068 -0.5089
 8434SOL    HW126145   6.785   1.116   2.858  0.1620 -0.1005  0.3301
 8434SOL    HW226146   6.896   1.038   2.926  0.0343  0.2630  0.9559
 8435SOL     OW26147   0.913   0.492   4.203 -0.9563 -0.1625  0.4022
 8435SOL    HW126148   0.839   0.507   4.144  0.5732 -1.2951 -1.9817
 8435SOL    HW226149   0.927   0.576   4.247 -2.5312  0.5773 -0.4317
 8436SOL     OW26150   2.477   2.377   4.061 -0.1146  0.0579 -0.2881
 8436SOL    HW126151   2.418   2.307   4.087  0.5702 -0.7181 -0.7784
 8436SOL    HW226152   2.541   2.382   4.132 -0.7395  0.8886  0.2365
 8437SOL     OW26153   4.376   3.543   7.437 -0.0450 -0.2138 -0.2989
 8437SOL    HW126154   4.427   3.462   7.444  3.5470  1.8300 -0.7138
 8437SOL    HW226155   4.343   3.543   7.347 -0.1197 -1.2240 -0.2793
 8438SOL     OW26156   6.214   7.571   6.581  0.0008 -0.4484  0.2622
 8438SOL    HW126157   6.174   7.595   6.497 -1.1797  0.7479  1.1424
 8438SOL    HW226158   6.200   7.476   6.588  1.4164 -0.8576 -1.5402
 8439SOL     OW26159   3.321   6.139   3.500  0.0000  0.5262 -0.0889
 8439SOL    HW126160   3.331   6.225   3.540 -1.6942  1.2082 -1.0695
 8439SOL    HW226161   3.311   6.156   3.407 -0.5330 -0.7153 -0.2773
 8440SOL     OW26162   3.892   3.847   2.906 -0.5317 -0.3152  0.1185
 8440SOL    HW126163   3.895   3.782   2.977 -0.6334 -0.5751 -0.1157
 8440SOL    HW226164   3.816   3.901   2.927 -0.5977 -0.4296  0.1766
 8441SOL     OW26165   5.283   0.865   2.302 -1.1691  0.0645  0.8492
 8441SOL    HW126166   5.300   0.815   2.382 -1.5882 -1.5980 -0.0529
 8441SOL    HW226167   5.204   0.915   2.321 -1.4342 -0.5426  1.3790
 8442SOL     OW26168   0.690   1.817   7.386 -0.4591  0.0405  0.1926
 8442SOL    HW126169   0.780   1.788   7.396 -0.3032 -0.1384 -1.4239
 8442SOL    HW226170   0.650   1.803   7.472  1.2401  0.8445  1.1638
 8443SOL     OW26171   0.507   4.339   2.983  0.1774 -0.5303  0.2748
 8443SOL    HW126172   0.416   4.308   2.985 -0.2156  0.4599 -1.0955
 8443SOL    HW226173   0.536   4.333   3.074 -1.2216 -0.9763  0.7148
 8444SOL     OW26174   5.777   1.993   4.105  0.1240 -0.2950 -0.2549
 8444SOL    HW126175   5.857   2.025   4.064  0.2478 -0.7670 -0.3827
 8444SOL    HW226176   5.806   1.922   4.162 -0.4966 -2.3496 -2.3624
 8445SOL     OW26177   3.560   7.796   1.950  0.0210  0.1654  0.0037
 8445SOL    HW126178   3.628   7.848   1.993  1.5003 -0.9410 -0.9190
 8445SOL    HW226179   3.552   7.833   1.863 -0.5929  0.2921  0.1066
 8446SOL     OW26180   4.845   1.195   2.045 -0.5184  0.0584 -0.3968
 8446SOL    HW126181   4.806   1.191   2.132 -0.0094  1.7239 -0.0636
 8446SOL    HW226182   4.770   1.207   1.986 -0.9606 -1.9940 -0.3361
 8447SOL     OW26183   8.093   7.124   0.972 -0.2395  0.3997  0.1976
 8447SOL    HW126184   8.105   7.059   0.902 -0.5616  0.5050  0.0440
 8447SOL    HW226185   8.161   7.189   0.955  0.4032 -0.1368  0.6381
 8448SOL     OW26186   2.202   0.594   4.230 -0.4217 -0.0366 -0.2963
 8448SOL    HW126187   2.116   0.552   4.221 -0.6562  0.3858 -0.0879
 8448SOL    HW226188   2.203   0.627   4.320  0.6838 -1.5850  0.2985
 8449SOL     OW26189   3.470   3.365   5.609  0.1045  0.1398 -0.1238
 8449SOL    HW126190   3.458   3.338   5.518  0.2930 -0.1120 -0.0738
 8449SOL    HW226191   3.557   3.334   5.632  0.2430  0.6181 -0.0012
 8450SOL     OW26192   2.811   2.123   6.810 -0.3977 -0.3379  0.2613
 8450SOL    HW126193   2.765   2.137   6.893  0.5593  0.7435  0.6414
 8450SOL    HW226194   2.741   2.116   6.745 -1.1629  2.4968  0.6194
 8451SOL     OW26195   3.943   3.964   7.776  0.6246 -0.1470 -0.6747
 8451SOL    HW126196   4.007   4.030   7.749 -0.4255  1.0249 -0.3879
 8451SOL    HW226197   3.929   3.980   7.870  0.2003 -0.6455 -0.6446
 8452SOL     OW26198   2.384   0.325   1.781 -0.2019 -0.3354 -0.3168
 8452SOL    HW126199   2.315   0.287   1.725  2.0535  0.2452 -3.8046
 8452SOL    HW226200   2.422   0.395   1.727  1.2551  1.3271  2.6378
 8453SOL     OW26201   7.120   3.558   4.946 -0.4006  0.1534 -0.1198
 8453SOL    HW126202   7.086   3.507   5.019  2.8680 -0.8089  0.9369
 8453SOL    HW226203   7.117   3.649   4.976 -1.4720  0.0529  0.1130
 8454SOL     OW26204   1.224   5.545   5.388  0.1079  0.0808  0.0969
 8454SOL    HW126205   1.203   5.485   5.459  0.7893  0.6507  0.7984
 8454SOL    HW226206   1.184   5.628   5.413  1.7162  0.7343  0.6530
 8455SOL     OW26207   3.754   4.366   7.562  0.0648 -0.2844  0.3107
 8455SOL    HW126208   3.688   4.435   7.563  0.9520  0.5683  0.9180
 8455SOL    HW226209   3.830   4.405   7.519  0.7158 -0.7383  1.0235
 8456SOL     OW26210   4.139   3.798   4.511 -0.1575  0.0918  0.1345
 8456SOL    HW126211   4.076   3.809   4.583  0.1302 -0.6611  0.5118
 8456SOL    HW226212   4.108   3.858   4.443 -0.8218  0.3226  0.6258
 8457SOL     OW26213   5.593   6.727   0.446  0.5763 -0.8003  0.3745
 8457SOL    HW126214   5.633   6.791   0.504 -0.5572  0.4502 -0.1743
 8457SOL    HW226215   5.523   6.687   0.498  0.6371 -0.8848  0.3922
 8458SOL     OW26216   2.892   7.860   2.945 -0.4171 -0.4297 -0.1176
 8458SOL    HW126217   2.903   7.894   3.034 -1.0687  0.6570 -0.4439
 8458SOL    HW226218   2.809   7.895   2.915 -0.7414 -1.6944 -0.7692
 8459SOL     OW26219   1.413   1.817   7.512 -0.0136 -0.2480 -0.0140
 8459SOL    HW126220   1.353   1.743   7.523 -0.2158  0.2606  3.7303
 8459SOL    HW226221   1.364   1.893   7.546  1.1352  1.1261 -1.2648
 8460SOL     OW26222   1.427   0.031   0.854 -0.6850  0.1028 -0.4456
 8460SOL    HW126223   1.520   0.049   0.861 -0.5067  0.3698 -2.6084
 8460SOL    HW226224   1.412   0.022   0.760 -2.6792 -0.8505 -0.0869
 8461SOL     OW26225   3.897   1.748   3.514 -0.5475 -0.6274 -0.7013
 8461SOL    HW126226   3.949   1.822   3.547  0.4471 -1.4478 -0.3783
 8461SOL    HW226227   3.806   1.773   3.532 -0.1279 -0.7400  2.1600
 8462SOL     OW26228   7.764   5.801   5.675 -0.3104  0.1714 -0.1312
 8462SOL    HW126229   7.765   5.708   5.696  3.0294  0.1915  0.3846
 8462SOL    HW226230   7.677   5.831   5.701 -0.7472 -2.3739  1.7134
 8463SOL     OW26231   2.293   1.386   2.569 -0.0227  0.3316  0.3702
 8463SOL    HW126232   2.359   1.321   2.593  1.0078  0.7900 -1.0630
 8463SOL    HW226233   2.332   1.470   2.595 -1.1078  0.4417  1.7114
 8464SOL     OW26234   3.983   1.047   5.130 -0.3335  0.0716 -0.2031
 8464SOL    HW126235   3.928   1.124   5.144  0.4940  1.7800 -4.7387
 8464SOL    HW226236   3.928   0.985   5.083  0.0798 -0.5319  0.0956
 8465SOL     OW26237   5.375   2.907   1.722 -0.1984  0.7619 -0.5397
 8465SOL    HW126238   5.364   2.987   1.672  1.2676  1.2539 -0.1186
 8465SOL    HW226239   5.430   2.932   1.796 -0.9213 -0.3155  0.4023
 8466SOL     OW26240   1.550   1.820   2.876 -0.2500  0.0394 -0.0089
 8466SOL    HW126241   1.460   1.801   2.904 -0.1986  0.7606  0.6899
 8466SOL    HW226242   1.550   1.914   2.856  0.2316 -0.0553 -0.4705
 8467SOL     OW26243   3.835   0.555   7.577  0.0997 -0.2187 -0.3772
 8467SOL    HW126244   3.918   0.544   7.529  0.6172  1.5435  0.0110
 8467SOL    HW226245   3.768   0.551   7.510  0.4564 -1.9667 -0.6652
 8468SOL     OW26246   7.584   0.698   1.399 -0.4378  0.6584  0.3089
 8468SOL    HW126247   7.585   0.711   1.494 -2.9979 -1.5685  0.7811
 8468SOL    HW226248   7.517   0.758   1.368 -0.7286  0.2582  0.1584
 8469SOL     OW26249   2.244   7.254   6.532  0.6375 -0.1388 -0.5178
 8469SOL    HW126250   2.178   7.261   6.601  0.7378 -0.9408 -0.3284
 8469SOL    HW226251   2.273   7.344   6.517  1.6448 -0.0889  1.4879
 8470SOL     OW26252   6.443   4.761   3.849 -0.1759 -0.3686  0.3730
 8470SOL    HW126253   6.375   4.771   3.782 -1.8668 -1.3235  1.8548
 8470SOL    HW226254   6.397   4.774   3.932  1.4843 -0.9271  1.4333
 8471SOL     OW26255   4.083   6.642   0.939 -0.3100 -0.1155 -0.2171
 8471SOL    HW126256   4.109   6.602   1.023  0.7252  0.2914 -0.3278
 8471SOL    HW226257   4.107   6.734   0.949  2.5786 -0.5520 -1.9746
 8472SOL     OW26258   4.188   1.970   5.918  0.1105  0.0157  0.1053
 8472SOL    HW126259   4.100   1.944   5.946 -0.4843  1.1168 -0.6666
 8472SOL    HW226260   4.214   1.903   5.854  0.7097 -1.4580  1.8116
 8473SOL     OW26261   4.326   7.173   6.165  0.2005 -0.5760 -0.1464
 8473SOL    HW126262   4.345   7.256   6.208  0.4398 -1.5154  1.6196
 8473SOL    HW226263   4.411   7.133   6.151 -0.0230 -1.4454  0.9173
 8474SOL     OW26264   7.287   3.825   2.352  0.7971  0.2278 -0.2471
 8474SOL    HW126265   7.346   3.751   2.368  2.1607  0.4591 -3.4356
 8474SOL    HW226266   7.336   3.902   2.381  1.3747  0.2594 -1.2669
 8475SOL     OW26267   4.127   3.123   7.831  0.0235  0.1527 -0.4800
 8475SOL    HW126268   4.045   3.102   7.787 -0.5107 -0.7315  0.8608
 8475SOL    HW226269   4.128   3.066   7.908  0.9503  1.5589  0.6031
 8476SOL     OW26270   1.185   5.631   4.350  0.6228 -0.0237  0.5700
 8476SOL    HW126271   1.236   5.577   4.290 -2.6655 -0.8635 -1.7374
 8476SOL    HW226272   1.123   5.571   4.391 -0.3881  1.3345  1.1219
 8477SOL     OW26273   7.801   4.589   2.511 -0.2666  0.0363 -0.3589
 8477SOL    HW126274   7.749   4.569   2.589 -0.4916 -1.0931 -0.7830
 8477SOL    HW226275   7.891   4.572   2.537 -0.1643  1.1942  0.1222
 8478SOL     OW26276   3.121   1.750   7.662  0.1225 -0.0730  0.0247
 8478SOL    HW126277   3.036   1.705   7.659 -0.5011  1.1269 -1.4327
 8478SOL    HW226278   3.178   1.690   7.710 -1.6916 -0.6444  1.6148
 8479SOL     OW26279   1.617   1.900   6.493 -0.2887  0.3837  0.3628
 8479SOL    HW126280   1.691   1.850   6.458  0.2135  0.0897  1.7707
 8479SOL    HW226281   1.651   1.939   6.574 -0.9661  2.2175 -0.1838
 8480SOL     OW26282   2.863   0.819   3.064  0.1585  0.1373 -0.8038
 8480SOL    HW126283   2.958   0.815   3.050  0.5946  1.7735  1.1766
 8480SOL    HW226284   2.835   0.899   3.019 -0.2496 -0.1653 -1.1014
 8481SOL     OW26285   4.228   5.087   2.464  0.3497 -0.3901 -0.2244
 8481SOL    HW126286   4.169   5.046   2.527 -0.5306  1.0759 -0.0514
 8481SOL    HW226287   4.170   5.133   2.403  1.2604  1.8582  0.4769
 8482SOL     OW26288   0.275   5.463   1.735 -0.0865 -0.0659 -0.2910
 8482SOL    HW126289   0.182   5.483   1.741  0.0155  0.7552 -1.1222
 8482SOL    HW226290   0.316   5.546   1.713  1.0231 -0.1230  1.4125
 8483SOL     OW26291   5.064   3.258   8.112  0.4789  0.6971 -0.0229
 8483SOL    HW126292   5.006   3.263   8.036  0.7377  1.5876 -0.1700
 8483SOL    HW226293   5.152   3.257   8.075  0.5940  0.7472  0.2507
 8484SOL     OW26294   0.483   7.347   3.761  0.1337  0.1843  0.6729
 8484SOL    HW126295   0.520   7.381   3.842 -0.1897  0.0768  0.8677
 8484SOL    HW226296   0.558   7.337   3.702  0.4687 -0.3787  1.1841
 8485SOL     OW26297   7.646   2.923   1.276  0.0483 -0.2617  0.2572
 8485SOL    HW126298   7.626   2.857   1.210  1.0529 -0.1453 -0.1804
 8485SOL    HW226299   7.562   2.965   1.295 -0.2461 -0.2373 -1.0119
 8486SOL     OW26300   4.832   1.975   0.429  0.2098  0.2156 -0.0770
 8486SOL    HW126301   4.803   1.884   0.434 -0.6393  0.5276  1.0211
 8486SOL    HW226302   4.883   1.980   0.348  1.6707 -1.6236  0.6688
 8487SOL     OW26303   7.591   8.209   4.413  0.5338  0.5613  0.7187
 8487SOL    HW126304   7.498   8.230   4.402  0.1390 -1.0196  0.7828
 8487SOL    HW226305   7.637   8.288   4.384 -0.8391  1.9178  2.0934
 8488SOL     OW26306   5.948   1.406   7.021  0.1783 -0.2880 -0.8549
 8488SOL    HW126307   5.933   1.498   7.044  1.2462  0.4496 -2.8375
 8488SOL    HW226308   5.982   1.410   6.931  1.5763 -2.5364 -0.4813
 8489SOL     OW26309   8.150   2.344   5.303 -0.5092  0.6712  0.5013
 8489SOL    HW126310   8.077   2.309   5.251 -2.1117  0.8510  2.4797
 8489SOL    HW226311   8.120   2.431   5.329 -0.7121 -0.1098  3.2638
 8490SOL     OW26312   6.607   5.364   6.729 -0.1679 -0.6136 -0.1081
 8490SOL    HW126313   6.513   5.350   6.738 -0.2684 -0.4584 -0.8962
 8490SOL    HW226314   6.633   5.403   6.813 -0.8086 -0.6208  0.0966
 8491SOL     OW26315   3.884   7.402   6.945  0.5694  0.0321  0.0187
 8491SOL    HW126316   3.836   7.486   6.947  0.4850 -0.0130 -0.0707
 8491SOL    HW226317   3.958   7.419   6.887  0.4445 -0.0107 -0.1558
 8492SOL     OW26318   2.247   4.996   4.155  0.4170  0.1111 -0.0229
 8492SOL    HW126319   2.173   4.992   4.094  1.4838 -0.5696 -1.3294
 8492SOL    HW226320   2.299   4.917   4.135  0.4695 -0.5002  2.2409
 8493SOL     OW26321   4.236   3.210   7.534 -0.0316  0.0704  0.6191
 8493SOL    HW126322   4.330   3.201   7.551 -0.2971 -0.1064  2.1721
 8493SOL    HW226323   4.203   3.120   7.535 -0.2809  0.1595  0.4421
 8494SOL     OW26324   0.491   5.140   4.983 -0.1345 -0.5450  0.6938
 8494SOL    HW126325   0.520   5.063   4.935  0.5616 -0.6302  1.2311
 8494SOL    HW226326   0.507   5.119   5.075 -0.8835 -0.1506  0.9243
 8495SOL     OW26327   7.261   2.444   4.857  0.0126 -0.8246  0.0376
 8495SOL    HW126328   7.327   2.414   4.796 -1.2139 -0.1728 -1.6799
 8495SOL    HW226329   7.185   2.466   4.803 -0.2256  2.3929  1.4526
 8496SOL     OW26330   0.865   8.121   1.177 -0.0669 -0.1253  0.1123
 8496SOL    HW126331   0.842   8.213   1.169  0.6177 -0.0787 -1.7433
 8496SOL    HW226332   0.960   8.120   1.187 -0.1187 -0.6190  0.6390
 8497SOL     OW26333   5.151   0.052   5.937 -0.4281 -0.4631  0.4662
 8497SOL    HW126334   5.101   0.131   5.956 -0.2778 -0.4153  0.6698
 8497SOL    HW226335   5.235   0.084   5.906  0.4127 -0.5076  2.5326
 8498SOL     OW26336   6.953   7.519   0.697 -0.5412  0.5743  0.0856
 8498SOL    HW126337   7.002   7.601   0.697 -0.4785  0.5414 -0.3365
 8498SOL    HW226338   6.966   7.483   0.784  0.5843  0.3326 -0.1669
 8499SOL     OW26339   5.747   4.984   1.642 -0.5580  0.3927  0.5208
 8499SOL    HW126340   5.652   4.982   1.647 -0.5544  0.8763  0.9659
 8499SOL    HW226341   5.776   4.953   1.728 -0.3428  1.5314  0.8745
 8500SOL     OW26342   5.818   0.907   3.332  0.3129 -0.6477 -0.0693
 8500SOL    HW126343   5.841   0.895   3.425  0.7667  1.6035  0.1791
 8500SOL    HW226344   5.758   0.981   3.332  1.5995  0.4731 -1.6818
 8501SOL     OW26345   2.817   5.499   0.379  0.5619  0.0096  0.3496
 8501SOL    HW126346   2.775   5.537   0.301 -0.8172 -1.5999  0.2488
 8501SOL    HW226347   2.892   5.556   0.396 -0.1953  1.4990 -1.0257
 8502SOL     OW26348   6.004   6.585   5.735 -0.4267  0.2655  0.4270
 8502SOL    HW126349   6.069   6.645   5.698 -1.1564  0.4315 -0.6146
 8502SOL    HW226350   6.054   6.505   5.754  0.0701  0.3606 -0.4275
 8503SOL     OW26351   2.391   2.991   1.012 -0.5927  0.1784 -0.3101
 8503SOL    HW126352   2.359   3.081   1.015 -0.9012  0.0841  3.0430
 8503SOL    HW226353   2.351   2.949   1.089  0.2929 -2.5603 -1.2397
 8504SOL     OW26354   1.757   7.374   5.693  0.6272 -0.5640  0.0797
 8504SOL    HW126355   1.839   7.417   5.667 -0.5010  2.1235  0.6554
 8504SOL    HW226356   1.738   7.314   5.621  2.1245  0.1294 -0.9496
 8505SOL     OW26357   3.834   2.919   2.102 -0.0140  0.0333  0.1434
 8505SOL    HW126358   3.923   2.920   2.067 -0.4657 -1.7484 -1.2428
 8505SOL    HW226359   3.836   2.850   2.169 -0.4743 -0.4404 -0.3214
 8506SOL     OW26360   2.416   4.008   5.533  0.0509 -0.2821 -0.1447
 8506SOL    HW126361   2.402   3.977   5.622  0.3964 -1.3333 -0.4408
 8506SOL    HW226362   2.490   4.068   5.540 -0.2971  0.0954  0.3604
 8507SOL     OW26363   6.424   4.888   0.464 -0.4925  0.5365  0.1417
 8507SOL    HW126364   6.413   4.897   0.559 -0.8042 -0.3169  0.1914
 8507SOL    HW226365   6.518   4.884   0.451 -0.4779 -0.6678  0.5481
 8508SOL     OW26366   0.581   3.309   1.449 -0.2763  0.2577 -0.1144
 8508SOL    HW126367   0.641   3.326   1.377  0.5633  0.9163  0.7189
 8508SOL    HW226368   0.546   3.222   1.431  1.8965 -0.7113  0.0156
 8509SOL     OW26369   3.274   5.777   1.973 -0.4811 -0.2265 -0.2069
 8509SOL    HW126370   3.312   5.691   1.992 -3.3566 -1.5346  0.0936
 8509SOL    HW226371   3.258   5.775   1.878 -1.5074 -0.5003 -0.0445
 8510SOL     OW26372   2.115   4.083   5.820  0.0722  0.3346 -0.5701
 8510SOL    HW126373   2.093   4.115   5.908 -2.2878 -2.2775 -0.0490
 8510SOL    HW226374   2.117   4.162   5.766 -0.6267  1.8271  1.4355
 8511SOL     OW26375   0.586   0.274   2.060 -0.1216 -0.9933 -0.2481
 8511SOL    HW126376   0.581   0.307   1.970 -3.3293 -2.1334 -0.6185
 8511SOL    HW226377   0.661   0.320   2.098 -1.0936  2.7233 -2.2474
 8512SOL     OW26378   7.056   7.851   7.750 -0.0158 -0.1766  0.0367
 8512SOL    HW126379   6.968   7.820   7.728 -0.3328 -0.0019  1.0246
 8512SOL    HW226380   7.057   7.855   7.846  0.6946  0.9147 -0.0029
 8513SOL     OW26381   6.389   1.726   0.468  0.0218 -0.0393  0.1259
 8513SOL    HW126382   6.370   1.774   0.388  1.5328  0.3975  0.0041
 8513SOL    HW226383   6.483   1.708   0.464 -0.4768 -3.1368  0.1058
 8514SOL     OW26384   3.082   2.587   7.201  0.4959  0.2601 -0.0863
 8514SOL    HW126385   3.072   2.677   7.231  1.6867  0.0290  1.0807
 8514SOL    HW226386   3.150   2.550   7.257 -0.8860 -1.7758  0.3779
 8515SOL     OW26387   4.555   3.589   6.656  0.2662  0.9068 -1.1382
 8515SOL    HW126388   4.620   3.632   6.600 -0.3267 -0.0282 -2.5986
 8515SOL    HW226389   4.490   3.554   6.595 -1.3195  1.3088  0.2425
 8516SOL     OW26390   3.049   1.875   5.914  0.4229 -0.3100 -0.5682
 8516SOL    HW126391   3.096   1.920   5.844 -1.3613  0.5103 -1.3176
 8516SOL    HW226392   3.056   1.782   5.892  1.3601 -0.1874 -0.8429
 8517SOL     OW26393   5.315   2.010   5.350 -0.1513  0.3629  0.0716
 8517SOL    HW126394   5.220   2.001   5.362 -0.1689  0.9324  0.3580
 8517SOL    HW226395   5.325   2.068   5.275 -0.0296  1.1506  0.6920
 8518SOL     OW26396   4.525   0.650   3.080 -0.5577  0.0808 -0.2340
 8518SOL    HW126397   4.471   0.594   3.135  2.1538 -2.7383 -0.1524
 8518SOL    HW226398   4.492   0.637   2.991 -0.0388 -1.6761 -0.1974
 8519SOL     OW26399   3.535   0.147   1.712 -0.2364 -0.4281  0.1383
 8519SOL    HW126400   3.575   0.086   1.649  2.9515  0.7670  0.8312
 8519SOL    HW226401   3.568   0.120   1.797  2.2208  2.7609  0.3795
 8520SOL     OW26402   5.045   7.426   7.484 -0.8485 -0.1381  0.7114
 8520SOL    HW126403   4.956   7.452   7.461 -0.2258  1.2218 -0.3702
 8520SOL    HW226404   5.038   7.388   7.572 -2.3101  1.0556  1.1501
 8521SOL     OW26405   5.583   7.425   4.838 -0.2134 -0.1593 -0.3460
 8521SOL    HW126406   5.586   7.493   4.771  0.7890 -0.5243 -0.6853
 8521SOL    HW226407   5.597   7.473   4.920 -2.3784  0.4133 -0.2639
 8522SOL     OW26408   3.169   5.637   5.485 -0.9902 -0.5422  0.1870
 8522SOL    HW126409   3.103   5.699   5.515  0.4634  1.3426 -0.2564
 8522SOL    HW226410   3.242   5.649   5.547  0.1615 -0.1526 -1.1998
 8523SOL     OW26411   7.396   5.158   4.602  0.4685 -0.0946 -0.3741
 8523SOL    HW126412   7.440   5.075   4.620  0.5333  0.4097  2.0512
 8523SOL    HW226413   7.440   5.222   4.657 -0.3678  1.3336 -1.2867
 8524SOL     OW26414   4.396   3.938   1.064 -0.1700 -0.0161  0.2612
 8524SOL    HW126415   4.464   3.889   1.019  1.5334  2.3166  0.1004
 8524SOL    HW226416   4.415   3.926   1.157  1.2358  1.4947  0.2210
 8525SOL     OW26417   0.733   3.496   7.073  0.2074  0.2968  0.8256
 8525SOL    HW126418   0.781   3.413   7.076 -1.6014 -0.7619  2.0628
 8525SOL    HW226419   0.724   3.522   7.164  0.4368  1.6972  0.4635
 8526SOL     OW26420   1.247   3.782   0.576  0.5539  0.6663  0.6792
 8526SOL    HW126421   1.209   3.836   0.646 -1.3494 -0.8611  0.9039
 8526SOL    HW226422   1.238   3.692   0.607  2.0674  0.0929 -0.4442
 8527SOL     OW26423   5.318   5.561   5.016 -0.1459  0.2658  0.0818
 8527SOL    HW126424   5.339   5.486   4.960 -1.0837 -1.4890  1.9563
 8527SOL    HW226425   5.223   5.568   5.012 -0.2561 -0.0447  1.5692
 8528SOL     OW26426   4.039   6.884   2.401  0.0731 -0.4741  0.1916
 8528SOL    HW126427   3.955   6.854   2.366 -0.1194 -0.8953  0.9974
 8528SOL    HW226428   4.103   6.822   2.365  0.2276  0.5788 -1.4327
 8529SOL     OW26429   4.946   4.485   7.248 -0.2426  0.2554 -0.2480
 8529SOL    HW126430   5.001   4.417   7.209  0.5589 -0.1448  1.4861
 8529SOL    HW226431   4.953   4.559   7.187  1.3569 -0.1599 -0.6177
 8530SOL     OW26432   4.482   0.628   4.071  0.4984 -0.2095  0.2850
 8530SOL    HW126433   4.433   0.638   3.990  1.8378 -1.7290 -0.7826
 8530SOL    HW226434   4.433   0.563   4.121  0.4328 -0.3357  0.0556
 8531SOL     OW26435   0.587   0.636   3.274 -0.1708  0.0368 -0.1429
 8531SOL    HW126436   0.658   0.586   3.234  0.1394  1.1074 -0.9812
 8531SOL    HW226437   0.576   0.712   3.217 -0.2949  1.1853  1.3462
 8532SOL     OW26438   0.243   4.500   3.715  0.0813  0.1180  0.5294
 8532SOL    HW126439   0.190   4.455   3.649 -0.1649  2.0370 -0.6811
 8532SOL    HW226440   0.318   4.534   3.666 -0.6989  2.5928  0.9021
 8533SOL     OW26441   7.912   7.082   2.570 -0.0418  0.6815 -0.5213
 8533SOL    HW126442   7.946   7.110   2.655  1.9611  0.4790 -1.2085
 8533SOL    HW226443   7.903   7.162   2.519  0.9384  0.5909 -0.8515
 8534SOL     OW26444   6.365   3.245   2.345  0.0152 -0.0854  0.3581
 8534SOL    HW126445   6.400   3.230   2.257  1.3551 -3.3662  1.3108
 8534SOL    HW226446   6.285   3.192   2.348 -0.9621  1.3418  0.6403
 8535SOL     OW26447   0.230   4.772   2.257  0.1512  0.4404  0.1805
 8535SOL    HW126448   0.278   4.741   2.333  0.3988 -0.7942 -0.4614
 8535SOL    HW226449   0.189   4.694   2.221  0.1624  0.9791 -1.0396
 8536SOL     OW26450   5.131   3.939   4.726  0.2768 -0.0748 -0.2982
 8536SOL    HW126451   5.180   3.922   4.806  1.4971  0.1667 -0.9688
 8536SOL    HW226452   5.177   3.889   4.659 -1.0904 -0.7522 -0.7505
 8537SOL     OW26453   4.139   2.996   1.104 -0.4261 -0.2306 -0.2171
 8537SOL    HW126454   4.176   3.068   1.053  0.7377 -0.8024 -0.2369
 8537SOL    HW226455   4.091   3.038   1.175  1.0594  0.6006  0.3561
 8538SOL     OW26456   0.250   0.430   7.658 -0.1144 -0.1881 -0.4163
 8538SOL    HW126457   0.303   0.504   7.689  0.3407  0.0949 -1.7741
 8538SOL    HW226458   0.171   0.470   7.622 -0.1740 -0.4078 -0.5329
 8539SOL     OW26459   7.770   2.085   7.146  0.1893  0.7143  0.2364
 8539SOL    HW126460   7.861   2.111   7.157 -0.2063  2.0852  0.4811
 8539SOL    HW226461   7.741   2.132   7.068 -0.5243  0.9499  0.6297
 8540SOL     OW26462   7.903   3.838   0.630 -0.3068 -0.0818 -0.0114
 8540SOL    HW126463   7.836   3.837   0.698 -1.0958  3.3411 -0.5623
 8540SOL    HW226464   7.917   3.745   0.609 -1.2115 -1.2007  3.5701
 8541SOL     OW26465   6.950   1.379   1.280  0.3889  0.4146 -0.2767
 8541SOL    HW126466   7.023   1.431   1.247  0.3687 -0.7240 -2.2997
 8541SOL    HW226467   6.872   1.416   1.237  0.3813 -1.1903 -1.7778
 8542SOL     OW26468   5.319   7.669   1.484 -0.2256  0.0415 -0.0464
 8542SOL    HW126469   5.251   7.603   1.497  1.0525 -1.0551  1.6213
 8542SOL    HW226470   5.370   7.667   1.565  2.5467 -0.1014 -1.6472
 8543SOL     OW26471   1.467   4.611   6.149 -0.2795  0.0328 -0.6388
 8543SOL    HW126472   1.474   4.700   6.114  1.3328 -0.1383 -0.8115
 8543SOL    HW226473   1.443   4.624   6.241 -2.3196  0.5365 -1.1776
 8544SOL     OW26474   3.848   6.715   1.239  0.1681  0.1213 -0.1986
 8544SOL    HW126475   3.844   6.736   1.145  1.0489 -0.6899 -0.4360
 8544SOL    HW226476   3.941   6.714   1.259 -0.0203  0.3586  0.7169
 8545SOL     OW26477   4.717   6.952   1.112 -0.1673  0.7038  0.1913
 8545SOL    HW126478   4.728   6.900   1.032  0.7514 -0.7406  1.2043
 8545SOL    HW226479   4.782   7.023   1.103  0.8405 -0.1860  0.1999
 8546SOL     OW26480   3.688   7.174   8.213  0.0026 -0.3148 -0.0393
 8546SOL    HW126481   3.732   7.224   8.281 -0.1623 -1.3463  0.8632
 8546SOL    HW226482   3.758   7.125   8.170 -0.0369 -0.6245  0.2405
 8547SOL     OW26483   5.446   3.636   4.391  0.0412 -0.1421  0.3835
 8547SOL    HW126484   5.491   3.640   4.475 -1.8725 -0.1863  1.4606
 8547SOL    HW226485   5.453   3.544   4.364 -0.9427 -0.5419  1.4382
 8548SOL     OW26486   1.013   5.376   5.844  0.5545 -0.3625 -0.8243
 8548SOL    HW126487   0.966   5.296   5.819  0.5124 -0.3950 -0.6458
 8548SOL    HW226488   1.103   5.348   5.856  0.5975 -0.3245 -1.0495
 8549SOL     OW26489   5.640   5.037   6.762 -0.5158  0.0312 -0.3367
 8549SOL    HW126490   5.615   5.093   6.689 -0.8549  0.2600 -0.0483
 8549SOL    HW226491   5.648   5.097   6.837  0.2773 -0.1277 -0.2832
 8550SOL     OW26492   5.958   5.752   7.596 -0.4808 -0.3935  0.6059
 8550SOL    HW126493   5.886   5.690   7.584 -0.9681  0.2636  0.0711
 8550SOL    HW226494   6.021   5.705   7.651 -0.6676 -1.5084 -0.0928
 8551SOL     OW26495   7.692   7.464   7.760 -0.4367  0.0084  0.2249
 8551SOL    HW126496   7.601   7.442   7.739  0.3532 -2.3209 -1.1308
 8551SOL    HW226497   7.727   7.385   7.801  1.1230  0.6654  0.2307
 8552SOL     OW26498   1.018   0.830   2.940  0.1378 -0.1801  0.8865
 8552SOL    HW126499   1.024   0.913   2.892  0.9197 -1.2695 -0.9829
 8552SOL    HW226500   1.104   0.820   2.981 -0.8092  1.1920  3.4192
 8553SOL     OW26501   1.637   2.336   3.747  0.7066 -0.0800  0.6300
 8553SOL    HW126502   1.710   2.382   3.787  0.7537 -0.8066  1.4229
 8553SOL    HW226503   1.570   2.403   3.733  0.8098  0.2533  1.6662
 8554SOL     OW26504   6.767   0.014   0.071 -0.5898  0.1444 -0.0219
 8554SOL    HW126505   6.729   0.026   0.158  1.7543 -0.4575  1.1664
 8554SOL    HW226506   6.761   0.101   0.031 -2.7333  0.1670  0.2516
 8555SOL     OW26507   6.401   5.080   0.199  0.2677 -0.0313  0.1064
 8555SOL    HW126508   6.396   5.051   0.290  0.8432  0.1685  0.2038
 8555SOL    HW226509   6.427   5.172   0.204  1.9032 -0.4514 -0.2904
 8556SOL     OW26510   2.698   7.212   5.245  0.4764 -0.4947  0.5130
 8556SOL    HW126511   2.608   7.185   5.264  0.3302 -0.0857  0.4342
 8556SOL    HW226512   2.717   7.279   5.311  1.0033 -1.1232  1.0100
 8557SOL     OW26513   7.488   5.959   2.132 -0.4308 -0.1480  0.4339
 8557SOL    HW126514   7.414   5.945   2.073  1.7830  0.0567 -2.6260
 8557SOL    HW226515   7.557   5.902   2.098  1.2626  0.5866  2.3922
 8558SOL     OW26516   4.608   3.828   0.209 -0.3849 -0.2514 -0.0895
 8558SOL    HW126517   4.544   3.775   0.255 -0.6749 -0.4449 -0.7113
 8558SOL    HW226518   4.563   3.857   0.129  0.1908 -0.1327 -0.3793
 8559SOL     OW26519   7.679   5.153   3.898 -0.4512  0.0734  0.5430
 8559SOL    HW126520   7.674   5.247   3.885  0.7846 -0.1301 -1.9315
 8559SOL    HW226521   7.746   5.141   3.966  0.0387  0.9263  0.2171
 8560SOL     OW26522   0.487   4.720   7.499 -0.1060  0.2908  0.3996
 8560SOL    HW126523   0.451   4.632   7.493 -1.0798  0.7322 -0.6669
 8560SOL    HW226524   0.580   4.710   7.482 -0.2089 -0.5296  0.2973
 8561SOL     OW26525   0.408   5.756   1.668 -0.4949 -0.2928  0.0944
 8561SOL    HW126526   0.384   5.744   1.576  0.6641 -0.9148 -0.1546
 8561SOL    HW226527   0.504   5.755   1.667 -0.4542  0.5241  1.2128
 8562SOL     OW26528   1.270   0.233   7.224  0.6833 -0.4511  0.2342
 8562SOL    HW126529   1.217   0.301   7.182  2.4228  0.3645 -0.7108
 8562SOL    HW226530   1.205   0.173   7.262 -0.9188  0.2664 -1.2362
 8563SOL     OW26531   2.740   3.782   1.375  0.1024  1.0325 -0.4174
 8563SOL    HW126532   2.801   3.758   1.444 -1.5269  0.6887  0.9833
 8563SOL    HW226533   2.694   3.700   1.354 -2.0016  1.8059  0.8087
 8564SOL     OW26534   2.562   4.974   0.889  0.0527  0.4035  0.6731
 8564SOL    HW126535   2.487   4.989   0.947 -1.1386 -2.1912 -0.0612
 8564SOL    HW226536   2.549   5.037   0.817 -1.8995 -0.4737  0.1794
 8565SOL     OW26537   5.919   6.367   1.370 -0.1012  0.3401 -0.1908
 8565SOL    HW126538   5.839   6.362   1.317  1.0645 -2.9085 -1.9727
 8565SOL    HW226539   5.986   6.394   1.308  0.4092  2.1889  1.0912
 8566SOL     OW26540   5.127   5.761   5.700  0.3166  0.3628  0.3691
 8566SOL    HW126541   5.095   5.694   5.639 -0.6483  0.6376  0.5572
 8566SOL    HW226542   5.063   5.761   5.771  1.8991 -0.5847  1.8623
 8567SOL     OW26543   6.171   4.299   4.405 -0.1626  0.1245  0.4258
 8567SOL    HW126544   6.239   4.362   4.427 -1.0368  1.0087  0.6329
 8567SOL    HW226545   6.124   4.284   4.487  0.2501 -1.0862  0.4684
 8568SOL     OW26546   0.519   0.210   7.301  0.3791 -0.0302  0.8843
 8568SOL    HW126547   0.506   0.277   7.234  0.7663 -1.1360 -0.3649
 8568SOL    HW226548   0.467   0.239   7.376  1.3937  2.1701  0.7906
 8569SOL     OW26549   4.787   4.607   3.811 -0.1891 -0.5836  0.4008
 8569SOL    HW126550   4.813   4.529   3.860  2.8492  0.3129  0.4234
 8569SOL    HW226551   4.787   4.677   3.876  0.4382  0.0094 -0.2246
 8570SOL     OW26552   0.026   5.354   0.089 -0.0930 -0.4755  0.2719
 8570SOL    HW126553   0.072   5.328   0.168 -0.9260 -1.8513  0.3259
 8570SOL    HW226554   0.058   5.294   0.022  0.4020  0.5043 -0.4085
 8571SOL     OW26555   7.633   4.458   5.501  0.1169 -0.9810  0.3137
 8571SOL    HW126556   7.596   4.392   5.443  2.4075  0.7926 -3.5496
 8571SOL    HW226557   7.726   4.437   5.506  0.9975  1.9091 -1.2880
 8572SOL     OW26558   4.711   3.271   6.138 -0.1749  0.1562  0.5415
 8572SOL    HW126559   4.710   3.329   6.214  0.4778  2.4482 -1.0768
 8572SOL    HW226560   4.671   3.322   6.068 -0.9403 -1.9391 -0.6464
 8573SOL     OW26561   4.364   7.881   4.761 -0.6408 -0.1898 -0.0954
 8573SOL    HW126562   4.369   7.825   4.684 -2.6390  1.1455 -1.2877
 8573SOL    HW226563   4.300   7.838   4.819  0.1754 -0.7184  0.4348
 8574SOL     OW26564   0.222   7.431   2.426 -0.1087  0.3425 -0.2577
 8574SOL    HW126565   0.228   7.340   2.454 -1.5487  0.4104  0.3675
 8574SOL    HW226566   0.305   7.448   2.382  0.7314 -0.8734  0.7675
 8575SOL     OW26567   1.238   0.755   5.694  0.6192 -0.0105 -0.5056
 8575SOL    HW126568   1.302   0.804   5.643  0.8277 -0.8880 -1.0989
 8575SOL    HW226569   1.154   0.792   5.669  0.7730  0.0133 -0.9907
 8576SOL     OW26570   6.300   1.998   1.260 -0.0996  0.1360 -0.7287
 8576SOL    HW126571   6.272   1.908   1.245 -1.7660  0.1857  1.4835
 8576SOL    HW226572   6.377   2.009   1.205 -0.6960 -2.1589 -2.1794
 8577SOL     OW26573   5.996   3.856   3.146 -0.0673  0.0490  0.3328
 8577SOL    HW126574   5.913   3.854   3.098  0.3133 -1.9272 -0.3326
 8577SOL    HW226575   6.061   3.824   3.084  0.6993 -1.1252  1.6690
 8578SOL     OW26576   2.566   6.872   8.028  0.7767  0.1835 -0.1292
 8578SOL    HW126577   2.621   6.918   7.965 -0.8636 -0.2402 -1.9908
 8578SOL    HW226578   2.484   6.920   8.027  0.5596 -0.1189  1.3652
 8579SOL     OW26579   6.683   2.666   1.652  0.0107 -0.3147  0.5887
 8579SOL    HW126580   6.604   2.669   1.706  0.4720 -1.8644  1.4102
 8579SOL    HW226581   6.660   2.609   1.579 -0.0391  0.3437  0.0741
 8580SOL     OW26582   4.226   6.705   3.434  0.1549  0.3067  0.2676
 8580SOL    HW126583   4.155   6.765   3.412  0.7214  1.6285  1.8713
 8580SOL    HW226584   4.188   6.645   3.498  0.5906  1.3585  1.5470
 8581SOL     OW26585   4.367   0.179   5.694 -0.0617 -0.4393  0.2401
 8581SOL    HW126586   4.305   0.123   5.648  0.3551 -1.6531  1.1257
 8581SOL    HW226587   4.428   0.208   5.627 -1.8912  1.3033 -0.7930
 8582SOL     OW26588   2.635   0.955   1.861  0.0086 -0.0222 -0.2120
 8582SOL    HW126589   2.682   0.988   1.938 -1.7805 -1.0579  1.4001
 8582SOL    HW226590   2.703   0.915   1.807  1.2659  0.4217  0.9872
 8583SOL     OW26591   4.794   7.998   7.121 -0.5450 -0.2404  0.3949
 8583SOL    HW126592   4.837   7.959   7.197  0.6213  1.4466  0.6549
 8583SOL    HW226593   4.756   8.079   7.154 -0.6447  0.1557 -0.6609
 8584SOL     OW26594   0.137   1.325   2.489 -0.7379  0.2016 -0.3450
 8584SOL    HW126595   0.070   1.263   2.458  0.7928 -0.5136 -2.4822
 8584SOL    HW226596   0.193   1.273   2.546  1.0559 -0.7884 -2.8164
 8585SOL     OW26597   7.005   1.223   0.150 -0.1396  0.4159 -0.5262
 8585SOL    HW126598   7.058   1.149   0.118  0.3626  0.5837 -0.0986
 8585SOL    HW226599   7.030   1.296   0.093 -0.2975  0.3714 -0.6543
 8586SOL     OW26600   0.687   7.763   5.806 -0.3114  0.2216  0.4633
 8586SOL    HW126601   0.629   7.797   5.737  1.2334 -0.6911 -1.3949
 8586SOL    HW226602   0.711   7.675   5.775  0.1347 -0.3756  2.3989
 8587SOL     OW26603   7.893   6.188   2.587  0.1429 -0.2367  0.3324
 8587SOL    HW126604   7.940   6.129   2.527  0.5579 -3.2655  3.3141
 8587SOL    HW226605   7.938   6.272   2.578  1.6901 -1.1927 -1.8246
 8588SOL     OW26606   0.271   2.895   6.198  0.2077 -0.4098 -0.5109
 8588SOL    HW126607   0.205   2.848   6.248  1.2876 -0.2906  1.1214
 8588SOL    HW226608   0.333   2.926   6.264  1.3812  0.3019 -1.8867
 8589SOL     OW26609   4.331   3.138   4.314 -0.4576 -0.0756  0.3489
 8589SOL    HW126610   4.363   3.086   4.241 -0.9678  0.0024  0.0693
 8589SOL    HW226611   4.272   3.202   4.274 -1.9395 -0.9984  0.9839
 8590SOL     OW26612   1.704   2.235   6.263  0.4999 -0.1502  0.2892
 8590SOL    HW126613   1.651   2.155   6.267  0.7239 -0.4890 -2.0132
 8590SOL    HW226614   1.712   2.263   6.354  0.3824 -2.7251  1.1821
 8591SOL     OW26615   3.162   1.466   6.108 -0.2602 -0.1876  0.3140
 8591SOL    HW126616   3.157   1.545   6.162 -0.6781  0.0568 -0.0847
 8591SOL    HW226617   3.094   1.408   6.144  0.1644 -0.4393  0.7203
 8592SOL     OW26618   1.446   0.816   2.909  0.1527  0.0563  0.2943
 8592SOL    HW126619   1.499   0.879   2.959  0.0866 -0.6416  1.2864
 8592SOL    HW226620   1.366   0.806   2.961 -0.2982 -0.0414 -0.4074
 8593SOL     OW26621   7.816   3.236   6.386 -0.1371 -0.1584  0.1354
 8593SOL    HW126622   7.862   3.315   6.414 -0.4727 -0.2594  0.9968
 8593SOL    HW226623   7.877   3.193   6.326  0.4237  0.2803  0.3835
 8594SOL     OW26624   1.780   7.849   7.582  0.1715 -0.6593 -0.1037
 8594SOL    HW126625   1.737   7.790   7.520  0.2297 -0.6259 -0.1768
 8594SOL    HW226626   1.872   7.850   7.554  0.0672 -0.1184 -0.4311
 8595SOL     OW26627   2.175   7.202   0.942 -0.2832 -0.1898  0.1847
 8595SOL    HW126628   2.129   7.148   0.878  0.1352  1.7611 -1.8505
 8595SOL    HW226629   2.264   7.167   0.943 -0.8552 -1.7380  1.5463
 8596SOL     OW26630   0.293   0.821   3.624 -0.3591 -0.3498 -0.2866
 8596SOL    HW126631   0.303   0.769   3.544 -0.3966 -0.1393 -0.4291
 8596SOL    HW226632   0.353   0.895   3.612 -0.6789 -0.0929 -0.3098
 8597SOL     OW26633   3.523   5.316   4.572  0.4827 -0.0987  0.3333
 8597SOL    HW126634   3.554   5.250   4.510  0.7866 -2.5674  2.8979
 8597SOL    HW226635   3.447   5.355   4.530  0.2154 -2.1932 -1.2981
 8598SOL     OW26636   7.117   3.140   0.290 -0.1861 -0.4864  0.3344
 8598SOL    HW126637   7.099   3.094   0.371  1.0800  0.6435  1.3098
 8598SOL    HW226638   7.102   3.075   0.221 -1.0750 -1.5195  1.4686
 8599SOL     OW26639   0.546   0.366   6.459 -0.1449  0.1003  0.3671
 8599SOL    HW126640   0.480   0.319   6.408  0.3081  0.0384 -0.1824
 8599SOL    HW226641   0.626   0.355   6.408 -0.1669  2.0671 -0.1610
 8600SOL     OW26642   7.249   6.758   0.326 -0.6362  0.5723 -0.3566
 8600SOL    HW126643   7.339   6.759   0.293  0.1118  1.1002  1.6062
 8600SOL    HW226644   7.237   6.843   0.368  0.0192 -1.3991  4.4814
 8601SOL     OW26645   6.710   7.076   4.209 -0.4223 -0.0831 -0.0152
 8601SOL    HW126646   6.800   7.085   4.239 -0.4707 -2.6809  1.0992
 8601SOL    HW226647   6.717   7.068   4.114  0.7630 -2.1607  0.1894
 8602SOL     OW26648   1.205   5.328   7.367  0.5904  0.0787 -0.5658
 8602SOL    HW126649   1.232   5.388   7.436  0.5901  0.4672 -0.8988
 8602SOL    HW226650   1.221   5.241   7.403 -2.6005  0.1139  1.2968
 8603SOL     OW26651   3.452   4.825   5.786 -0.2501 -0.5045 -0.2796
 8603SOL    HW126652   3.483   4.872   5.709  0.2657 -0.7414 -0.2214
 8603SOL    HW226653   3.501   4.863   5.859  0.1618 -1.1078 -0.2290
 8604SOL     OW26654   4.927   8.036   0.774  0.1696  0.1691 -0.2832
 8604SOL    HW126655   4.856   8.050   0.712  1.0691 -3.4917 -2.4479
 8604SOL    HW226656   4.975   8.118   0.774 -2.6143  1.9403 -0.5753
 8605SOL     OW26657   5.525   3.419   6.677  0.4138 -0.4463  0.2610
 8605SOL    HW126658   5.582   3.461   6.740 -1.3932 -1.0945  2.4483
 8605SOL    HW226659   5.439   3.458   6.693 -0.1953 -0.9250 -1.5661
 8606SOL     OW26660   5.261   2.185   2.425 -0.4924 -0.2569  0.4458
 8606SOL    HW126661   5.204   2.174   2.348  0.4044 -1.0934 -0.1171
 8606SOL    HW226662   5.222   2.258   2.473 -0.3917  1.1330 -1.4438
 8607SOL     OW26663   5.810   0.183   7.008 -0.3719  0.1696 -0.0914
 8607SOL    HW126664   5.815   0.176   6.913  1.6934  0.2218 -0.0482
 8607SOL    HW226665   5.875   0.250   7.030 -0.7337  0.0760  1.3618
 8608SOL     OW26666   5.192   2.152   5.859  0.3728 -0.1746  0.5585
 8608SOL    HW126667   5.104   2.120   5.837  0.6523 -1.6875  1.5282
 8608SOL    HW226668   5.235   2.078   5.900  2.0362  0.6313  0.3474
 8609SOL     OW26669   0.730   5.019   2.070 -0.7601 -0.2329 -0.6964
 8609SOL    HW126670   0.720   4.959   2.144 -2.5033  1.4966  0.5916
 8609SOL    HW226671   0.733   4.962   1.993  0.6672 -2.0663  0.6381
 8610SOL     OW26672   4.212   0.660   6.137  0.1241  0.1602 -0.7706
 8610SOL    HW126673   4.228   0.634   6.227  0.4037  0.3779 -0.7557
 8610SOL    HW226674   4.202   0.578   6.089 -0.3569  0.0487 -0.4841
 8611SOL     OW26675   3.989   4.582   2.805  0.4985 -0.0943  0.1431
 8611SOL    HW126676   3.942   4.601   2.886 -0.2809  2.2390 -0.7846
 8611SOL    HW226677   3.920   4.571   2.739  1.1584  0.9923 -0.7661
 8612SOL     OW26678   4.749   7.750   0.281  0.6993  0.0008  0.5286
 8612SOL    HW126679   4.685   7.738   0.351 -0.6058  0.1937 -0.5828
 8612SOL    HW226680   4.716   7.826   0.232  1.8999  0.2307  0.0521
 8613SOL     OW26681   6.003   1.237   0.262 -0.6556  0.2535  0.1355
 8613SOL    HW126682   6.075   1.298   0.246  0.1341 -0.7431 -0.2050
 8613SOL    HW226683   5.929   1.275   0.215  0.0184  0.5901 -0.6761
 8614SOL     OW26684   1.962   4.843   1.088 -0.4436  0.4060  0.4836
 8614SOL    HW126685   2.004   4.865   1.004  0.3433 -0.3793  0.6537
 8614SOL    HW226686   2.010   4.895   1.152 -0.0176 -0.1457  0.6222
 8615SOL     OW26687   7.839   6.834   2.427 -0.1618  0.4982 -0.2584
 8615SOL    HW126688   7.824   6.885   2.507 -0.6948 -0.1271  0.0554
 8615SOL    HW226689   7.751   6.820   2.391 -0.0711 -0.5180 -0.1237
 8616SOL     OW26690   7.399   5.960   3.085  0.2577 -0.1114  0.8008
 8616SOL    HW126691   7.436   6.032   3.136  1.1038 -0.6730  0.9948
 8616SOL    HW226692   7.379   6.000   3.000 -0.7290  0.7148  1.3958
 8617SOL     OW26693   3.651   0.954   0.476  0.5958 -0.3424  0.1712
 8617SOL    HW126694   3.623   1.045   0.478 -0.5075 -0.6863  0.9473
 8617SOL    HW226695   3.571   0.903   0.484  1.2777 -1.3733  0.7072
 8618SOL     OW26696   2.344   5.711   7.543  0.0522 -0.1262  0.4144
 8618SOL    HW126697   2.312   5.662   7.467  1.0659  0.5561 -0.4634
 8618SOL    HW226698   2.414   5.766   7.509 -0.3938  1.2172  1.5740
 8619SOL     OW26699   2.807   5.765   7.662  0.1860  0.3297 -0.6115
 8619SOL    HW126700   2.824   5.844   7.610  0.0195  1.2131  0.6376
 8619SOL    HW226701   2.754   5.795   7.736 -0.3932 -1.0683 -0.4173
 8620SOL     OW26702   2.922   3.652   0.570  0.0118  0.0481 -0.1269
 8620SOL    HW126703   2.941   3.594   0.644 -0.8146 -0.4842 -0.3170
 8620SOL    HW226704   3.008   3.677   0.537  0.3979  0.1986  0.9324
 8621SOL     OW26705   7.007   2.459   3.520 -0.7829 -0.0615 -0.0029
 8621SOL    HW126706   6.999   2.475   3.426 -2.5320  0.4680  0.1982
 8621SOL    HW226707   6.970   2.537   3.561 -0.4172 -0.4631  1.1344
 8622SOL     OW26708   7.365   6.278   7.198  0.4662 -0.4490 -0.1538
 8622SOL    HW126709   7.418   6.346   7.241  0.0924  0.4654 -1.1187
 8622SOL    HW226710   7.281   6.319   7.183 -0.1621 -1.5225  0.2968
 8623SOL     OW26711   0.656   7.417   5.148 -0.2971 -0.5755  0.6753
 8623SOL    HW126712   0.566   7.447   5.141 -0.1922 -0.1577  1.0261
 8623SOL    HW226713   0.699   7.449   5.068 -0.6048 -1.3270  0.1978
 8624SOL     OW26714   6.805   1.255   6.818  0.6163 -0.2168 -0.2848
 8624SOL    HW126715   6.878   1.196   6.835 -0.0917 -0.6181  1.5359
 8624SOL    HW226716   6.838   1.342   6.842  0.9174 -0.1779 -0.8063
 8625SOL     OW26717   4.617   1.057   0.554 -0.2721  0.0444 -0.4286
 8625SOL    HW126718   4.626   1.120   0.625  0.3116 -0.0575 -0.4020
 8625SOL    HW226719   4.567   0.985   0.592  1.0343 -0.5504  0.2724
 8626SOL     OW26720   2.457   7.870   6.039 -0.3547  0.3804  0.3844
 8626SOL    HW126721   2.393   7.939   6.055  1.4699  2.1168  0.6483
 8626SOL    HW226722   2.461   7.821   6.121 -2.6085 -0.9594 -0.2187
 8627SOL     OW26723   1.376   3.173   0.091  0.0143 -0.0399  0.6249
 8627SOL    HW126724   1.311   3.184   0.161  1.2447  1.3863  1.6073
 8627SOL    HW226725   1.460   3.170   0.136  0.9866  2.3904 -0.8088
 8628SOL     OW26726   0.829   5.091   3.157  0.5389 -0.0118 -0.6373
 8628SOL    HW126727   0.834   5.026   3.227  2.6940  0.9746  0.2106
 8628SOL    HW226728   0.842   5.175   3.201  0.1751  0.7900 -1.9988
 8629SOL     OW26729   5.737   4.644   7.459 -0.5369 -0.2224 -0.0738
 8629SOL    HW126730   5.663   4.669   7.515  0.0851  0.8239  0.3063
 8629SOL    HW226731   5.802   4.713   7.473 -0.7499  0.6884 -2.9205
 8630SOL     OW26732   0.943   0.768   6.317 -0.2934  0.0449  0.1812
 8630SOL    HW126733   0.979   0.760   6.406  2.2693 -1.7420 -0.8924
 8630SOL    HW226734   0.983   0.847   6.282 -1.1297  0.6270  0.5191
 8631SOL     OW26735   1.369   6.534   1.041  0.1874  0.0672 -0.3498
 8631SOL    HW126736   1.418   6.573   1.112 -2.0630 -0.3067  1.5350
 8631SOL    HW226737   1.375   6.440   1.056  0.4758 -0.0704 -1.2433
 8632SOL     OW26738   3.959   6.397   6.022  0.2867  0.2923 -0.0396
 8632SOL    HW126739   3.939   6.326   5.961  0.7562  0.3551 -0.2651
 8632SOL    HW226740   3.885   6.458   6.013  0.4247  0.3705 -0.6511
 8633SOL     OW26741   5.150   2.413   5.436  0.4236  0.2383 -0.3058
 8633SOL    HW126742   5.079   2.453   5.485  0.5854 -0.0171  0.1427
 8633SOL    HW226743   5.156   2.324   5.470  1.0382  0.2936 -0.2517
 8634SOL     OW26744   3.714   0.980   5.814 -0.1809  0.3966 -0.1556
 8634SOL    HW126745   3.665   0.898   5.800 -1.2659  1.0455 -0.2806
 8634SOL    HW226746   3.649   1.049   5.800  0.6356  1.2768  0.3100
 8635SOL     OW26747   3.778   4.142   5.739  0.4217 -0.2805 -0.0282
 8635SOL    HW126748   3.773   4.208   5.671  2.5141  0.7128  0.6729
 8635SOL    HW226749   3.856   4.091   5.717 -0.6976 -2.0198 -0.1064
 8636SOL     OW26750   1.037   2.409   6.695 -0.4787  0.0827 -0.1944
 8636SOL    HW126751   1.026   2.490   6.645 -0.1321  0.6950  0.6963
 8636SOL    HW226752   1.052   2.341   6.628  0.1775  0.9116 -0.9178
 8637SOL     OW26753   5.400   1.490   7.014  0.4574 -0.1574  0.0305
 8637SOL    HW126754   5.320   1.451   7.047 -0.0218 -1.3641 -2.3254
 8637SOL    HW226755   5.454   1.415   6.987  0.6909  0.6877 -2.0189
 8638SOL     OW26756   0.879   3.001   4.885  0.3374  0.1923 -0.2168
 8638SOL    HW126757   0.952   3.037   4.936  1.4607 -1.6451 -0.4088
 8638SOL    HW226758   0.859   3.068   4.820  2.3032  0.5098 -0.5605
 8639SOL     OW26759   0.354   1.126   5.814 -0.6388 -0.1920  0.0687
 8639SOL    HW126760   0.316   1.100   5.730 -0.5834 -0.9418  0.2638
 8639SOL    HW226761   0.442   1.156   5.791 -1.4358  1.9479 -0.4356
 8640SOL     OW26762   3.555   8.052   4.482 -0.4295  0.1743  0.5696
 8640SOL    HW126763   3.648   8.063   4.502 -0.3920  0.6897  0.1618
 8640SOL    HW226764   3.551   8.056   4.386 -0.9596  0.9859  0.6121
 8641SOL     OW26765   7.138   8.152   2.730  0.4011  0.5021  0.0083
 8641SOL    HW126766   7.193   8.145   2.652 -0.9085  1.5613 -1.0604
 8641SOL    HW226767   7.147   8.067   2.774 -1.3403 -1.4454 -3.0536
 8642SOL     OW26768   4.769   2.301   6.242 -0.0195  0.3196 -0.3118
 8642SOL    HW126769   4.771   2.240   6.316  0.2351  0.4112 -0.2437
 8642SOL    HW226770   4.837   2.269   6.183 -1.3813 -0.8112 -1.3524
 8643SOL     OW26771   5.403   6.051   3.163 -0.2364 -0.2204 -0.3990
 8643SOL    HW126772   5.391   6.096   3.079 -0.8795 -1.7775 -1.1862
 8643SOL    HW226773   5.439   5.965   3.139 -1.6883 -1.2074  0.7957
 8644SOL     OW26774   2.328   6.698   4.047  0.3859  0.4101  0.5892
 8644SOL    HW126775   2.314   6.672   4.138  0.7561  0.7011  0.7317
 8644SOL    HW226776   2.411   6.746   4.048  0.6619 -0.0420  0.0052
 8645SOL     OW26777   5.732   2.611   0.421  0.0396  0.3254  0.5325
 8645SOL    HW126778   5.704   2.662   0.345  0.7886  0.6734  0.4804
 8645SOL    HW226779   5.781   2.538   0.384 -3.3832 -2.1401  0.4089
 8646SOL     OW26780   2.428   1.611   4.472 -0.2117 -0.0224 -0.0181
 8646SOL    HW126781   2.354   1.634   4.416 -0.2735 -1.6559 -0.6644
 8646SOL    HW226782   2.435   1.684   4.534 -0.8164  1.3112 -1.4683
 8647SOL     OW26783   2.785   7.049   3.654  0.0857 -0.3859  0.2320
 8647SOL    HW126784   2.848   7.117   3.681 -0.2163 -0.5937  1.5010
 8647SOL    HW226785   2.710   7.061   3.712 -0.4765 -1.0467 -0.3423
 8648SOL     OW26786   3.137   6.148   1.775  0.5354  0.0292 -0.2786
 8648SOL    HW126787   3.071   6.084   1.749 -1.3454  1.8437 -0.2697
 8648SOL    HW226788   3.148   6.134   1.869 -0.3154  0.0770 -0.1614
 8649SOL     OW26789   6.451   6.921   1.530 -0.8299  0.5207  0.0673
 8649SOL    HW126790   6.369   6.872   1.542 -0.5948  0.1017 -0.0347
 8649SOL    HW226791   6.472   6.911   1.437 -0.2549 -0.0279  0.2458
 8650SOL     OW26792   4.074   2.508   0.169 -0.3393  0.1812  0.1826
 8650SOL    HW126793   3.999   2.477   0.118  0.5366  0.5894 -1.4466
 8650SOL    HW226794   4.075   2.453   0.247 -0.4431 -2.0707 -1.3123
 8651SOL     OW26795   3.069   5.572   7.950  0.3264 -0.2626  0.0943
 8651SOL    HW126796   3.018   5.604   7.876  1.1161 -4.4461 -2.5688
 8651SOL    HW226797   3.157   5.560   7.916  0.6747 -2.5600  1.5831
 8652SOL     OW26798   0.276   6.507   4.516  0.4603 -0.2189  0.0633
 8652SOL    HW126799   0.233   6.592   4.516 -0.5682 -0.6705 -1.8598
 8652SOL    HW226800   0.220   6.452   4.571  1.8830  0.6130  2.4867
 8653SOL     OW26801   6.247   2.505   2.280 -0.2474 -0.2949 -0.2193
 8653SOL    HW126802   6.333   2.546   2.273 -0.5271  0.3535  0.0508
 8653SOL    HW226803   6.263   2.412   2.262  0.1903  0.1194 -2.2501
 8654SOL     OW26804   5.104   3.462   7.098 -1.0636  0.3121 -0.4719
 8654SOL    HW126805   5.150   3.383   7.071 -0.6939 -0.1880  1.4619
 8654SOL    HW226806   5.030   3.469   7.037 -0.9146 -1.3376 -0.8893
 8655SOL     OW26807   2.342   3.334   6.304 -0.0767 -0.0360 -0.1392
 8655SOL    HW126808   2.299   3.294   6.228 -0.3414 -1.5091  0.7512
 8655SOL    HW226809   2.430   3.353   6.274 -0.7609  1.2775 -1.4177
 8656SOL     OW26810   8.119   4.905   0.954 -0.2324  0.4083  0.4526
 8656SOL    HW126811   8.131   4.882   1.046  1.2573  0.4913  0.3168
 8656SOL    HW226812   8.205   4.891   0.915 -0.8028  0.5268 -0.8974
 8657SOL     OW26813   3.414   2.778   5.590 -0.1121 -0.1048  0.4417
 8657SOL    HW126814   3.358   2.701   5.579 -1.2144  0.6628  0.5790
 8657SOL    HW226815   3.498   2.752   5.552 -1.0252 -0.7392 -1.2474
 8658SOL     OW26816   7.253   5.701   1.984  0.0471 -0.1574  0.2238
 8658SOL    HW126817   7.310   5.624   1.992 -0.2710 -0.3557  0.5945
 8658SOL    HW226818   7.168   5.672   2.017 -0.8917 -0.5018 -2.2774
 8659SOL     OW26819   0.544   3.226   6.685 -0.7039 -0.4129 -0.1142
 8659SOL    HW126820   0.554   3.131   6.682 -0.6422 -0.4210  0.3210
 8659SOL    HW226821   0.559   3.249   6.777 -0.2137  0.0681 -0.3060
 8660SOL     OW26822   5.128   7.054   0.315 -0.5128  0.1599  0.0265
 8660SOL    HW126823   5.048   7.061   0.366 -0.6081 -0.2139 -0.0704
 8660SOL    HW226824   5.098   7.041   0.225 -0.3480 -0.1902  0.0180
 8661SOL     OW26825   5.308   1.610   4.455  0.1697 -0.4055 -0.1141
 8661SOL    HW126826   5.398   1.591   4.432  0.5113  1.3944 -0.3664
 8661SOL    HW226827   5.268   1.641   4.374  0.5381  2.9172  0.8084
 8662SOL     OW26828   3.538   4.082   7.156  0.0443  0.8391  0.5398
 8662SOL    HW126829   3.548   4.162   7.207  1.3220  0.3082  1.1779
 8662SOL    HW226830   3.625   4.042   7.156 -0.7433 -0.9863  0.9699
 8663SOL     OW26831   5.573   0.350   2.210 -0.3007 -0.1751 -0.1701
 8663SOL    HW126832   5.602   0.383   2.125  1.0318 -1.3589 -0.2225
 8663SOL    HW226833   5.483   0.382   2.219 -0.3134  0.3560 -1.8062
 8664SOL     OW26834   0.211   4.480   1.541  0.3449  0.1215  0.4248
 8664SOL    HW126835   0.245   4.569   1.552  0.2013  0.2598 -0.2162
 8664SOL    HW226836   0.193   4.450   1.630  0.4276  0.7185  0.6470
 8665SOL     OW26837   6.606   7.467   3.246 -0.6072  0.1042 -0.4523
 8665SOL    HW126838   6.589   7.554   3.282  0.2593  0.0734  0.0655
 8665SOL    HW226839   6.543   7.410   3.289 -1.4355  0.5284 -1.0783
 8666SOL     OW26840   1.438   1.561   1.636  0.3600 -0.3233 -0.4336
 8666SOL    HW126841   1.368   1.525   1.690 -0.1886  0.3615 -0.6751
 8666SOL    HW226842   1.518   1.522   1.671  0.1145  0.7564  1.4568
 8667SOL     OW26843   6.588   6.150   6.713  0.1435  0.2991  0.1740
 8667SOL    HW126844   6.513   6.176   6.766  0.6983  0.7791  0.7365
 8667SOL    HW226845   6.552   6.091   6.647 -0.8521  1.1181 -0.0328
 8668SOL     OW26846   3.643   4.557   4.089  0.0397 -0.1185  0.1113
 8668SOL    HW126847   3.566   4.507   4.117 -0.0974  1.2314  2.3628
 8668SOL    HW226848   3.712   4.532   4.150  1.2725 -0.8623 -1.5216
 8669SOL     OW26849   4.907   1.044   6.135  0.1727  0.0496  0.0830
 8669SOL    HW126850   4.906   1.117   6.198 -0.9790  0.0450  0.1061
 8669SOL    HW226851   4.877   1.083   6.053  0.6560 -0.1674 -0.1980
 8670SOL     OW26852   1.026   2.033   0.034 -0.3460 -0.1124 -0.1189
 8670SOL    HW126853   1.079   2.105   0.068 -0.3962  0.7630 -1.7764
 8670SOL    HW226854   1.075   1.954   0.056  1.4329  0.6461 -1.1460
 8671SOL     OW26855   1.678   4.850   1.719  0.0100  0.0849 -0.3564
 8671SOL    HW126856   1.632   4.933   1.732 -0.0926  0.1998 -1.3424
 8671SOL    HW226857   1.767   4.875   1.696  0.1485 -0.0952 -0.0156
 8672SOL     OW26858   5.925   0.406   5.148  0.3038  0.5256  0.0072
 8672SOL    HW126859   5.886   0.443   5.069 -1.8224 -0.0016  0.7392
 8672SOL    HW226860   6.011   0.448   5.154 -0.1750  1.8727 -1.6263
 8673SOL     OW26861   2.308   5.243   6.264 -0.1872  0.2297 -0.1026
 8673SOL    HW126862   2.364   5.225   6.188  1.8983  1.1383  1.1259
 8673SOL    HW226863   2.368   5.241   6.338 -1.6434  2.1254  1.2180
 8674SOL     OW26864   2.656   4.586   3.664 -0.4729  0.0833  0.3990
 8674SOL    HW126865   2.689   4.582   3.574 -0.4429  1.8896  0.2909
 8674SOL    HW226866   2.676   4.675   3.693 -2.0770  0.1054  1.5669
 8675SOL     OW26867   0.451   0.118   2.870  0.1291  0.5117  0.5046
 8675SOL    HW126868   0.475   0.063   2.945  1.4581 -0.2379 -0.4348
 8675SOL    HW226869   0.498   0.079   2.796 -0.7235  1.5668 -0.6178
 8676SOL     OW26870   3.533   6.261   6.486  0.0762  0.3203  0.2811
 8676SOL    HW126871   3.547   6.170   6.461  0.7190  0.2591  0.8597
 8676SOL    HW226872   3.521   6.258   6.581  0.6305  0.8982  0.3736
 8677SOL     OW26873   6.141   2.130   4.335  0.0230  0.4336  0.0477
 8677SOL    HW126874   6.084   2.142   4.410  0.1982  1.0997  0.0899
 8677SOL    HW226875   6.146   2.218   4.295  0.8056  0.3327 -0.0950
 8678SOL     OW26876   1.192   0.479   6.078 -0.3349  0.2028 -0.6901
 8678SOL    HW126877   1.163   0.398   6.036 -1.3070 -0.2302  0.7670
 8678SOL    HW226878   1.118   0.507   6.131  1.3531 -0.1305  2.0072
 8679SOL     OW26879   0.449   7.260   1.506 -0.1258 -0.0341 -0.2658
 8679SOL    HW126880   0.383   7.328   1.514 -1.3857 -1.1173 -1.0087
 8679SOL    HW226881   0.491   7.277   1.422 -1.4550 -0.9684 -1.1726
 8680SOL     OW26882   3.900   0.454   5.638 -0.0742 -0.2613 -0.1851
 8680SOL    HW126883   3.915   0.479   5.729  0.2495  0.6389 -0.4771
 8680SOL    HW226884   3.856   0.530   5.599  1.1828 -0.0084 -1.1614
 8681SOL     OW26885   5.234   4.532   7.102 -0.0399  0.7409 -0.5715
 8681SOL    HW126886   5.243   4.546   7.196 -0.6378  0.4303 -0.4612
 8681SOL    HW226887   5.195   4.445   7.095 -2.3415  1.7330 -1.0041
 8682SOL     OW26888   0.519   0.977   4.612  0.3011 -0.6974 -0.4907
 8682SOL    HW126889   0.521   1.032   4.534  1.7601  1.1968  0.7929
 8682SOL    HW226890   0.430   0.941   4.614 -0.5093  1.1004 -1.7560
 8683SOL     OW26891   3.368   4.140   5.798 -0.4868 -0.0637 -0.1067
 8683SOL    HW126892   3.400   4.067   5.745 -1.0140  1.1345 -2.2004
 8683SOL    HW226893   3.324   4.197   5.735  0.4165  2.3549  1.3369
 8684SOL     OW26894   2.976   5.213   0.656  0.0371  0.3195  0.2824
 8684SOL    HW126895   2.953   5.154   0.729  0.3075 -2.0188 -1.3963
 8684SOL    HW226896   2.895   5.224   0.607  0.6525 -1.5475 -1.2957
 8685SOL     OW26897   1.636   3.072   0.521 -0.2052  0.1294  0.0424
 8685SOL    HW126898   1.550   3.100   0.555 -0.6574 -0.7103 -0.3761
 8685SOL    HW226899   1.622   3.066   0.426  0.3103 -0.0574 -0.0193
 8686SOL     OW26900   7.369   6.427   4.066 -0.4640 -0.4624 -0.1589
 8686SOL    HW126901   7.314   6.352   4.045 -1.2596 -0.1787  0.8233
 8686SOL    HW226902   7.322   6.472   4.137  0.9307 -0.0898  0.5545
 8687SOL     OW26903   8.083   4.978   6.581 -0.5038 -0.4603 -0.0009
 8687SOL    HW126904   8.079   4.915   6.509  3.2273 -0.9463  0.0448
 8687SOL    HW226905   8.132   5.052   6.546  0.1169 -0.0718  1.6054
 8688SOL     OW26906   4.130   8.057   7.513 -0.4243  0.0612  0.5229
 8688SOL    HW126907   4.035   8.056   7.500 -0.2998  0.4353 -0.5526
 8688SOL    HW226908   4.161   7.981   7.463 -0.2440 -0.6868  1.7427
 8689SOL     OW26909   6.318   6.146   6.277 -0.3242 -0.0983 -0.7952
 8689SOL    HW126910   6.382   6.213   6.250  0.5507 -0.8980 -0.7702
 8689SOL    HW226911   6.252   6.147   6.207 -1.4989  2.2389  0.2450
 8690SOL     OW26912   7.175   5.171   2.460 -0.3837 -0.2540 -0.4481
 8690SOL    HW126913   7.140   5.139   2.376 -2.1666  1.7077 -0.5273
 8690SOL    HW226914   7.239   5.238   2.436  0.2417 -0.7537 -0.2224
 8691SOL     OW26915   3.599   0.013   6.889 -0.3179  0.3881  0.0237
 8691SOL    HW126916   3.615  -0.016   6.979  0.6255  0.3571 -0.1454
 8691SOL    HW226917   3.663   0.083   6.875 -0.6874  0.6188 -0.5121
 8692SOL     OW26918   1.929   3.921   2.318 -0.7927  0.2053 -0.3537
 8692SOL    HW126919   1.917   3.943   2.226 -2.5988  0.2908 -0.1222
 8692SOL    HW226920   1.862   3.856   2.337 -1.2963  1.1242  1.2123
 8693SOL     OW26921   4.748   7.073   2.042 -0.2581 -0.2298 -0.2915
 8693SOL    HW126922   4.700   7.003   2.085 -0.7340  0.1014 -0.2751
 8693SOL    HW226923   4.720   7.153   2.086  0.4703 -0.0492 -0.1391
 8694SOL     OW26924   6.016   4.627   4.237  0.1703  0.1173 -0.0370
 8694SOL    HW126925   5.989   4.539   4.214  2.0162 -0.0338 -1.9808
 8694SOL    HW226926   6.099   4.615   4.283  1.5016  0.8372 -2.1108
 8695SOL     OW26927   0.303   2.747   2.600  1.1101 -0.9416 -0.4353
 8695SOL    HW126928   0.391   2.729   2.634  1.3956 -2.1425 -1.7235
 8695SOL    HW226929   0.319   2.791   2.516  0.4274  1.4931  0.6416
 8696SOL     OW26930   0.113   4.153   6.534 -0.2282 -0.2431  0.3629
 8696SOL    HW126931   0.113   4.082   6.598  1.1706 -0.0966  0.5472
 8696SOL    HW226932   0.098   4.110   6.450 -1.9988 -0.4448  0.7422
 8697SOL     OW26933   4.363   1.681   7.289  0.1812  0.2511 -0.0732
 8697SOL    HW126934   4.285   1.717   7.332  1.5137  0.9033  1.9336
 8697SOL    HW226935   4.341   1.589   7.273 -0.1208 -0.3131  2.9210
 8698SOL     OW26936   4.596   3.419   1.170  0.6394 -0.1536  0.3501
 8698SOL    HW126937   4.558   3.331   1.164  0.4279 -0.1294  1.1880
 8698SOL    HW226938   4.664   3.421   1.103 -0.1359 -0.5569 -0.4669
 8699SOL     OW26939   4.812   5.700   7.800  0.3373 -0.2323  0.4289
 8699SOL    HW126940   4.760   5.761   7.851  0.3495  0.9592 -0.9268
 8699SOL    HW226941   4.862   5.755   7.740  1.3101 -1.5006  0.0288
 8700SOL     OW26942   0.300   7.334   6.673 -0.6456 -0.1419  0.1521
 8700SOL    HW126943   0.233   7.357   6.609  0.4214 -0.7034 -1.2088
 8700SOL    HW226944   0.357   7.272   6.627 -0.0420 -0.8286  1.7614
 8701SOL     OW26945   1.395   1.058   3.219 -0.4356  0.3915 -0.0545
 8701SOL    HW126946   1.470   1.114   3.236 -0.5574  0.9025 -1.1391
 8701SOL    HW226947   1.336   1.111   3.166 -1.2290 -0.2590  0.1460
 8702SOL     OW26948   0.398   5.979   6.826 -0.0552 -0.2585  0.0679
 8702SOL    HW126949   0.334   6.040   6.862  0.9007  0.5859  0.3869
 8702SOL    HW226950   0.349   5.925   6.764 -0.7744  1.3579 -0.8141
 8703SOL     OW26951   7.991   4.047   6.801 -0.4801 -0.1844 -0.4099
 8703SOL    HW126952   7.999   3.956   6.771  1.2248  0.1536 -1.0937
 8703SOL    HW226953   7.940   4.090   6.732 -1.9327 -0.7357  0.2649
 8704SOL     OW26954   3.498   6.948   2.789  0.4631  0.0310  0.0076
 8704SOL    HW126955   3.471   7.015   2.726  1.5025  0.0975 -0.3832
 8704SOL    HW226956   3.594   6.947   2.784  0.5549 -0.1854  1.3707
 8705SOL     OW26957   3.671   6.088   0.341 -0.0770 -0.0349 -0.2751
 8705SOL    HW126958   3.619   6.141   0.280 -1.4617 -1.6194 -0.5530
 8705SOL    HW226959   3.727   6.035   0.285 -0.4509 -0.5953 -0.1246
 8706SOL     OW26960   7.151   2.518   4.050  0.0194 -0.0702 -0.2905
 8706SOL    HW126961   7.127   2.608   4.028 -1.2340 -0.3682 -0.2433
 8706SOL    HW226962   7.133   2.510   4.144 -2.0968 -0.9965 -0.7212
 8707SOL     OW26963   7.074   6.559   1.942 -0.1817 -0.6913  0.0348
 8707SOL    HW126964   7.154   6.508   1.938  1.1572  1.3781 -2.0124
 8707SOL    HW226965   7.013   6.512   1.885  1.1025  0.0406 -2.0186
 8708SOL     OW26966   1.437   0.648   7.343 -0.6608  0.0010 -0.2132
 8708SOL    HW126967   1.363   0.683   7.391 -2.9832 -1.8983 -2.1489
 8708SOL    HW226968   1.413   0.557   7.324  2.8539 -1.2056  0.3348
 8709SOL     OW26969   3.267   0.139   7.189 -0.0240  0.0851  0.6638
 8709SOL    HW126970   3.209   0.207   7.222 -0.2459  0.3400 -0.2395
 8709SOL    HW226971   3.249   0.134   7.095  0.6182 -0.6049  0.5618
 8710SOL     OW26972   1.923   0.354   6.147  0.3459 -0.5708 -0.4801
 8710SOL    HW126973   1.958   0.351   6.057 -0.6654 -2.7893 -0.8665
 8710SOL    HW226974   2.000   0.372   6.201  1.6968 -2.7453 -1.5169
 8711SOL     OW26975   5.931   1.135   2.543 -0.5649  0.2449  0.0768
 8711SOL    HW126976   5.940   1.145   2.448 -0.3153  2.7432  0.2938
 8711SOL    HW226977   5.898   1.220   2.573 -0.0124 -0.2674  2.3124
 8712SOL     OW26978   3.715   5.353   7.424  0.1866 -0.0244 -0.4427
 8712SOL    HW126979   3.765   5.292   7.370  0.9037 -0.2654  0.4636
 8712SOL    HW226980   3.686   5.301   7.499  1.0816  0.8012  0.5130
 8713SOL     OW26981   0.779   6.704   3.596  0.0060 -0.7671 -0.8475
 8713SOL    HW126982   0.754   6.614   3.615  1.4352 -1.2872 -1.2880
 8713SOL    HW226983   0.698   6.746   3.567 -0.7204 -1.8487 -0.4323
 8714SOL     OW26984   3.430   2.038   2.675 -0.0335 -0.3287  0.1698
 8714SOL    HW126985   3.352   2.077   2.634  0.0955  0.0254  0.2580
 8714SOL    HW226986   3.404   2.021   2.765 -0.0885 -0.4470  0.1321
 8715SOL     OW26987   4.593   4.998   7.274 -0.4607 -0.1391 -0.3886
 8715SOL    HW126988   4.580   4.945   7.195  0.3393 -0.3939 -0.3578
 8715SOL    HW226989   4.665   4.955   7.320 -1.1469 -0.2087  0.6658
 8716SOL     OW26990   7.594   3.006   4.680  0.1163  0.1163  0.1403
 8716SOL    HW126991   7.633   2.933   4.729  0.5326 -0.5843 -1.1687
 8716SOL    HW226992   7.614   2.985   4.589 -0.8182  1.2693 -0.3377
 8717SOL     OW26993   7.598   6.145   1.818  0.1437  0.2803  0.3750
 8717SOL    HW126994   7.599   6.085   1.743 -0.4101 -1.8618  1.9980
 8717SOL    HW226995   7.686   6.137   1.856 -0.2982 -0.4897  1.2904
 8718SOL     OW26996   2.928   2.131   1.871  0.0408 -0.4362 -0.2644
 8718SOL    HW126997   2.962   2.042   1.877 -0.7888 -0.8353 -1.1794
 8718SOL    HW226998   2.958   2.163   1.786  1.6534  0.7664  0.6809
 8719SOL     OW26999   3.650   1.350   4.510  0.3670 -0.4081 -0.0083
 8719SOL    HW127000   3.684   1.279   4.455 -0.1016 -0.7816  0.1810
 8719SOL    HW227001   3.563   1.320   4.537  0.6107 -0.2639  0.9820
 8720SOL     OW27002   1.237   7.477   3.031  0.6466  0.0030 -0.4862
 8720SOL    HW127003   1.309   7.458   3.092  1.0769  0.7493 -0.7460
 8720SOL    HW227004   1.171   7.521   3.085  0.7611  0.1035 -0.4257
 8721SOL     OW27005   5.333   1.547   4.798  0.2538  0.1599  0.2739
 8721SOL    HW127006   5.381   1.539   4.715 -1.8255 -3.3074 -0.7940
 8721SOL    HW227007   5.266   1.613   4.781 -0.0837 -0.4408 -0.8193
 8722SOL     OW27008   6.305   5.028   4.134  0.7703  0.0634  0.3300
 8722SOL    HW127009   6.316   5.056   4.224 -0.7802 -0.7490  0.7937
 8722SOL    HW227010   6.237   5.085   4.098  0.0059 -0.8468  0.2770
 8723SOL     OW27011   7.863   6.878   2.063 -0.4052 -0.2414 -0.1271
 8723SOL    HW127012   7.942   6.834   2.030 -0.2530  0.6342 -0.9798
 8723SOL    HW227013   7.814   6.901   1.984 -0.5219  1.0313  0.2995
 8724SOL     OW27014   2.722   2.688   3.337  0.3142  0.7073 -0.2462
 8724SOL    HW127015   2.705   2.620   3.402 -0.4429  1.0825 -0.0464
 8724SOL    HW227016   2.645   2.688   3.281  0.8987  0.4877 -1.0752
 8725SOL     OW27017   0.300   7.745   1.441 -0.0766 -0.2711  0.5029
 8725SOL    HW127018   0.246   7.824   1.445 -0.9349 -0.7524 -0.8443
 8725SOL    HW227019   0.372   7.769   1.383 -1.8252 -1.2387 -2.2684
 8726SOL     OW27020   1.659   2.627   4.278 -0.1368 -0.2609  0.1431
 8726SOL    HW127021   1.658   2.540   4.236 -2.1701 -0.6695  0.9011
 8726SOL    HW227022   1.575   2.666   4.253 -0.2702  0.5306  1.6934
 8727SOL     OW27023   0.591   7.590   0.253 -0.0450  0.2785 -0.8156
 8727SOL    HW127024   0.667   7.572   0.197  1.9407  0.7774  1.5580
 8727SOL    HW227025   0.566   7.680   0.230 -0.6071 -0.2458 -2.3340
 8728SOL     OW27026   5.774   3.036   6.431  0.3203  0.7678  0.0380
 8728SOL    HW127027   5.746   3.108   6.488 -0.0785  0.2492  0.5041
 8728SOL    HW227028   5.772   2.959   6.487  0.5281  0.3506 -0.5209
 8729SOL     OW27029   3.806   4.688   3.332  0.1474  0.1503  0.2178
 8729SOL    HW127030   3.846   4.755   3.277 -0.6407  0.1958 -0.3071
 8729SOL    HW227031   3.712   4.694   3.315  0.1215 -1.6945 -0.5513
 8730SOL     OW27032   5.216   6.779   7.685  0.6684  0.1093  0.5511
 8730SOL    HW127033   5.246   6.806   7.598 -0.1916  1.7221  0.7100
 8730SOL    HW227034   5.139   6.724   7.667  0.6595  0.2033  0.2921
 8731SOL     OW27035   0.289   7.271   3.581  0.5082  0.3462 -0.0225
 8731SOL    HW127036   0.211   7.232   3.621  0.7920 -1.4153 -1.0700
 8731SOL    HW227037   0.343   7.298   3.655 -0.8730  1.1836  0.7214
 8732SOL     OW27038   6.119   6.064   0.641 -0.0051  0.3857 -0.5128
 8732SOL    HW127039   6.182   6.113   0.693 -1.5196  1.2026  0.6111
 8732SOL    HW227040   6.124   6.103   0.554  2.9267 -1.3352 -1.2737
 8733SOL     OW27041   7.731   3.639   6.108  0.2205 -0.2421  0.3999
 8733SOL    HW127042   7.645   3.596   6.101  0.3181 -0.9169  2.5913
 8733SOL    HW227043   7.794   3.568   6.100  0.5659  0.1756 -0.6508
 8734SOL     OW27044   5.480   1.774   6.372  0.4526  0.4810 -0.0660
 8734SOL    HW127045   5.573   1.764   6.355  0.8227  0.4116  1.7686
 8734SOL    HW227046   5.449   1.686   6.392  0.1817  0.6168  0.1300
 8735SOL     OW27047   4.674   6.886   2.257  0.2103 -0.3813 -0.1535
 8735SOL    HW127048   4.757   6.869   2.302  0.1368  0.4736  0.3385
 8735SOL    HW227049   4.622   6.933   2.322 -0.8033 -1.2199 -0.3301
 8736SOL     OW27050   5.545   1.630   2.476 -0.2862 -0.2701 -0.5168
 8736SOL    HW127051   5.455   1.608   2.502 -0.4550 -0.9852 -1.6392
 8736SOL    HW227052   5.566   1.566   2.408  1.7814 -1.3640  1.0282
 8737SOL     OW27053   7.487   2.313   4.112 -0.1566  0.3577 -0.4889
 8737SOL    HW127054   7.442   2.292   4.193  2.0061  1.1890  1.0043
 8737SOL    HW227055   7.421   2.360   4.060 -1.3842  0.4017  1.0405
 8738SOL     OW27056   2.220   0.279   3.550 -0.1539  0.3480 -0.7869
 8738SOL    HW127057   2.206   0.276   3.455 -3.2791  0.2462 -0.4065
 8738SOL    HW227058   2.183   0.197   3.582  0.6694  0.4835  0.5759
 8739SOL     OW27059   1.376   1.102   4.331  0.3609  0.0993 -0.9661
 8739SOL    HW127060   1.355   1.079   4.421 -0.1083  0.8408 -0.8739
 8739SOL    HW227061   1.431   1.031   4.299  0.3306 -0.2816 -0.1698
 8740SOL     OW27062   4.174   7.648   6.930 -0.1053  0.2068 -0.0363
 8740SOL    HW127063   4.156   7.605   6.846 -1.1046 -0.2456  0.3933
 8740SOL    HW227064   4.244   7.710   6.910 -0.6097  0.4107 -1.3067
 8741SOL     OW27065   1.139   5.739   4.579  0.2363 -0.0148 -0.0604
 8741SOL    HW127066   1.151   5.699   4.492 -0.6401 -2.3345  0.7964
 8741SOL    HW227067   1.077   5.810   4.564 -0.4855 -0.8576 -1.2590
 8742SOL     OW27068   7.928   2.096   5.648 -0.0368 -0.5215  0.0988
 8742SOL    HW127069   8.006   2.066   5.601  0.9347  0.4425  1.0275
 8742SOL    HW227070   7.933   2.192   5.644 -1.2804 -0.4457  0.0188
 8743SOL     OW27071   1.311   2.867   0.079 -0.0574 -0.1375 -0.1537
 8743SOL    HW127072   1.342   2.958   0.080  1.8139 -0.7039  2.1803
 8743SOL    HW227073   1.366   2.824   0.014 -0.7867  0.3081 -1.0939
 8744SOL     OW27074   1.480   5.405   7.205 -0.2571 -0.3439  0.4756
 8744SOL    HW127075   1.420   5.438   7.272 -0.3958 -0.1772  0.2707
 8744SOL    HW227076   1.528   5.483   7.175 -0.7512 -0.2833 -0.1785
 8745SOL     OW27077   1.139   0.726   5.236  0.0301 -0.1318  0.4573
 8745SOL    HW127078   1.169   0.724   5.326  2.0273  1.2548 -0.1087
 8745SOL    HW227079   1.140   0.634   5.208  2.2640 -0.3303  1.0079
 8746SOL     OW27080   5.164   1.333   1.707 -0.4437 -0.0740  0.2951
 8746SOL    HW127081   5.228   1.397   1.740 -0.5245  0.5009 -0.6237
 8746SOL    HW227082   5.203   1.299   1.627 -1.3154  0.3434 -0.3218
 8747SOL     OW27083   1.926   4.676   6.320  0.0179 -0.0576  0.7098
 8747SOL    HW127084   1.982   4.722   6.257  0.0422  0.8904  1.3983
 8747SOL    HW227085   1.861   4.742   6.346 -1.1406 -0.9890  0.2843
 8748SOL     OW27086   3.955   2.451   8.080 -0.8814 -0.0288  0.2277
 8748SOL    HW127087   3.885   2.462   8.014 -0.4223 -1.3644 -0.5164
 8748SOL    HW227088   3.912   2.404   8.152 -1.2479  0.9642  0.6794
 8749SOL     OW27089   6.207   7.420   2.194  0.5577  0.7509  0.0351
 8749SOL    HW127090   6.272   7.403   2.263 -0.7464  1.2130  1.4399
 8749SOL    HW227091   6.123   7.415   2.239 -0.4665 -0.6846 -1.9030
 8750SOL     OW27092   2.074   5.706   1.596  0.5580 -0.3961 -0.4091
 8750SOL    HW127093   2.140   5.652   1.551  2.0231  0.1452  0.9763
 8750SOL    HW227094   2.045   5.652   1.669 -0.9354 -0.8059 -1.2548
 8751SOL     OW27095   2.124   2.119   7.738 -0.8789  0.3832 -0.5223
 8751SOL    HW127096   2.115   2.074   7.654  1.8068 -1.5676  0.0892
 8751SOL    HW227097   2.046   2.095   7.787 -0.9921 -1.0794 -1.3674
 8752SOL     OW27098   7.333   6.688   4.226  0.3180  0.3518 -0.9236
 8752SOL    HW127099   7.420   6.712   4.194  0.0242  0.9057 -1.3253
 8752SOL    HW227100   7.276   6.757   4.193 -0.0589  0.7520  0.4918
 8753SOL     OW27101   4.989   6.413   1.813  0.0030 -0.1251  0.1422
 8753SOL    HW127102   5.081   6.389   1.826 -0.0103  0.0493  0.5804
 8753SOL    HW227103   4.949   6.335   1.774 -0.1230 -0.9997  1.9218
 8754SOL     OW27104   1.306   7.821   1.066  0.5213  0.0123 -0.1147
 8754SOL    HW127105   1.298   7.915   1.051  1.2549  0.0393 -0.3874
 8754SOL    HW227106   1.401   7.805   1.068  0.4187 -0.5950  0.7113
 8755SOL     OW27107   3.802   0.356   3.233 -0.1466  0.3884 -0.4039
 8755SOL    HW127108   3.789   0.363   3.139 -1.7914  0.1303 -0.2234
 8755SOL    HW227109   3.829   0.444   3.261  0.2292  0.4934 -1.0800
 8756SOL     OW27110   1.045   4.038   2.792 -0.0309 -0.2986 -0.0401
 8756SOL    HW127111   1.138   4.039   2.814  0.5277  1.4487 -2.1445
 8756SOL    HW227112   1.010   4.119   2.830 -1.0363 -1.5477  1.8286
 8757SOL     OW27113   6.004   2.109   6.294 -0.2146  0.2762  0.2472
 8757SOL    HW127114   5.940   2.180   6.300 -1.0289 -0.2951 -1.2477
 8757SOL    HW227115   6.066   2.137   6.227  0.3729  0.2370  0.7540
 8758SOL     OW27116   5.907   4.855   0.186 -0.2962  0.2395 -0.9550
 8758SOL    HW127117   5.977   4.846   0.122 -0.0950 -1.1180 -0.5815
 8758SOL    HW227118   5.886   4.948   0.186  2.4385  0.9338 -0.0909
 8759SOL     OW27119   4.501   5.655   6.796  0.2692  0.0939 -0.3528
 8759SOL    HW127120   4.528   5.563   6.796  0.1627  0.0531  0.3927
 8759SOL    HW227121   4.435   5.661   6.727 -0.9456 -0.7794  0.6777
 8760SOL     OW27122   2.815   0.463   1.802  0.4553 -0.4554 -0.9205
 8760SOL    HW127123   2.853   0.549   1.783 -0.9341  0.1135 -1.1980
 8760SOL    HW227124   2.843   0.409   1.729  0.6367 -0.0240 -1.1787
 8761SOL     OW27125   7.939   6.736   7.194 -0.5021  0.2180  0.0089
 8761SOL    HW127126   7.949   6.641   7.188 -0.9059  0.1197  0.7547
 8761SOL    HW227127   7.863   6.756   7.139 -1.1212 -0.0418  0.7501
 8762SOL     OW27128   1.405   5.634   6.278  0.3177  0.5138  0.1584
 8762SOL    HW127129   1.390   5.610   6.187 -0.2314  0.1690  0.3366
 8762SOL    HW227130   1.348   5.576   6.328  0.9958  0.3417  0.7536
 8763SOL     OW27131   0.310   4.064   8.095  0.4126 -0.3603  0.1260
 8763SOL    HW127132   0.228   4.034   8.134  0.0435  0.6660  0.1795
 8763SOL    HW227133   0.356   3.984   8.070 -0.5439 -0.9550  0.2213
 8764SOL     OW27134   1.918   1.611   0.582 -0.4120  0.2464 -0.0706
 8764SOL    HW127135   1.888   1.692   0.541 -1.1892 -0.6550 -1.3366
 8764SOL    HW227136   1.843   1.581   0.633  0.4438  1.1965  1.8491
 8765SOL     OW27137   2.964   8.082   4.906  0.2125 -0.0820  0.9262
 8765SOL    HW127138   2.912   8.148   4.951  0.8035  0.1684  1.2508
 8765SOL    HW227139   2.939   7.999   4.947 -2.2505 -0.4202 -1.0145
 8766SOL     OW27140   6.890   6.144   2.500 -0.5402  0.3608 -0.1277
 8766SOL    HW127141   6.970   6.183   2.464 -0.8945  1.9362  0.7208
 8766SOL    HW227142   6.872   6.195   2.579 -1.6180 -0.8867  0.4709
 8767SOL     OW27143   2.539   5.326   1.070 -0.2619  0.0142 -0.3994
 8767SOL    HW127144   2.569   5.259   1.131 -0.9501  1.5811  1.7753
 8767SOL    HW227145   2.615   5.382   1.056  0.3205 -1.1546 -2.2339
 8768SOL     OW27146   7.016   1.373   5.553  0.2729  0.5056  0.0943
 8768SOL    HW127147   6.972   1.296   5.519 -0.4197  1.4919 -1.3458
 8768SOL    HW227148   6.946   1.437   5.568  0.8634  0.9753  0.9721
 8769SOL     OW27149   7.506   0.546   7.338  0.2424  0.0690 -0.2955
 8769SOL    HW127150   7.475   0.471   7.287  1.4733 -1.4274  1.0453
 8769SOL    HW227151   7.590   0.568   7.298  0.4570 -0.0609  0.0871
 8770SOL     OW27152   7.661   5.988   1.600  0.2773  0.4357  0.4719
 8770SOL    HW127153   7.600   5.916   1.583 -0.9287  1.9997 -2.6167
 8770SOL    HW227154   7.687   6.019   1.513  2.4252  2.3804  1.6825
 8771SOL     OW27155   4.483   8.107   5.297 -0.3379 -0.0200 -0.2351
 8771SOL    HW127156   4.494   8.012   5.309  0.9952 -0.0988 -1.7137
 8771SOL    HW227157   4.460   8.116   5.204  0.3780  1.1369 -0.3152
 8772SOL     OW27158   3.663   0.832   5.172  0.1230 -1.2277  0.3981
 8772SOL    HW127159   3.628   0.921   5.165  1.5832 -0.6647 -0.1176
 8772SOL    HW227160   3.631   0.788   5.094 -0.2391 -1.0269  0.4291
 8773SOL     OW27161   5.691   0.582   7.723 -0.2636  0.6999 -0.7376
 8773SOL    HW127162   5.722   0.532   7.798 -1.7476  0.9210  0.0617
 8773SOL    HW227163   5.750   0.558   7.651  0.7603 -0.0290  0.3225
 8774SOL     OW27164   7.330   1.189   5.683 -0.2165  0.8089 -0.2077
 8774SOL    HW127165   7.386   1.257   5.720 -0.4205  0.0178  1.6875
 8774SOL    HW227166   7.255   1.185   5.743 -0.7227 -0.3330 -0.8880
 8775SOL     OW27167   4.798   5.879   1.979 -0.5042  0.5971 -0.4075
 8775SOL    HW127168   4.728   5.891   2.043 -1.1903  0.5288 -1.1140
 8775SOL    HW227169   4.828   5.789   1.993 -0.3279  0.7400  0.1261
 8776SOL     OW27170   3.725   5.313   1.448 -0.0092  0.5577 -0.0617
 8776SOL    HW127171   3.655   5.361   1.403  0.8198  0.9174 -0.9929
 8776SOL    HW227172   3.700   5.221   1.438 -0.0276  0.6504 -0.9471
 8777SOL     OW27173   4.719   2.048   4.283  0.5444  0.0661  0.5178
 8777SOL    HW127174   4.710   2.006   4.197 -0.6033 -0.3916  0.8375
 8777SOL    HW227175   4.772   1.987   4.334 -1.1990 -1.1440  1.0105
 8778SOL     OW27176   5.235   6.143   6.639  0.5224  0.0423  0.3906
 8778SOL    HW127177   5.188   6.201   6.580 -1.0313  1.4316  2.8130
 8778SOL    HW227178   5.227   6.056   6.600 -0.8690  0.8295 -1.1602
 8779SOL     OW27179   0.839   2.944   1.328  0.0520  1.2250 -0.0844
 8779SOL    HW127180   0.890   2.973   1.403 -2.8680  2.8919  1.4434
 8779SOL    HW227181   0.795   3.024   1.296 -0.7785  0.1048 -1.9626
 8780SOL     OW27182   3.025   0.634   1.759  0.2197 -0.1115  0.2104
 8780SOL    HW127183   3.114   0.645   1.794  0.5243  0.7948 -0.8245
 8780SOL    HW227184   3.038   0.606   1.668 -0.5701 -1.0404  0.3622
 8781SOL     OW27185   1.879   8.169   4.483 -0.0887  0.4801  0.2159
 8781SOL    HW127186   1.888   8.115   4.405 -1.0377 -0.6322  0.8551
 8781SOL    HW227187   1.951   8.143   4.539  1.3458  2.1502 -0.7291
 8782SOL     OW27188   4.050   6.180   6.900  0.1054  0.3045 -1.0283
 8782SOL    HW127189   4.061   6.102   6.953  2.5718 -0.5156 -2.5894
 8782SOL    HW227190   3.956   6.184   6.882 -0.2295 -1.5862  0.1040
 8783SOL     OW27191   2.242   6.092   8.045 -0.4506  0.3052  0.5955
 8783SOL    HW127192   2.200   6.039   8.112 -0.8509  1.3606  1.1945
 8783SOL    HW227193   2.320   6.042   8.021  0.5028  0.5686  2.9005
 8784SOL     OW27194   2.933   7.795   4.716  0.7479 -0.6603  0.8157
 8784SOL    HW127195   2.950   7.701   4.713  1.0183 -0.6730  2.0437
 8784SOL    HW227196   2.861   7.808   4.654 -0.4361 -1.9477  1.8410
 8785SOL     OW27197   5.078   5.456   2.064  0.1079 -0.0480  0.0164
 8785SOL    HW127198   5.149   5.517   2.047  0.8854 -0.8767  0.1820
 8785SOL    HW227199   5.101   5.415   2.148 -0.0579 -1.0214 -0.3985
 8786SOL     OW27200   5.709   1.786   1.752  0.0605 -0.0348 -0.0830
 8786SOL    HW127201   5.627   1.817   1.789  0.7512 -0.4224  1.8801
 8786SOL    HW227202   5.777   1.825   1.807  1.2800  0.9447 -2.1590
 8787SOL     OW27203   1.519   3.920   3.715 -0.2665  0.0138 -0.3576
 8787SOL    HW127204   1.532   3.996   3.772  0.9638  1.7944 -2.7841
 8787SOL    HW227205   1.608   3.886   3.700 -0.6768 -1.0874 -0.3489
 8788SOL     OW27206   6.577   4.578   7.637 -0.1412 -0.1582 -0.5258
 8788SOL    HW127207   6.626   4.504   7.601  0.5433  1.6182 -3.6226
 8788SOL    HW227208   6.643   4.645   7.656 -1.0155  1.2366 -2.0818
 8789SOL     OW27209   1.000   5.978   5.563 -0.1994 -0.0816 -0.7298
 8789SOL    HW127210   1.090   6.010   5.557  0.2980 -0.9642  1.3899
 8789SOL    HW227211   0.967   6.013   5.646 -0.7082 -2.3281  0.0920
 8790SOL     OW27212   1.525   0.763   6.812  0.2843 -0.5158 -0.1791
 8790SOL    HW127213   1.549   0.786   6.901  0.3374 -0.5320 -0.1889
 8790SOL    HW227214   1.488   0.675   6.818  0.5396 -0.6279 -0.2094
 8791SOL     OW27215   0.419   7.239   4.020 -0.5054 -0.0842 -0.0116
 8791SOL    HW127216   0.484   7.168   4.015  0.8370  1.1143 -0.2581
 8791SOL    HW227217   0.427   7.285   3.937 -0.4480  1.0950  0.6231
 8792SOL     OW27218   3.386   5.442   5.480  0.2082  0.0159  0.3957
 8792SOL    HW127219   3.346   5.425   5.394 -0.7379  0.4140  0.7381
 8792SOL    HW227220   3.432   5.525   5.469  1.0115 -0.4710 -0.0178
 8793SOL     OW27221   0.423   7.302   0.460 -0.6848 -0.3565 -0.0299
 8793SOL    HW127222   0.418   7.398   0.465 -1.6041 -0.3253 -1.1753
 8793SOL    HW227223   0.516   7.283   0.472 -0.4500  0.6943 -0.0460
 8794SOL     OW27224   6.164   1.475   3.366  0.7518  0.1003 -0.0621
 8794SOL    HW127225   6.123   1.527   3.435 -0.7147 -0.8782 -0.1711
 8794SOL    HW227226   6.257   1.500   3.370  0.4786  1.0097  1.3881
 8795SOL     OW27227   7.681   0.387   2.354  0.4597  0.0014 -0.8120
 8795SOL    HW127228   7.623   0.319   2.322  0.5943 -1.0624  1.0541
 8795SOL    HW227229   7.726   0.420   2.276  1.1635 -2.7712 -1.6864
 8796SOL     OW27230   2.345   5.757   6.665  0.1400 -0.6806  0.1597
 8796SOL    HW127231   2.263   5.707   6.660 -0.8864  0.7901  1.2517
 8796SOL    HW227232   2.317   5.848   6.658  1.3564  0.0335  3.2494
 8797SOL     OW27233   1.168   7.423   3.390  0.0194  0.3133  0.4579
 8797SOL    HW127234   1.160   7.331   3.366  0.0533  0.5954 -0.7002
 8797SOL    HW227235   1.262   7.441   3.385  0.0868  0.2530  1.3374
 8798SOL     OW27236   6.029   3.594   4.335 -0.7868 -0.1887  0.7881
 8798SOL    HW127237   6.056   3.628   4.250  0.1062 -0.3335  1.0009
 8798SOL    HW227238   5.933   3.600   4.335 -0.7358  0.6617  0.1428
 8799SOL     OW27239   0.512   1.159   4.399  0.0172 -0.1530 -0.0355
 8799SOL    HW127240   0.522   1.245   4.440  1.6169 -0.9472  1.3731
 8799SOL    HW227241   0.427   1.163   4.355 -1.5421  1.0313  2.7987
 8800SOL     OW27242   7.432   6.727   6.729 -0.3401  0.5612 -0.3178
 8800SOL    HW127243   7.512   6.774   6.755 -0.5203  0.9144 -0.3925
 8800SOL    HW227244   7.395   6.781   6.659  0.6561 -0.8835 -2.0341
 8801SOL     OW27245   4.918   6.881   5.449  0.0376  0.4618 -0.2823
 8801SOL    HW127246   4.953   6.911   5.365  0.6468 -1.1354 -0.6194
 8801SOL    HW227247   4.890   6.791   5.433  0.0138  0.1910  1.1884
 8802SOL     OW27248   2.634   3.422   2.720 -0.1909  0.1518  0.3961
 8802SOL    HW127249   2.589   3.466   2.792 -0.6335  0.9628 -0.3561
 8802SOL    HW227250   2.566   3.410   2.654  0.6338  1.1181 -0.6447
 8803SOL     OW27251   6.335   0.544   6.661 -0.4580  0.0423  0.3757
 8803SOL    HW127252   6.328   0.453   6.690 -1.9565 -0.4858 -1.4515
 8803SOL    HW227253   6.248   0.580   6.677  0.0601  1.1159  0.8593
 8804SOL     OW27254   1.151   2.403   2.639  0.4577  0.1579 -0.4563
 8804SOL    HW127255   1.092   2.393   2.713  0.4932  0.3072 -0.4074
 8804SOL    HW227256   1.094   2.406   2.562  0.4298 -0.1215 -0.4454
 8805SOL     OW27257   5.744   4.264   2.392 -0.0914 -0.0375 -0.1577
 8805SOL    HW127258   5.687   4.295   2.463  0.7522  0.9572  0.1142
 8805SOL    HW227259   5.694   4.280   2.312 -0.1315  1.0025  0.0600
 8806SOL     OW27260   0.346   2.258   1.589 -0.0634  0.2997 -0.2853
 8806SOL    HW127261   0.393   2.270   1.672 -0.4781  2.5127 -0.3287
 8806SOL    HW227262   0.263   2.217   1.614  0.5768 -0.7797  0.1427
 8807SOL     OW27263   1.214   4.010   3.969 -0.0884  0.0544  0.5798
 8807SOL    HW127264   1.182   3.921   3.987  1.4296 -0.0977  2.8860
 8807SOL    HW227265   1.171   4.064   4.034 -2.1733  1.3956 -1.7289
 8808SOL     OW27266   0.255   1.576   5.998 -0.3187  0.1463  0.2930
 8808SOL    HW127267   0.160   1.587   5.993 -0.2664  0.3200 -0.3080
 8808SOL    HW227268   0.282   1.551   5.910  0.4121  1.8661 -0.0118
 8809SOL     OW27269   2.796   1.040   6.377  0.5051 -0.0512 -0.0229
 8809SOL    HW127270   2.808   1.074   6.289 -0.6110  0.4881  0.0176
 8809SOL    HW227271   2.718   1.085   6.410  0.7154 -0.4865  1.1167
 8810SOL     OW27272   6.282   0.832   2.160 -0.3303  0.4644 -0.9065
 8810SOL    HW127273   6.258   0.773   2.089  0.1778  0.4825 -1.1006
 8810SOL    HW227274   6.325   0.906   2.116  1.2176 -0.1484 -0.5010
 8811SOL     OW27275   5.298   3.056   0.350  0.1992  0.4984 -0.3806
 8811SOL    HW127276   5.203   3.047   0.363  0.2746 -0.5842 -0.4737
 8811SOL    HW227277   5.334   2.973   0.381  1.1683  1.0798  0.0888
 8812SOL     OW27278   1.801   2.909   1.117  0.1245  0.4346 -0.1533
 8812SOL    HW127279   1.743   2.916   1.192  0.3423  0.4616  0.0123
 8812SOL    HW227280   1.879   2.864   1.150  0.9002  1.8510  0.0433
 8813SOL     OW27281   7.121   0.905   5.784  0.2107 -0.4131  0.2940
 8813SOL    HW127282   7.062   0.955   5.839  0.0764 -0.3465  0.0898
 8813SOL    HW227283   7.209   0.926   5.816  0.0784 -1.4723  1.4189
 8814SOL     OW27284   5.403   6.231   5.751  0.0042 -0.4591  0.3206
 8814SOL    HW127285   5.431   6.150   5.794  0.0405  0.3858  1.9792
 8814SOL    HW227286   5.449   6.300   5.799 -1.5835  0.6727  0.2876
 8815SOL     OW27287   4.247   2.331   0.977 -0.1793 -0.0203 -0.0928
 8815SOL    HW127288   4.199   2.320   0.895  1.0420  0.2300 -0.8633
 8815SOL    HW227289   4.181   2.361   1.039 -0.7541  1.7173 -1.4708
 8816SOL     OW27290   1.438   7.193   6.986 -0.5918 -0.3928 -0.3146
 8816SOL    HW127291   1.447   7.099   6.971  0.3830 -0.2628 -0.5982
 8816SOL    HW227292   1.380   7.200   7.061  0.3326 -1.2679  0.5029
 8817SOL     OW27293   7.037   3.976   3.415  0.9719  0.1932 -0.7379
 8817SOL    HW127294   7.018   4.056   3.367  0.9425  0.4439 -0.3160
 8817SOL    HW227295   7.120   3.945   3.378  1.3966  0.8508 -0.3653
 8818SOL     OW27296   3.158   4.886   7.603  0.2432 -0.4049  0.1420
 8818SOL    HW127297   3.089   4.948   7.579  0.8063  0.5678  0.9554
 8818SOL    HW227298   3.122   4.801   7.581 -1.7574 -0.0433  1.7030
 8819SOL     OW27299   6.221   2.986   3.352  0.4386 -0.3906  0.5191
 8819SOL    HW127300   6.194   3.001   3.261  3.9155  3.3922 -0.1647
 8819SOL    HW227301   6.281   2.912   3.347 -0.3162 -0.9807 -0.0199
 8820SOL     OW27302   4.121   1.466   0.169  0.4775 -0.1305  0.2390
 8820SOL    HW127303   4.129   1.415   0.250  0.4297  1.7138  1.4786
 8820SOL    HW227304   4.027   1.465   0.150  0.0502  1.7858  1.9012
 8821SOL     OW27305   1.033   2.684   1.719  0.0342  0.0540 -0.1528
 8821SOL    HW127306   0.982   2.607   1.746 -0.2098  1.0129  2.4081
 8821SOL    HW227307   0.968   2.754   1.713  0.5816  0.5799 -0.0547
 8822SOL     OW27308   2.960   1.730   4.213  0.8080 -0.6373 -0.5031
 8822SOL    HW127309   2.959   1.688   4.127 -0.9655  0.9771 -1.3546
 8822SOL    HW227310   2.886   1.691   4.260  0.0296  0.4470 -0.7829
 8823SOL     OW27311   5.393   4.735   8.157  0.8920  0.5672  0.8982
 8823SOL    HW127312   5.323   4.797   8.134  0.5551 -0.4870 -1.0713
 8823SOL    HW227313   5.359   4.690   8.235 -1.4488 -1.0186 -0.8855
 8824SOL     OW27314   3.210   2.981   0.597  0.4822  0.1621  0.1062
 8824SOL    HW127315   3.191   2.937   0.514  1.0169 -0.8934  0.5276
 8824SOL    HW227316   3.133   2.963   0.652 -0.2416  1.5489 -0.4075
 8825SOL     OW27317   0.431   6.968   2.078 -0.0705 -0.0038  0.2807
 8825SOL    HW127318   0.493   6.990   2.008 -0.6278  0.2435 -0.1458
 8825SOL    HW227319   0.451   7.032   2.147 -0.9912  1.2258 -0.5453
 8826SOL     OW27320   2.603   0.727   3.066  0.6680 -0.0600 -0.0047
 8826SOL    HW127321   2.696   0.742   3.083  0.6243 -1.2032  1.3931
 8826SOL    HW227322   2.562   0.726   3.153 -0.6325  0.2673 -0.5833
 8827SOL     OW27323   0.336   2.484   8.116  0.1179  0.2650  0.1286
 8827SOL    HW127324   0.247   2.515   8.129  0.4677  1.1171  0.6253
 8827SOL    HW227325   0.375   2.488   8.204 -0.0593 -2.4677  0.4190
 8828SOL     OW27326   4.763   7.291   2.942  0.3274  0.1308 -0.8763
 8828SOL    HW127327   4.830   7.357   2.960 -0.1194  0.3210  0.1637
 8828SOL    HW227328   4.744   7.252   3.027  1.1561 -1.9224 -1.5747
 8829SOL     OW27329   4.938   8.046   4.715 -0.5556  0.0601 -0.1606
 8829SOL    HW127330   4.854   8.041   4.670 -1.1931  0.5609  0.9340
 8829SOL    HW227331   4.927   8.116   4.779  0.2169 -0.8094  0.9771
 8830SOL     OW27332   6.815   7.384   4.395 -0.0470 -0.3484  0.0517
 8830SOL    HW127333   6.746   7.358   4.333  0.1393 -0.4121 -0.1290
 8830SOL    HW227334   6.771   7.383   4.480 -0.3920  0.0666 -0.1158
 8831SOL     OW27335   6.214   1.164   4.308  0.0073  0.3986 -0.0903
 8831SOL    HW127336   6.167   1.082   4.291  1.2626 -0.5642  0.8959
 8831SOL    HW227337   6.188   1.188   4.397  1.7884 -0.4960  0.7282
 8832SOL     OW27338   7.479   3.033   5.153 -0.2152 -0.2694 -0.0170
 8832SOL    HW127339   7.509   3.095   5.087  1.4659  1.1147  1.9241
 8832SOL    HW227340   7.559   3.000   5.193 -1.1752 -1.3944  1.0566
 8833SOL     OW27341   0.871   5.269   1.094 -0.0038 -0.7063  0.3005
 8833SOL    HW127342   0.935   5.234   1.033  0.9122  1.7212 -0.2416
 8833SOL    HW227343   0.917   5.274   1.177 -0.0837 -0.6833  0.3433
 8834SOL     OW27344   6.219   3.440   4.104  0.0308  0.6455  0.4967
 8834SOL    HW127345   6.183   3.371   4.048  2.5054 -0.4409  0.0924
 8834SOL    HW227346   6.151   3.508   4.105 -1.9103 -1.1596 -0.2402
 8835SOL     OW27347   0.606   0.941   5.640 -0.2433 -0.5278 -0.1313
 8835SOL    HW127348   0.661   0.880   5.592 -0.3984 -1.2558  0.6082
 8835SOL    HW227349   0.555   0.887   5.701 -0.0067  0.3732  0.9102
 8836SOL     OW27350   3.763   6.432   3.087  0.3139 -0.2847  0.3957
 8836SOL    HW127351   3.761   6.353   3.032  1.2166  0.4279 -0.7193
 8836SOL    HW227352   3.783   6.503   3.025 -0.3494  0.8019  1.3977
 8837SOL     OW27353   7.991   3.248   2.903  0.4803  0.0730  0.1589
 8837SOL    HW127354   7.991   3.267   2.997 -3.4081 -0.6118  0.4776
 8837SOL    HW227355   8.023   3.158   2.897 -0.7960 -0.4877  1.1142
 8838SOL     OW27356   2.741   2.756   6.515  0.2587  0.0126  0.1640
 8838SOL    HW127357   2.663   2.756   6.459  1.0014  3.2032 -1.0930
 8838SOL    HW227358   2.805   2.703   6.466  0.2289  1.0557 -1.0779
 8839SOL     OW27359   7.768   6.412   0.781 -0.2247  0.3065 -0.1380
 8839SOL    HW127360   7.809   6.406   0.867  0.8792  2.3322 -0.4722
 8839SOL    HW227361   7.767   6.322   0.748  0.9155 -0.2465  1.2699
 8840SOL     OW27362   1.470   1.441   4.065  0.2800 -0.4718  0.2821
 8840SOL    HW127363   1.460   1.509   4.132  1.1635  1.0648 -1.0778
 8840SOL    HW227364   1.388   1.392   4.068 -1.0149  1.5791  0.3463
 8841SOL     OW27365   0.520   3.991   0.134  0.2311  0.5682 -0.3912
 8841SOL    HW127366   0.543   4.012   0.044 -0.1646 -1.6286 -1.0803
 8841SOL    HW227367   0.604   3.980   0.179  0.4919 -0.4023 -1.0713
 8842SOL     OW27368   3.590   1.285   2.360  0.2344  0.2967  0.3267
 8842SOL    HW127369   3.581   1.191   2.344 -1.0577  0.4403  0.0888
 8842SOL    HW227370   3.610   1.292   2.453  0.8426 -0.2311  0.2399
 8843SOL     OW27371   6.667   6.713   0.129  0.1246 -0.2360  0.3266
 8843SOL    HW127372   6.628   6.738   0.045  0.2145 -1.4908 -0.1090
 8843SOL    HW227373   6.739   6.774   0.140 -1.9445  2.2148  1.2007
 8844SOL     OW27374   3.330   1.913   3.472  0.0678  1.2115 -0.1504
 8844SOL    HW127375   3.237   1.928   3.487 -0.1869 -1.1506  1.1145
 8844SOL    HW227376   3.372   1.993   3.503 -1.5280  2.4030 -0.9308
 8845SOL     OW27377   4.559   0.584   0.004  0.1746  0.4604  0.0992
 8845SOL    HW127378   4.505   0.601  -0.072 -0.1537 -0.3901  0.1291
 8845SOL    HW227379   4.512   0.625   0.077  0.0747  0.5734 -0.0292
 8846SOL     OW27380   0.175   2.530   6.576  0.0355  0.2460  0.1750
 8846SOL    HW127381   0.130   2.545   6.659 -1.2152 -3.0670  0.2726
 8846SOL    HW227382   0.144   2.443   6.548  2.2061  0.2249 -2.5900
 8847SOL     OW27383   7.194   3.875   0.994 -0.6750 -0.4453  0.0704
 8847SOL    HW127384   7.277   3.874   0.946 -1.8535  0.2612 -2.1321
 8847SOL    HW227385   7.130   3.844   0.931 -2.4149  1.0911  0.9978
 8848SOL     OW27386   7.129   5.688   0.716  0.6884 -0.0982  0.5973
 8848SOL    HW127387   7.087   5.772   0.694 -0.3848 -0.5885  0.7405
 8848SOL    HW227388   7.202   5.713   0.772  2.1722  1.0057 -1.6377
 8849SOL     OW27389   6.638   3.667   7.199  0.5021 -0.3654 -0.3069
 8849SOL    HW127390   6.643   3.641   7.291  0.3702  0.0303 -0.1819
 8849SOL    HW227391   6.726   3.654   7.165  0.6978  0.0239  0.0297
 8850SOL     OW27392   4.013   2.411   7.794 -0.9559  0.2489  0.2098
 8850SOL    HW127393   3.967   2.423   7.710 -1.0450  1.7987  0.4437
 8850SOL    HW227394   3.950   2.440   7.860  0.4856  3.0933  0.4972
 8851SOL     OW27395   6.604   7.363   4.197 -0.5030  0.2630 -0.4275
 8851SOL    HW127396   6.596   7.267   4.196  0.4503  0.1756 -1.6243
 8851SOL    HW227397   6.514   7.394   4.199 -0.9130 -0.6732 -2.1560
 8852SOL     OW27398   6.111   7.726   5.061 -0.0656 -0.1142 -0.0882
 8852SOL    HW127399   6.017   7.744   5.053 -0.3092 -1.0981  0.4285
 8852SOL    HW227400   6.136   7.763   5.145 -0.1429 -0.4746  0.0926
 8853SOL     OW27401   2.285   4.478   2.830  0.2371  0.3701  0.2094
 8853SOL    HW127402   2.192   4.481   2.806  0.6296  0.5400 -1.4290
 8853SOL    HW227403   2.306   4.569   2.853 -0.3224  0.0745  2.0320
 8854SOL     OW27404   4.066   3.611   6.890  0.0616  0.4083 -0.0424
 8854SOL    HW127405   4.097   3.702   6.887  1.2897  0.0040 -0.2617
 8854SOL    HW227406   4.146   3.559   6.882 -0.7415 -0.6943 -1.2280
 8855SOL     OW27407   0.574   5.897   4.876 -0.1280 -0.0890  0.0755
 8855SOL    HW127408   0.545   5.943   4.955 -0.6040  1.6076 -1.0381
 8855SOL    HW227409   0.520   5.933   4.806  2.2594  0.6219 -1.5064
 8856SOL     OW27410   7.701   8.041   5.304  0.0614 -0.3397 -0.1539
 8856SOL    HW127411   7.679   8.127   5.341 -2.8781 -0.9970 -0.1279
 8856SOL    HW227412   7.737   8.061   5.218 -0.2042  0.9607  0.0118
 8857SOL     OW27413   4.318   3.587   2.509  0.5038 -0.5237 -0.1542
 8857SOL    HW127414   4.263   3.625   2.440 -1.4446 -1.3628  0.8692
 8857SOL    HW227415   4.256   3.552   2.573  2.2395 -0.1677  1.8324
 8858SOL     OW27416   7.511   3.104   5.822  0.3178  0.3042  0.1847
 8858SOL    HW127417   7.437   3.044   5.833  0.5286  0.0507  0.2391
 8858SOL    HW227418   7.520   3.148   5.906 -0.9016  1.6529 -0.3626
 8859SOL     OW27419   7.050   7.315   6.705 -0.3167 -0.0233  0.0824
 8859SOL    HW127420   7.052   7.345   6.615 -0.9996 -0.2611 -0.0196
 8859SOL    HW227421   7.079   7.391   6.756  0.5849 -0.0549 -0.3658
 8860SOL     OW27422   7.988   2.478   4.891 -0.7071 -0.1024  0.0634
 8860SOL    HW127423   8.066   2.534   4.885 -1.1121  0.3902 -0.6600
 8860SOL    HW227424   7.957   2.490   4.981 -0.4066  0.3201  0.1124
 8861SOL     OW27425   7.554   2.645   4.529  0.0637 -0.0922  0.3503
 8861SOL    HW127426   7.610   2.628   4.453 -1.2937 -1.1010 -0.4857
 8861SOL    HW227427   7.495   2.714   4.500 -0.1360 -0.1293  0.6646
 8862SOL     OW27428   6.452   3.176   7.730 -0.1865 -0.4371 -0.0197
 8862SOL    HW127429   6.418   3.237   7.665  2.0329 -0.6935 -1.5420
 8862SOL    HW227430   6.510   3.228   7.785 -0.4280 -0.6357  0.4299
 8863SOL     OW27431   6.488   1.429   1.270  0.1845 -0.2197  0.1128
 8863SOL    HW127432   6.569   1.394   1.306  0.5704  1.5191  1.0170
 8863SOL    HW227433   6.499   1.421   1.175  0.6071 -1.6889  0.2616
 8864SOL     OW27434   2.400   6.866   1.146  0.4404 -0.1056  0.0263
 8864SOL    HW127435   2.310   6.833   1.142 -0.3961  1.8431  1.0464
 8864SOL    HW227436   2.400   6.941   1.087  1.4404 -0.1599 -0.0533
 8865SOL     OW27437   4.044   3.056   5.739  0.6546  0.4635  0.2923
 8865SOL    HW127438   4.072   2.973   5.778 -0.1840  0.2614  0.5039
 8865SOL    HW227439   3.983   3.029   5.670  0.7654  0.8885  0.0302
 8866SOL     OW27440   7.489   7.330   6.130 -0.4722  0.3695  0.2088
 8866SOL    HW127441   7.467   7.365   6.044  0.7579  1.1321  0.1791
 8866SOL    HW227442   7.582   7.350   6.141  0.3871 -3.0392  0.1410
 8867SOL     OW27443   8.153   5.270   1.774 -0.2047  0.5341 -0.5519
 8867SOL    HW127444   8.208   5.332   1.726 -1.0243  0.6425 -1.3876
 8867SOL    HW227445   8.117   5.212   1.706  2.0492 -2.1492  0.3685
 8868SOL     OW27446   2.382   7.942   2.373  0.1792  0.3451  0.1680
 8868SOL    HW127447   2.404   7.871   2.314 -2.0617  2.0618 -3.0317
 8868SOL    HW227448   2.453   8.006   2.361 -0.0922  0.5380 -0.4406
 8869SOL     OW27449   4.321   2.753   3.894  0.2835 -0.1024  0.2048
 8869SOL    HW127450   4.389   2.723   3.954 -0.1502  2.2168  1.9923
 8869SOL    HW227451   4.240   2.715   3.928  0.3065 -0.6385 -0.3124
 8870SOL     OW27452   0.493   8.166   3.087  0.0776  0.2932  0.2691
 8870SOL    HW127453   0.410   8.165   3.133 -0.8796 -0.6095 -1.3993
 8870SOL    HW227454   0.558   8.147   3.155 -1.0851  0.5994  1.5187
 8871SOL     OW27455   6.168   7.152   3.352  0.0700  0.0510 -0.1209
 8871SOL    HW127456   6.216   7.230   3.379 -0.3918 -0.2259  1.6076
 8871SOL    HW227457   6.236   7.090   3.325  0.6351  0.0826  1.1611
 8872SOL     OW27458   2.387   0.077   1.392  0.1892  0.1885  0.0573
 8872SOL    HW127459   2.440   0.003   1.361 -2.4109 -1.3374 -1.0076
 8872SOL    HW227460   2.422   0.153   1.345  0.8008 -0.9174 -1.3454
 8873SOL     OW27461   0.440   3.001   4.874  0.7624 -0.1901  0.4113
 8873SOL    HW127462   0.505   2.932   4.890 -0.5426 -1.2738  1.4003
 8873SOL    HW227463   0.364   2.954   4.840  0.1351  0.8914  0.2803
 8874SOL     OW27464   7.965   4.201   4.683  0.4340 -0.1781  0.3493
 8874SOL    HW127465   8.007   4.205   4.597 -0.7008 -2.2152 -0.3632
 8874SOL    HW227466   7.871   4.195   4.663  0.0211  0.8809  1.8005
 8875SOL     OW27467   6.842   1.249   3.105  0.3036  0.7324  0.3840
 8875SOL    HW127468   6.853   1.222   3.013 -0.2040  0.3468  0.4266
 8875SOL    HW227469   6.748   1.241   3.120  0.4870 -0.0135  1.1816
 8876SOL     OW27470   2.846   5.633   5.373 -0.6123 -0.9384 -0.6380
 8876SOL    HW127471   2.776   5.672   5.320  0.1060 -0.5329 -1.3264
 8876SOL    HW227472   2.883   5.707   5.422 -0.3830 -1.0649 -0.6180
 8877SOL     OW27473   1.661   0.345   5.228  0.1969  0.2493  0.5776
 8877SOL    HW127474   1.592   0.279   5.223  0.2905  0.2276 -1.5195
 8877SOL    HW227475   1.625   0.414   5.284 -1.4564  0.1054 -0.2283
 8878SOL     OW27476   5.303   0.917   4.335  0.7664 -0.0479  0.5156
 8878SOL    HW127477   5.327   0.973   4.408 -0.0906  0.9945  0.0252
 8878SOL    HW227478   5.268   0.837   4.376 -0.2853  0.7702  1.2600
 8879SOL     OW27479   8.110   4.253   5.371  0.0012 -0.0510  0.2862
 8879SOL    HW127480   8.130   4.175   5.423 -0.7420 -0.2847  0.2236
 8879SOL    HW227481   8.140   4.232   5.283  0.2180 -0.0879  0.3683
 8880SOL     OW27482   4.422   5.591   0.958  0.0731  0.6790  0.1473
 8880SOL    HW127483   4.411   5.510   1.008 -3.0614  0.7423 -0.2366
 8880SOL    HW227484   4.379   5.658   1.011 -0.4246  1.3923 -1.1047
 8881SOL     OW27485   0.936   5.929   1.242  0.9213 -0.2456 -0.2917
 8881SOL    HW127486   0.843   5.930   1.261  0.6480  0.2528 -1.5200
 8881SOL    HW227487   0.967   6.016   1.267  0.3081  0.8783 -3.0205
 8882SOL     OW27488   0.771   4.815   5.907  0.5025  0.1689 -0.2163
 8882SOL    HW127489   0.770   4.813   6.003 -0.8901  0.0086 -0.2092
 8882SOL    HW227490   0.806   4.901   5.885 -1.7671  1.3437  0.4980
 8883SOL     OW27491   7.735   2.289   1.761  0.0266  0.1764  0.2671
 8883SOL    HW127492   7.669   2.263   1.698 -1.1235 -0.4458  1.6727
 8883SOL    HW227493   7.782   2.209   1.782  1.8348  0.7490 -1.3190
 8884SOL     OW27494   8.013   2.416   1.195  0.3596  0.0806 -0.5107
 8884SOL    HW127495   7.984   2.404   1.286 -0.6321 -0.5288 -0.8938
 8884SOL    HW227496   8.092   2.470   1.202 -0.6662  1.5082  0.6111
 8885SOL     OW27497   2.349   2.486   0.855  0.4266 -0.1833  0.0594
 8885SOL    HW127498   2.260   2.512   0.833  0.4700  0.3058  0.4433
 8885SOL    HW227499   2.384   2.559   0.906  1.1044 -0.2982 -0.2262
 8886SOL     OW27500   6.474   0.447   3.158  0.4293  0.5452 -0.1494
 8886SOL    HW127501   6.415   0.372   3.168  2.3799 -1.0560  0.1313
 8886SOL    HW227502   6.471   0.492   3.242 -0.5499  0.6354 -0.2210
 8887SOL     OW27503   3.851   6.387   1.199 -0.4813 -0.2821  0.2580
 8887SOL    HW127504   3.828   6.378   1.291  0.1396  0.4929  0.4959
 8887SOL    HW227505   3.946   6.372   1.196 -0.5749 -0.8075 -0.3296
 8888SOL     OW27506   6.890   4.974   3.169 -0.7599 -0.3278 -0.4387
 8888SOL    HW127507   6.905   4.912   3.098 -0.4258 -0.3837 -0.3218
 8888SOL    HW227508   6.962   4.959   3.230  1.0966  2.1419 -1.8072
 8889SOL     OW27509   1.450   2.971   5.201  0.0603 -0.1601 -0.4617
 8889SOL    HW127510   1.491   2.911   5.139  1.4483 -0.6737  0.9016
 8889SOL    HW227511   1.492   2.952   5.285 -3.0135 -0.7981  1.1063
 8890SOL     OW27512   4.576   5.886   0.403 -0.7246 -0.3796  0.1444
 8890SOL    HW127513   4.576   5.824   0.330 -1.2486  0.3375 -0.4850
 8890SOL    HW227514   4.496   5.936   0.392 -0.3597  0.3474  0.6981
 8891SOL     OW27515   4.265   6.313   5.888 -0.2872 -0.0920 -0.5798
 8891SOL    HW127516   4.351   6.291   5.851  0.0298 -0.3967  0.3231
 8891SOL    HW227517   4.243   6.238   5.943  0.1344  1.1675  1.3941
 8892SOL     OW27518   7.903   4.487   0.279 -0.4196  0.4148  0.2338
 8892SOL    HW127519   7.895   4.443   0.363  0.5181  1.0536  0.6710
 8892SOL    HW227520   7.966   4.557   0.294  2.8721 -1.8023 -1.9001
 8893SOL     OW27521   8.080   3.275   1.631 -0.9369 -0.0881  0.1847
 8893SOL    HW127522   8.122   3.216   1.693 -1.2599 -0.8160 -0.2735
 8893SOL    HW227523   8.073   3.224   1.550 -1.8333  0.3341 -0.0208
 8894SOL     OW27524   6.062   7.488   4.495 -0.1712  0.0565  0.2250
 8894SOL    HW127525   6.150   7.524   4.506 -0.6297  2.4876 -2.8759
 8894SOL    HW227526   6.012   7.523   4.569  0.5110  2.0785 -0.2349
 8895SOL     OW27527   5.046   5.623   7.067 -0.3356  0.1464 -0.0347
 8895SOL    HW127528   5.073   5.549   7.121 -1.0965  1.0100  1.5799
 8895SOL    HW227529   4.992   5.677   7.124 -1.5313  0.9020 -1.7755
 8896SOL     OW27530   4.422   0.373   1.216  0.6318 -0.3283  0.3003
 8896SOL    HW127531   4.427   0.454   1.266  0.7221 -0.2295  0.1304
 8896SOL    HW227532   4.333   0.340   1.233  1.0124 -0.8421  1.3785
 8897SOL     OW27533   2.514   7.293   1.490 -0.3932  0.0268 -0.3111
 8897SOL    HW127534   2.451   7.270   1.421  0.1363  1.1746 -1.2249
 8897SOL    HW227535   2.471   7.363   1.540 -0.2734  0.0786 -0.2798
 8898SOL     OW27536   3.680   1.131   7.943 -0.3056 -0.4568 -0.4035
 8898SOL    HW127537   3.617   1.147   8.013 -0.4284  0.5666 -0.7221
 8898SOL    HW227538   3.678   1.037   7.929 -1.0301 -0.5497  0.2719
 8899SOL     OW27539   3.160   4.298   5.601 -0.1198 -0.6997 -0.2894
 8899SOL    HW127540   3.237   4.341   5.565  0.4412 -0.9722  0.5347
 8899SOL    HW227541   3.093   4.306   5.533 -0.2772  2.0528  0.0686
 8900SOL     OW27542   4.166   5.529   1.986  0.5516  0.4195  0.3776
 8900SOL    HW127543   4.246   5.477   1.984 -0.3002 -0.9342  0.3545
 8900SOL    HW227544   4.096   5.467   1.965 -0.6056  1.3748  1.2705
 8901SOL     OW27545   1.458   6.844   5.716 -0.3259  0.3793  0.3601
 8901SOL    HW127546   1.466   6.918   5.775 -0.2049  0.5450  0.1394
 8901SOL    HW227547   1.499   6.874   5.634  0.6552 -0.2803  0.5849
 8902SOL     OW27548   3.443   4.251   2.494 -0.2839 -0.0317  0.7573
 8902SOL    HW127549   3.446   4.189   2.422 -0.7988  1.0539 -0.2280
 8902SOL    HW227550   3.409   4.332   2.455  1.5774  1.2765  1.6997
 8903SOL     OW27551   0.667   2.835   4.900  0.5022  0.1868 -0.9682
 8903SOL    HW127552   0.755   2.867   4.882  0.6427  0.0307 -0.5768
 8903SOL    HW227553   0.681   2.751   4.944  0.1554  0.0801 -1.0633
 8904SOL     OW27554   4.744   1.556   3.923  0.4070 -0.5092  0.2133
 8904SOL    HW127555   4.663   1.547   3.874  0.9721 -0.8134 -0.6968
 8904SOL    HW227556   4.799   1.613   3.869  1.1134 -1.0053  0.3861
 8905SOL     OW27557   7.572   3.102   6.793  0.5221  0.6346  0.2451
 8905SOL    HW127558   7.526   3.022   6.819  0.7426  0.4972  0.2203
 8905SOL    HW227559   7.526   3.132   6.714  1.0292  0.0005 -0.3078
 8906SOL     OW27560   5.592   3.055   7.873  0.5265 -0.1786  0.6889
 8906SOL    HW127561   5.647   3.005   7.812  0.3844 -0.3168  0.6760
 8906SOL    HW227562   5.527   3.098   7.817  1.0157  0.5057  0.6299
 8907SOL     OW27563   2.474   1.326   5.295  0.1861 -0.4241 -0.2573
 8907SOL    HW127564   2.558   1.291   5.324  0.7460  0.6927 -0.4691
 8907SOL    HW227565   2.426   1.346   5.375  0.2030 -0.8755 -0.1347
 8908SOL     OW27566   5.479   6.269   2.400 -0.1742 -0.0592  0.0821
 8908SOL    HW127567   5.442   6.215   2.469  1.7150  1.5987  2.5509
 8908SOL    HW227568   5.428   6.350   2.403 -0.3540 -0.1239 -0.8071
 8909SOL     OW27569   5.569   3.601   6.050  0.1077  0.2059  0.5384
 8909SOL    HW127570   5.626   3.526   6.034 -0.4263 -0.2435  0.6902
 8909SOL    HW227571   5.514   3.573   6.124 -0.4221  0.5614  0.2811
 8910SOL     OW27572   5.870   3.439   4.050  0.0678  0.6562 -0.5979
 8910SOL    HW127573   5.813   3.461   4.124  0.5501  0.9042 -0.2959
 8910SOL    HW227574   5.810   3.430   3.975 -0.2428  2.1776 -0.5609
 8911SOL     OW27575   5.275   3.594   3.362 -0.1822  0.5085 -0.4444
 8911SOL    HW127576   5.218   3.671   3.369 -0.5359  0.1634  0.8374
 8911SOL    HW227577   5.285   3.564   3.453  3.7940  1.7718 -0.2882
 8912SOL     OW27578   6.829   4.309   0.792  0.4585 -0.6199  0.1998
 8912SOL    HW127579   6.745   4.263   0.795  0.7565 -1.1579  0.4059
 8912SOL    HW227580   6.832   4.347   0.704 -0.7864  0.9149  0.7863
 8913SOL     OW27581   5.169   1.029   5.719 -0.3669  0.1825  0.3820
 8913SOL    HW127582   5.219   1.055   5.797  0.9389 -2.0364  0.3870
 8913SOL    HW227583   5.080   1.015   5.751 -0.6952  2.6614  0.7149
 8914SOL     OW27584   4.776   2.152   5.283 -0.0491 -0.6374  0.1645
 8914SOL    HW127585   4.769   2.247   5.271 -0.2905 -0.5474  0.9533
 8914SOL    HW227586   4.824   2.121   5.206  1.0218  0.2716  0.4421
 8915SOL     OW27587   4.214   2.879   3.660 -0.1075  0.7403  0.2349
 8915SOL    HW127588   4.270   2.889   3.584 -0.7672  1.6315 -0.1472
 8915SOL    HW227589   4.237   2.793   3.695 -0.1786  0.0690 -1.2791
 8916SOL     OW27590   4.037   7.315   3.157  0.5578  0.0589  0.7652
 8916SOL    HW127591   4.027   7.325   3.252  1.0127  1.9878  0.6349
 8916SOL    HW227592   4.119   7.359   3.136  1.4971 -2.0694 -0.2971
 8917SOL     OW27593   5.660   0.776   8.064  0.1285  0.6469  0.4923
 8917SOL    HW127594   5.755   0.773   8.065  0.1671  1.2831 -0.0518
 8917SOL    HW227595   5.632   0.689   8.091  0.8696  0.2415 -0.0144
 8918SOL     OW27596   1.431   5.609   6.611 -0.1628  0.1265  0.5523
 8918SOL    HW127597   1.482   5.550   6.555 -0.7074 -1.1118  1.3262
 8918SOL    HW227598   1.341   5.597   6.583 -0.1760  1.5367 -0.1077
 8919SOL     OW27599   5.779   3.408   0.280  0.7471 -0.4666  0.1179
 8919SOL    HW127600   5.733   3.327   0.304  1.3739 -0.6674  0.6756
 8919SOL    HW227601   5.766   3.415   0.186 -1.5945  0.2303  0.4336
 8920SOL     OW27602   7.185   2.701   5.968  0.8888 -0.3883 -0.1136
 8920SOL    HW127603   7.231   2.622   5.996  2.7021  0.9192  0.7223
 8920SOL    HW227604   7.243   2.743   5.905  0.9470  1.3395  1.0167
 8921SOL     OW27605   1.982   1.337   5.424 -0.0560 -0.6966  0.0992
 8921SOL    HW127606   2.022   1.363   5.508 -0.8052 -3.3209  1.3651
 8921SOL    HW227607   1.919   1.407   5.406  1.8842  1.2512  0.3277
 8922SOL     OW27608   0.738   3.676   1.801  0.5632 -0.5504 -0.7835
 8922SOL    HW127609   0.669   3.741   1.813  0.2680 -0.3764 -2.9772
 8922SOL    HW227610   0.813   3.725   1.768  0.8676 -1.1076 -0.9448
 8923SOL     OW27611   1.866   3.522   2.386  0.0389 -0.5496 -0.0780
 8923SOL    HW127612   1.814   3.506   2.307 -1.5512 -0.9331  1.0059
 8923SOL    HW227613   1.842   3.611   2.412 -0.9650 -1.1160  1.0369
 8924SOL     OW27614   0.368   1.033   1.601 -0.3645 -0.0850  0.4182
 8924SOL    HW127615   0.307   1.090   1.554 -1.2523 -2.4772 -1.5322
 8924SOL    HW227616   0.453   1.053   1.562 -0.1379  1.8246  1.7420
 8925SOL     OW27617   6.418   2.503   2.984 -0.6597  0.6713 -0.0076
 8925SOL    HW127618   6.363   2.581   2.985  0.6821  1.6459 -0.1857
 8925SOL    HW227619   6.430   2.483   2.891  0.5423  1.4067 -0.0346
 8926SOL     OW27620   6.331   5.226   3.835  0.1412  0.4875  0.4975
 8926SOL    HW127621   6.279   5.185   3.905  0.7359  0.6941  1.0700
 8926SOL    HW227622   6.416   5.243   3.875  0.4186  0.8184 -0.2154
 8927SOL     OW27623   6.941   0.736   5.231  0.8308  0.1447 -0.6456
 8927SOL    HW127624   6.864   0.690   5.264  0.8262  0.0479 -0.7901
 8927SOL    HW227625   6.940   0.719   5.137  0.4486  0.9963 -0.8089
 8928SOL     OW27626   7.134   7.656   5.086  0.2924  0.1471  0.0925
 8928SOL    HW127627   7.140   7.751   5.078 -1.3805  0.5144  2.2708
 8928SOL    HW227628   7.163   7.637   5.176 -0.8493 -1.1964  0.2225
 8929SOL     OW27629   5.698   0.484   2.433 -0.0245 -0.3228  0.2047
 8929SOL    HW127630   5.766   0.418   2.448  0.0225 -0.1004  0.9821
 8929SOL    HW227631   5.645   0.448   2.361  2.1695  0.4558 -1.9572
 8930SOL     OW27632   1.231   3.609   6.028 -0.2734 -0.4824 -0.1760
 8930SOL    HW127633   1.285   3.647   5.959 -2.1190  0.8056 -0.9851
 8930SOL    HW227634   1.190   3.685   6.071  0.2215 -1.2980  1.8464
 8931SOL     OW27635   0.517   3.651   5.564  0.2915  0.6515  0.1144
 8931SOL    HW127636   0.451   3.609   5.508 -0.4641  1.9539 -0.0157
 8931SOL    HW227637   0.519   3.596   5.643  2.8054 -2.4127 -1.7988
 8932SOL     OW27638   5.370   2.225   2.688 -0.3565 -0.0189 -0.2300
 8932SOL    HW127639   5.465   2.221   2.684 -0.3022 -0.2796  1.1200
 8932SOL    HW227640   5.340   2.141   2.653 -0.0055 -0.8595  1.3846
 8933SOL     OW27641   2.977   7.801   7.174 -0.0344  0.2883  0.1104
 8933SOL    HW127642   2.930   7.800   7.258 -1.0413  1.2017 -0.4128
 8933SOL    HW227643   2.943   7.726   7.126 -0.7236  0.7454 -0.1302
 8934SOL     OW27644   2.956   1.932   6.958  0.0100 -0.1098  0.6649
 8934SOL    HW127645   2.913   1.979   6.888 -1.2968  0.8817  2.0720
 8934SOL    HW227646   2.931   1.840   6.945 -0.8743  0.1786  0.3146
 8935SOL     OW27647   6.295   3.225   1.325  0.5612  0.2235 -0.0123
 8935SOL    HW127648   6.226   3.173   1.366 -0.5168  0.1029 -1.8656
 8935SOL    HW227649   6.278   3.315   1.354 -0.1675  0.1399 -0.1593
 8936SOL     OW27650   0.873   1.826   4.578 -0.3508 -0.2256 -0.0646
 8936SOL    HW127651   0.965   1.852   4.581 -0.4413  0.3197 -1.4361
 8936SOL    HW227652   0.874   1.731   4.577  0.2443 -0.2204 -0.9394
 8937SOL     OW27653   2.456   2.059   4.982  0.0620 -0.2262  0.1553
 8937SOL    HW127654   2.491   2.050   5.071  0.3636 -3.3233 -0.1744
 8937SOL    HW227655   2.376   2.112   4.994  0.4397 -0.0089  2.1499
 8938SOL     OW27656   6.020   5.170   4.764  0.3138  0.8279  0.1709
 8938SOL    HW127657   5.967   5.177   4.684 -0.5394 -0.0046  0.6538
 8938SOL    HW227658   5.987   5.093   4.808  1.7974  0.4031  0.5997
 8939SOL     OW27659   3.547   5.021   0.399  0.0073 -0.2278  0.6132
 8939SOL    HW127660   3.562   4.984   0.313  0.6789  0.5480  0.3815
 8939SOL    HW227661   3.598   5.102   0.400 -0.2853 -0.0339  1.6032
 8940SOL     OW27662   0.141   0.988   3.829 -0.1531 -0.4430  0.1639
 8940SOL    HW127663   0.201   0.946   3.767  1.3970 -1.3733  2.1418
 8940SOL    HW227664   0.194   1.056   3.871 -1.0811  0.0134  0.6278
 8941SOL     OW27665   6.192   0.225   7.341  0.5946 -0.0527 -0.4652
 8941SOL    HW127666   6.232   0.306   7.371 -0.7893  0.8169 -0.8941
 8941SOL    HW227667   6.194   0.232   7.245 -0.9869  0.2321 -0.4938
 8942SOL     OW27668   1.415   4.064   0.089  0.1215 -0.1222 -0.2832
 8942SOL    HW127669   1.321   4.047   0.088 -0.2487  1.7700 -0.6396
 8942SOL    HW227670   1.437   4.081  -0.003  0.5692  0.5747 -0.0564
 8943SOL     OW27671   5.605   7.799   2.996  0.8772 -0.1005 -0.0654
 8943SOL    HW127672   5.624   7.726   3.055 -2.7050 -2.1653 -1.1097
 8943SOL    HW227673   5.571   7.868   3.052  0.5713 -0.7801  0.5937
 8944SOL     OW27674   1.879   5.185   0.584 -0.7571  0.7008 -0.3053
 8944SOL    HW127675   1.908   5.273   0.607 -0.4096  0.0449  1.9886
 8944SOL    HW227676   1.881   5.137   0.666 -0.4723 -1.6048 -1.5880
 8945SOL     OW27677   7.510   1.942   8.000 -0.0530  0.4872  0.3015
 8945SOL    HW127678   7.433   1.992   8.027 -0.0031  1.4723 -1.2794
 8945SOL    HW227679   7.480   1.887   7.928  0.3198 -0.4849  0.8603
 8946SOL     OW27680   3.035   2.351   7.475  0.0130 -0.2692  0.2282
 8946SOL    HW127681   3.015   2.372   7.384 -1.2481 -2.6433 -0.1040
 8946SOL    HW227682   2.968   2.288   7.501  0.5796  0.0475  2.6949
 8947SOL     OW27683   3.337   3.762   3.167  0.7075 -0.3749  0.6839
 8947SOL    HW127684   3.334   3.666   3.156 -0.0302 -0.3595  0.7003
 8947SOL    HW227685   3.278   3.795   3.098  3.9213  0.3110 -1.9997
 8948SOL     OW27686   0.928   2.009   0.788  0.6435  0.6675  0.5065
 8948SOL    HW127687   0.906   2.052   0.871  3.8209  2.1655  0.7111
 8948SOL    HW227688   0.963   2.079   0.733 -1.0704 -0.3552 -2.0490
 8949SOL     OW27689   6.337   1.536   2.562 -0.8206 -0.2891  0.0953
 8949SOL    HW127690   6.300   1.505   2.479 -1.1911  1.9548 -0.6455
 8949SOL    HW227691   6.269   1.594   2.598 -0.4423 -0.8074  1.7096
 8950SOL     OW27692   8.081   5.878   1.870  0.0223 -0.5530 -0.8880
 8950SOL    HW127693   8.130   5.956   1.845 -1.0462  1.1221  1.8425
 8950SOL    HW227694   8.017   5.866   1.799 -1.0898  2.2671 -0.4741
 8951SOL     OW27695   2.597   0.882   7.669 -0.0277 -0.4025  0.2902
 8951SOL    HW127696   2.589   0.846   7.581  0.3798  1.7130 -0.6651
 8951SOL    HW227697   2.515   0.929   7.683  0.7963  1.1417  0.1129
 8952SOL     OW27698   4.337   4.874   7.071  0.0517 -0.2360  0.0322
 8952SOL    HW127699   4.308   4.951   7.120  0.5363  0.0200 -0.0754
 8952SOL    HW227700   4.429   4.893   7.049  0.6418 -1.4689  1.2697
 8953SOL     OW27701   7.782   0.372   6.221  0.0524  0.0571  0.0515
 8953SOL    HW127702   7.829   0.432   6.280  2.4258 -1.4807 -0.1346
 8953SOL    HW227703   7.707   0.422   6.191  1.2288  2.4827  0.8805
 8954SOL     OW27704   4.360   6.976   1.085  0.1522  0.7381 -0.2321
 8954SOL    HW127705   4.405   7.059   1.071  2.0269  0.3008  2.4397
 8954SOL    HW227706   4.428   6.910   1.077 -0.9041 -0.3919 -0.3026
 8955SOL     OW27707   7.597   4.499   1.235 -0.1975 -0.0222 -0.0352
 8955SOL    HW127708   7.589   4.534   1.324 -0.6521  1.1303 -0.5062
 8955SOL    HW227709   7.597   4.404   1.247 -2.3808  0.0419  1.0536
 8956SOL     OW27710   6.185   3.481   8.134  0.0139 -0.0568 -0.5117
 8956SOL    HW127711   6.193   3.480   8.229 -2.9862 -1.1123 -0.1787
 8956SOL    HW227712   6.276   3.483   8.103  1.0689  1.1146  2.3197
 8957SOL     OW27713   6.566   7.862   2.701 -0.2030  0.1626  0.1586
 8957SOL    HW127714   6.518   7.787   2.734 -0.4173  0.7020  1.1071
 8957SOL    HW227715   6.658   7.835   2.703 -0.2346  0.0957  0.9763
 8958SOL     OW27716   8.146   6.415   3.700 -0.0209 -0.3075  0.3074
 8958SOL    HW127717   8.128   6.329   3.738  1.2951 -0.2317  1.1594
 8958SOL    HW227718   8.069   6.434   3.645  0.2438 -2.5899 -0.9481
 8959SOL     OW27719   7.449   1.937   5.722  0.0005 -0.0282  0.8983
 8959SOL    HW127720   7.542   1.955   5.710 -0.4668  1.8774 -0.3415
 8959SOL    HW227721   7.410   1.954   5.636 -1.6617  0.4400  1.7040
 8960SOL     OW27722   2.725   0.038   1.005  0.4256  0.2284  0.6193
 8960SOL    HW127723   2.669   0.104   1.048  1.0326  1.2151 -0.0648
 8960SOL    HW227724   2.671  -0.041   1.002 -1.1101  1.2548 -0.3862
 8961SOL     OW27725   2.883   1.104   3.206 -0.2598  0.2327 -0.7953
 8961SOL    HW127726   2.874   1.038   3.275  0.1869  0.6596 -0.3253
 8961SOL    HW227727   2.959   1.076   3.155  0.3691  0.7550 -0.1678
 8962SOL     OW27728   6.348   6.074   1.372 -0.3390 -0.0730  0.3140
 8962SOL    HW127729   6.339   6.141   1.303  0.5132  0.8776  1.1040
 8962SOL    HW227730   6.286   6.006   1.346  0.0701  0.1771 -1.4863
 8963SOL     OW27731   1.448   3.836   1.050  0.3997 -0.4402 -0.4945
 8963SOL    HW127732   1.482   3.902   0.989 -1.4129  1.6857  0.6757
 8963SOL    HW227733   1.517   3.828   1.116  0.2185  1.1271 -0.0767
 8964SOL     OW27734   2.948   7.176   8.073  0.5183  0.8495 -0.0914
 8964SOL    HW127735   2.874   7.176   8.133  0.5789 -0.5287  0.0117
 8964SOL    HW227736   3.014   7.231   8.115  0.5576 -0.1002  1.1273
 8965SOL     OW27737   4.899   2.121   6.438  0.0923 -0.1247  0.0340
 8965SOL    HW127738   4.928   2.180   6.508  0.3405 -0.3505  0.1247
 8965SOL    HW227739   4.899   2.035   6.479  0.5591 -0.3046 -0.3374
 8966SOL     OW27740   4.970   1.640   3.065  0.3760  0.0411 -0.1475
 8966SOL    HW127741   4.988   1.577   3.135  1.0051  0.9986  0.5895
 8966SOL    HW227742   4.973   1.588   2.984 -1.4501 -1.3007  0.5821
 8967SOL     OW27743   5.589   7.854   4.256  0.0904  0.1362 -0.6811
 8967SOL    HW127744   5.615   7.834   4.346 -1.1333 -0.0823 -0.3523
 8967SOL    HW227745   5.545   7.939   4.262 -0.3842 -0.0791 -0.9909
 8968SOL     OW27746   3.978   7.850   6.218 -0.1098  0.0346  0.2564
 8968SOL    HW127747   4.039   7.915   6.183  0.6482 -0.4137  0.7209
 8968SOL    HW227748   3.958   7.794   6.144 -0.3231  0.4575 -0.0103
 8969SOL     OW27749   7.860   4.648   1.287  0.0820  0.8627 -0.4461
 8969SOL    HW127750   7.930   4.587   1.311  0.5701  1.4052 -0.4457
 8969SOL    HW227751   7.788   4.593   1.257 -0.5122  0.1230  2.0819
 8970SOL     OW27752   0.295   5.251   3.880  0.3580  0.2077 -0.2555
 8970SOL    HW127753   0.254   5.164   3.877  0.3136  0.2404 -1.4708
 8970SOL    HW227754   0.297   5.274   3.972 -2.9752  0.4765 -0.1370
 8971SOL     OW27755   2.612   2.052   5.223 -0.7795  0.2046  0.5468
 8971SOL    HW127756   2.693   2.004   5.209 -0.0508  1.6374 -0.3877
 8971SOL    HW227757   2.587   2.031   5.313 -0.6608 -2.0819  0.1182
 8972SOL     OW27758   2.760   5.807   7.221 -0.2896 -0.4340 -0.3477
 8972SOL    HW127759   2.845   5.770   7.245 -0.5342 -2.0784 -1.7958
 8972SOL    HW227760   2.759   5.893   7.262  2.0615 -0.3763 -0.2595
 8973SOL     OW27761   0.341   2.063   4.742  0.1461 -0.2249 -0.1881
 8973SOL    HW127762   0.298   2.119   4.807  0.4428  0.5450 -0.6406
 8973SOL    HW227763   0.338   2.114   4.661  2.4198  0.1115 -0.1163
 8974SOL     OW27764   7.602   0.140   7.555 -0.3814 -0.1191 -0.2736
 8974SOL    HW127765   7.657   0.082   7.607 -1.1823 -0.2618  0.4367
 8974SOL    HW227766   7.640   0.138   7.468  0.7996 -0.1203  0.2300
 8975SOL     OW27767   1.001   3.524   7.443 -0.2817 -0.1617  0.2590
 8975SOL    HW127768   0.993   3.462   7.515 -0.5576 -0.8283 -0.3297
 8975SOL    HW227769   1.094   3.521   7.419  0.4877  2.2720  2.4692
 8976SOL     OW27770   1.531   3.137   7.996  0.5991  0.5231  0.2979
 8976SOL    HW127771   1.473   3.142   8.072 -0.7166 -0.4615 -0.6003
 8976SOL    HW227772   1.619   3.155   8.031 -0.2465  2.2860  1.6542
 8977SOL     OW27773   0.571   4.923   4.807 -0.1399 -0.0202 -0.4854
 8977SOL    HW127774   0.629   4.904   4.881 -0.7611 -0.1854 -0.0284
 8977SOL    HW227775   0.567   4.842   4.758 -0.5921 -0.2457 -0.0835
 8978SOL     OW27776   0.134   2.055   7.743 -0.6729  0.1261 -0.4356
 8978SOL    HW127777   0.069   2.121   7.720  1.5269  2.2293 -0.9688
 8978SOL    HW227778   0.183   2.094   7.815  1.2444 -0.5093 -1.3355
 8979SOL     OW27779   3.738   5.032   3.290 -0.0810  0.1124  0.3024
 8979SOL    HW127780   3.696   4.978   3.357 -2.3229  0.0766 -1.0503
 8979SOL    HW227781   3.744   5.119   3.331 -1.2942  0.0631  0.6432
 8980SOL     OW27782   7.049   2.014   6.737  0.7193 -0.0237 -0.3342
 8980SOL    HW127783   7.044   2.100   6.697  1.7298  0.2648  0.1152
 8980SOL    HW227784   7.125   1.973   6.695  0.5422 -0.5032 -0.1918
 8981SOL     OW27785   4.001   6.880   3.385  0.1645  0.5475 -0.3407
 8981SOL    HW127786   3.912   6.868   3.353 -1.2722  2.8250  2.4022
 8981SOL    HW227787   3.991   6.906   3.476  3.7469 -0.6630  0.5796
 8982SOL     OW27788   7.626   7.420   0.820 -0.3116 -0.0589  0.3937
 8982SOL    HW127789   7.623   7.515   0.834 -2.4723  0.2346 -1.4108
 8982SOL    HW227790   7.542   7.388   0.850  0.6476 -1.5709  1.6216
 8983SOL     OW27791   3.087   3.992   4.362  0.3877  0.9487  0.1015
 8983SOL    HW127792   3.165   3.962   4.316 -0.4379 -0.8133 -0.2238
 8983SOL    HW227793   3.109   3.982   4.455 -0.4811 -2.7271  0.0592
 8984SOL     OW27794   1.367   7.179   3.786  0.2317 -0.6759  0.4811
 8984SOL    HW127795   1.338   7.267   3.809 -0.8901 -0.5985 -1.0258
 8984SOL    HW227796   1.460   7.189   3.764  0.7932 -0.3953  2.7989
 8985SOL     OW27797   7.198   2.309   3.590 -1.1414 -0.2899  0.0606
 8985SOL    HW127798   7.154   2.224   3.579 -1.5691 -0.1115  0.3639
 8985SOL    HW227799   7.126   2.372   3.596 -0.8650 -0.0696  1.1717
 8986SOL     OW27800   4.936   6.391   3.422 -0.2361  0.2107 -0.0111
 8986SOL    HW127801   4.981   6.307   3.427 -0.3295  0.1785  0.3331
 8986SOL    HW227802   5.005   6.454   3.401 -0.4006 -0.1444 -1.7692
 8987SOL     OW27803   0.149   2.699   5.714 -0.3398  0.1829 -0.1760
 8987SOL    HW127804   0.168   2.728   5.803 -0.4612 -0.9220  0.2242
 8987SOL    HW227805   0.234   2.675   5.677 -0.4449 -0.6165  0.1015
 8988SOL     OW27806   3.606   1.882   4.316  0.1920 -0.1180 -0.4505
 8988SOL    HW127807   3.693   1.842   4.322  1.1732  2.0593  1.8554
 8988SOL    HW227808   3.617   1.952   4.251  0.6597  1.1675  0.9761
 8989SOL     OW27809   0.737   3.181   0.796 -0.3005 -0.2872  0.5360
 8989SOL    HW127810   0.740   3.239   0.872  1.0254  1.2216 -0.5916
 8989SOL    HW227811   0.735   3.240   0.721  5.1536 -1.4355 -0.8963
 8990SOL     OW27812   2.709   3.461   3.860  0.2583  0.3408 -0.0804
 8990SOL    HW127813   2.664   3.524   3.916  1.7503  1.2546  0.1453
 8990SOL    HW227814   2.779   3.425   3.914 -0.3887 -1.3343 -0.2996
 8991SOL     OW27815   3.511   7.397   2.978  0.1397 -0.1679 -0.2648
 8991SOL    HW127816   3.517   7.309   2.939  0.1163 -0.4841  0.4237
 8991SOL    HW227817   3.595   7.438   2.958  0.3645 -0.5515 -0.1117
 8992SOL     OW27818   0.606   1.365   4.040  0.3713  0.4242  0.0502
 8992SOL    HW127819   0.542   1.329   4.102  0.7856 -0.5639 -0.0864
 8992SOL    HW227820   0.686   1.376   4.091  0.0216  2.0465  0.3276
 8993SOL     OW27821   5.269   1.048   7.898  0.0566 -0.3989  0.0442
 8993SOL    HW127822   5.263   0.987   7.824  0.8289 -1.0501  0.5044
 8993SOL    HW227823   5.346   1.101   7.878 -0.3606  0.1483 -0.1379
 8994SOL     OW27824   5.922   5.166   6.170 -0.0381 -0.1199  0.3042
 8994SOL    HW127825   5.868   5.102   6.123  0.0972 -0.8392  1.1076
 8994SOL    HW227826   5.859   5.219   6.218 -0.1576  0.4255 -0.4349
 8995SOL     OW27827   4.853   1.231   3.092 -0.1597  0.4974 -0.0023
 8995SOL    HW127828   4.858   1.156   3.033 -2.7061  0.0226  0.2605
 8995SOL    HW227829   4.834   1.306   3.035 -0.0015  0.5075 -0.0410
 8996SOL     OW27830   3.926   6.102   4.377  0.8424 -0.0825  0.4768
 8996SOL    HW127831   3.926   6.106   4.473  0.9908  1.7929  0.4395
 8996SOL    HW227832   3.844   6.145   4.352  2.6795  3.3226 -0.2457
 8997SOL     OW27833   0.015   7.904   3.168  0.1526 -0.7470  0.3718
 8997SOL    HW127834   0.070   7.920   3.245  0.8560 -0.1779 -0.2284
 8997SOL    HW227835   0.076   7.867   3.103 -0.2645 -0.5020 -0.1638
 8998SOL     OW27836   0.155   0.094   3.447 -0.4764 -0.3407 -0.0988
 8998SOL    HW127837   0.219   0.090   3.518  2.5749 -1.2431 -2.6230
 8998SOL    HW227838   0.145   0.188   3.429 -1.0844 -0.1205  1.3007
 8999SOL     OW27839   6.635   6.190   4.057  0.2910 -0.3091  0.4243
 8999SOL    HW127840   6.601   6.216   3.972  2.5706 -2.0143 -1.1657
 8999SOL    HW227841   6.616   6.263   4.115 -1.2954  0.9339 -1.5507
 9000SOL     OW27842   5.588   1.031   6.303  0.3357 -0.6744 -0.6909
 9000SOL    HW127843   5.539   1.050   6.383  0.6487  0.1026 -0.6678
 9000SOL    HW227844   5.651   0.964   6.328  1.0047  0.1592 -0.0502
 9001SOL     OW27845   0.365   3.523   6.326 -0.2300 -0.3354  0.2104
 9001SOL    HW127846   0.417   3.513   6.406  0.1878 -0.3167 -0.0544
 9001SOL    HW227847   0.345   3.434   6.298 -2.2792 -0.3597  1.5364
 9002SOL     OW27848   2.016   7.821   4.137  0.4993 -0.4898 -0.2346
 9002SOL    HW127849   1.956   7.857   4.071  1.8618  2.1709 -0.1434
 9002SOL    HW227850   2.065   7.753   4.090  0.8322  0.7492 -1.7784
 9003SOL     OW27851   7.398   3.040   7.467  0.4245  0.0555 -0.4344
 9003SOL    HW127852   7.333   2.994   7.520 -0.7461  1.7861 -0.2728
 9003SOL    HW227853   7.359   3.047   7.380 -0.0700  1.8691 -0.1206
 9004SOL     OW27854   3.613   2.888   0.210 -0.4946 -0.5578  0.5216
 9004SOL    HW127855   3.681   2.949   0.181 -0.8354 -0.0766  0.7319
 9004SOL    HW227856   3.617   2.891   0.305 -1.1304 -0.1626  0.5416
 9005SOL     OW27857   0.754   5.193   1.736  0.2443 -0.5140  0.3398
 9005SOL    HW127858   0.765   5.287   1.751  0.2904 -0.5911  0.7880
 9005SOL    HW227859   0.682   5.188   1.672 -0.3781 -0.2153  1.0008
 9006SOL     OW27860   2.486   4.376   1.385  0.2433  0.1388 -0.4190
 9006SOL    HW127861   2.554   4.319   1.350  0.0622 -0.1027 -0.3750
 9006SOL    HW227862   2.526   4.463   1.384  0.0348  0.2447 -1.8234
 9007SOL     OW27863   2.533   5.879   7.416  0.0153 -0.6100  0.0551
 9007SOL    HW127864   2.508   5.934   7.342 -0.1765 -1.4779 -0.5318
 9007SOL    HW227865   2.606   5.926   7.457 -0.7195  0.5245  0.0987
 9008SOL     OW27866   3.554   0.007   3.292  0.2307  0.2106 -0.2770
 9008SOL    HW127867   3.481  -0.055   3.285  0.5498 -0.3398  1.1159
 9008SOL    HW227868   3.624  -0.034   3.242  0.4223 -0.5404  0.5914
 9009SOL     OW27869   1.369   5.773   2.982 -0.2322 -0.4237  0.1655
 9009SOL    HW127870   1.338   5.703   2.924  0.6228 -1.6040  1.0739
 9009SOL    HW227871   1.456   5.795   2.948 -1.3936  1.9057 -1.5396
 9010SOL     OW27872   2.614   1.045   3.201  0.2286  0.2419 -0.1386
 9010SOL    HW127873   2.663   1.081   3.275 -0.6360  2.3864 -0.5181
 9010SOL    HW227874   2.654   1.085   3.124 -0.8171  0.4906 -0.5788
 9011SOL     OW27875   4.593   8.056   4.779 -0.1101 -0.3714  0.4005
 9011SOL    HW127876   4.532   7.983   4.767  1.4841 -1.9843  1.6704
 9011SOL    HW227877   4.635   8.066   4.694 -0.5617 -0.7386  0.1298
 9012SOL     OW27878   3.909   3.063   8.040  0.7426  0.2669 -0.0372
 9012SOL    HW127879   3.876   2.985   7.996 -1.2947  1.5988 -1.0490
 9012SOL    HW227880   3.993   3.037   8.076  0.7101 -2.0170 -1.4284
 9013SOL     OW27881   7.523   6.084   0.717 -0.3035 -0.0258 -0.2111
 9013SOL    HW127882   7.436   6.061   0.685 -0.4267 -1.5671  1.0781
 9013SOL    HW227883   7.558   6.001   0.751 -0.3157  1.4382  3.8394
 9014SOL     OW27884   1.666   0.908   0.591  0.0195  0.3481  0.1026
 9014SOL    HW127885   1.679   0.851   0.515  0.7224 -0.5200  0.8418
 9014SOL    HW227886   1.574   0.936   0.585  0.2341  0.7878 -1.3761
 9015SOL     OW27887   2.716   5.926   1.571  0.4458 -0.1396 -0.1927
 9015SOL    HW127888   2.704   5.899   1.662  1.3970  1.6263  0.4840
 9015SOL    HW227889   2.627   5.933   1.536  0.0428 -0.0551  0.8316
 9016SOL     OW27890   2.038   3.315   2.378  0.3123 -0.7483  0.0877
 9016SOL    HW127891   2.102   3.333   2.446  1.6717 -1.1768 -1.0309
 9016SOL    HW227892   1.971   3.383   2.389  2.1889  1.2615 -0.2299
 9017SOL     OW27893   2.571   1.798   3.561  0.1708 -0.3193  0.3655
 9017SOL    HW127894   2.565   1.892   3.575  1.3003 -0.3568  1.2551
 9017SOL    HW227895   2.650   1.772   3.608  1.3112 -1.3264 -1.9438
 9018SOL     OW27896   1.834   7.818   4.980 -0.8697  0.2102 -0.5111
 9018SOL    HW127897   1.905   7.760   4.953 -0.2458  0.4788  0.4967
 9018SOL    HW227898   1.817   7.794   5.071 -1.8213  0.4099 -0.6249
 9019SOL     OW27899   0.834   3.669   1.053  0.1779 -0.2948  0.2276
 9019SOL    HW127900   0.837   3.762   1.074 -0.2048 -0.0494 -0.7539
 9019SOL    HW227901   0.890   3.627   1.118  0.3605  0.6246  0.6650
 9020SOL     OW27902   6.502   2.923   3.930  0.1074 -0.2138 -0.3936
 9020SOL    HW127903   6.472   2.848   3.879 -0.7444 -0.1468 -0.0073
 9020SOL    HW227904   6.530   2.886   4.014  0.4339 -0.1908 -0.4914
 9021SOL     OW27905   4.940   3.795   2.695  0.4237  0.4436 -0.2086
 9021SOL    HW127906   5.021   3.843   2.676 -0.4328  2.3233  0.5824
 9021SOL    HW227907   4.952   3.710   2.654  2.6029  0.8395 -0.5174
 9022SOL     OW27908   6.866   2.287   7.542  0.5223  0.5423  0.1594
 9022SOL    HW127909   6.786   2.234   7.541 -0.7041  2.2731  0.9004
 9022SOL    HW227910   6.884   2.305   7.450  2.0498 -2.5695 -0.2872
 9023SOL     OW27911   1.344   5.206   6.686 -0.5793 -0.4928 -0.5420
 9023SOL    HW127912   1.394   5.238   6.761 -3.7373  0.3757  1.4320
 9023SOL    HW227913   1.385   5.247   6.610  0.8973  1.1364  1.0378
 9024SOL     OW27914   0.357   0.516   6.079 -0.3126  0.1157  1.0997
 9024SOL    HW127915   0.401   0.582   6.133 -0.7265 -0.8627  2.7226
 9024SOL    HW227916   0.361   0.550   5.990  3.8224  0.0681  1.0768
 9025SOL     OW27917   5.727   2.504   7.363 -0.3968  0.1151 -0.4810
 9025SOL    HW127918   5.757   2.435   7.423  0.5592  1.0489  0.1436
 9025SOL    HW227919   5.745   2.586   7.409 -0.6562  0.8283 -1.5987
 9026SOL     OW27920   1.966   7.835   3.615 -0.5604 -0.3482 -0.1403
 9026SOL    HW127921   2.055   7.852   3.586 -0.0635 -0.8023  1.0389
 9026SOL    HW227922   1.912   7.900   3.570  0.5841  0.9787  0.3707
 9027SOL     OW27923   1.286   6.832   4.831 -0.0717  0.0420 -0.4976
 9027SOL    HW127924   1.303   6.797   4.743 -0.7968  1.6162 -1.3177
 9027SOL    HW227925   1.230   6.909   4.815  0.8383  1.1114  1.2434
 9028SOL     OW27926   2.512   3.050   0.220  0.0427  0.2660  0.3903
 9028SOL    HW127927   2.499   3.104   0.299 -1.0813 -1.3255  1.3359
 9028SOL    HW227928   2.603   3.022   0.226  0.2412  0.9196  0.6065
 9029SOL     OW27929   7.540   1.651   4.169 -0.0955  0.0144 -0.4723
 9029SOL    HW127930   7.533   1.639   4.074  1.7871  0.1483 -0.6704
 9029SOL    HW227931   7.473   1.593   4.205 -1.2685  0.4312 -1.8825
 9030SOL     OW27932   0.497   5.622   5.104 -0.0202 -0.6277 -0.5029
 9030SOL    HW127933   0.450   5.615   5.020  0.7412 -0.2929 -0.9725
 9030SOL    HW227934   0.490   5.714   5.128 -1.0585 -0.9088  0.3011
 9031SOL     OW27935   5.996   7.142   2.644  0.3379  0.1656 -0.1318
 9031SOL    HW127936   5.993   7.119   2.737 -2.1674  1.1425  0.1063
 9031SOL    HW227937   6.018   7.236   2.643  0.4399  0.1421 -0.5500
 9032SOL     OW27938   1.874   2.633   7.176 -0.1337  0.2706 -0.1719
 9032SOL    HW127939   1.899   2.575   7.104 -0.4375 -0.2229  0.1138
 9032SOL    HW227940   1.832   2.575   7.240 -0.5082  0.8167  0.0867
 9033SOL     OW27941   2.142   3.137   1.312 -0.2133 -0.1622  0.6207
 9033SOL    HW127942   2.236   3.132   1.295  0.0564  1.7154  1.2955
 9033SOL    HW227943   2.103   3.160   1.227  0.2402  1.4228  0.8071
 9034SOL     OW27944   3.051   3.183   1.726  0.6608  0.4839  0.0480
 9034SOL    HW127945   2.997   3.262   1.722 -2.6708 -1.6214 -0.3443
 9034SOL    HW227946   3.041   3.144   1.639  0.6833 -1.2999  0.8191
 9035SOL     OW27947   0.801   1.363   6.974  0.3306 -0.6110 -0.5757
 9035SOL    HW127948   0.720   1.343   7.021  1.2352 -1.1398  0.8354
 9035SOL    HW227949   0.861   1.293   7.000  1.5814  0.3899 -0.7055
 9036SOL     OW27950   6.515   4.803   6.319 -0.4668  0.6699 -0.1113
 9036SOL    HW127951   6.510   4.751   6.399 -0.4717 -1.5796 -1.4657
 9036SOL    HW227952   6.427   4.840   6.308 -0.8962 -0.2258  0.1887
 9037SOL     OW27953   8.031   4.945   0.253 -0.5858 -1.2376  0.3935
 9037SOL    HW127954   7.963   4.887   0.219 -2.6966  1.9432 -1.4056
 9037SOL    HW227955   7.992   4.985   0.330  0.7808 -2.0321  1.5393
 9038SOL     OW27956   7.611   4.033   3.331 -0.1749 -0.5505 -0.1406
 9038SOL    HW127957   7.652   4.049   3.246  0.6198 -2.8607 -0.2893
 9038SOL    HW227958   7.641   4.104   3.386  0.1597  0.4206 -1.5130
 9039SOL     OW27959   2.808   3.866   5.057 -0.3541 -0.0577  0.6853
 9039SOL    HW127960   2.726   3.896   5.095 -0.3792 -0.2615  0.7900
 9039SOL    HW227961   2.874   3.889   5.122 -0.1598  1.2526  0.0598
 9040SOL     OW27962   0.119   4.380   5.499  0.1685 -0.2785  0.4129
 9040SOL    HW127963   0.139   4.471   5.476  0.8911  0.1286  2.4325
 9040SOL    HW227964   0.049   4.355   5.439 -1.0221  2.0907  0.6684
 9041SOL     OW27965   6.270   2.423   5.922 -0.5682  0.2233  0.1268
 9041SOL    HW127966   6.299   2.476   5.997  0.9324  0.1356 -0.3557
 9041SOL    HW227967   6.351   2.385   5.887 -1.2166  0.4012 -1.6536
 9042SOL     OW27968   0.245   4.369   7.643 -0.5117  1.2553  0.6088
 9042SOL    HW127969   0.212   4.315   7.715  0.7147  0.1564  0.3943
 9042SOL    HW227970   0.181   4.440   7.635 -2.4371 -0.3799  0.6341
 9043SOL     OW27971   6.956   4.514   3.300  0.1940 -0.2057  0.0661
 9043SOL    HW127972   6.867   4.503   3.267  0.2278  1.0215 -0.5205
 9043SOL    HW227973   6.947   4.567   3.379  0.4355  0.4488 -0.3346
 9044SOL     OW27974   0.785   5.749   4.495 -0.4157  0.0953  0.1736
 9044SOL    HW127975   0.723   5.706   4.435 -1.3941 -0.3951  1.4761
 9044SOL    HW227976   0.842   5.678   4.526 -1.5811 -0.2037  1.7813
 9045SOL     OW27977   1.012   7.587   1.524 -0.1139  0.8391  0.3619
 9045SOL    HW127978   1.029   7.503   1.483  0.1036  0.1652  1.7761
 9045SOL    HW227979   0.933   7.619   1.481 -1.0520 -0.7768  0.8087
 9046SOL     OW27980   4.422   7.782   6.897  0.1491  0.1763  0.2002
 9046SOL    HW127981   4.475   7.829   6.832  1.7189  1.9121  2.5487
 9046SOL    HW227982   4.484   7.760   6.967 -1.4703 -1.4679  1.2041
 9047SOL     OW27983   4.818   0.034   2.844 -0.2763 -0.8135 -0.0685
 9047SOL    HW127984   4.902  -0.008   2.863 -0.4492 -1.4036 -0.5623
 9047SOL    HW227985   4.798   0.085   2.922  0.2386 -1.1644  0.2978
 9048SOL     OW27986   7.494   3.836   7.956 -0.0994  0.5297  0.4351
 9048SOL    HW127987   7.578   3.798   7.983  0.7257  1.7666 -0.2973
 9048SOL    HW227988   7.464   3.779   7.886  0.5600  0.5666  0.1147
 9049SOL     OW27989   7.277   2.908   1.990 -0.1807 -0.7328  0.0078
 9049SOL    HW127990   7.212   2.879   1.926  0.1778 -1.7253  0.0824
 9049SOL    HW227991   7.337   2.964   1.940  0.0542 -1.4432 -0.5129
 9050SOL     OW27992   1.961   2.520   8.121  0.5865  0.1345 -0.2092
 9050SOL    HW127993   1.971   2.595   8.179 -0.8939 -1.0512  1.6970
 9050SOL    HW227994   2.026   2.457   8.151 -1.5919 -1.3432  1.7470
 9051SOL     OW27995   4.266   1.556   6.925 -0.0807  0.2060  0.4258
 9051SOL    HW127996   4.349   1.592   6.896 -1.5465  2.5568 -1.1400
 9051SOL    HW227997   4.288   1.506   7.004  2.8151  0.5164 -0.0869
 9052SOL     OW27998   1.740   4.353   0.564  0.0757 -0.3173  0.2381
 9052SOL    HW127999   1.775   4.284   0.621  0.3515  0.4259  0.9734
 9052SOL    HW228000   1.779   4.335   0.479 -0.6171 -1.6563  0.1578
 9053SOL     OW28001   6.816   7.921   4.271  0.4081  0.2475  0.6292
 9053SOL    HW128002   6.904   7.897   4.301  1.0729  1.4312 -0.2922
 9053SOL    HW228003   6.829   7.960   4.185 -0.7459  2.4090  1.3418
 9054SOL     OW28004   5.252   2.664   8.193 -0.4661  0.4899 -0.2488
 9054SOL    HW128005   5.271   2.654   8.100 -0.3843  0.3231 -0.2149
 9054SOL    HW228006   5.189   2.736   8.198 -0.0396  0.8668 -0.3777
 9055SOL     OW28007   3.796   2.374   6.182 -0.0866  0.1220 -0.4095
 9055SOL    HW128008   3.731   2.405   6.246  0.1200 -0.5654  0.1496
 9055SOL    HW228009   3.765   2.287   6.158  1.8637 -1.2810  1.7229
 9056SOL     OW28010   2.749   1.780   1.866  0.0825  0.2447  0.1561
 9056SOL    HW128011   2.747   1.706   1.806 -0.9890  0.4264 -0.0611
 9056SOL    HW228012   2.757   1.857   1.809  0.8912  0.3196  0.3623
 9057SOL     OW28013   0.402   4.785   4.149  0.7449 -0.1542  0.2682
 9057SOL    HW128014   0.452   4.734   4.085 -0.7993 -0.4920 -0.7273
 9057SOL    HW228015   0.310   4.771   4.124  0.2196  2.4047  0.5190
 9058SOL     OW28016   8.142   3.446   4.789  0.3454  0.4698 -0.1759
 9058SOL    HW128017   8.052   3.478   4.800 -0.0803 -0.3638 -1.1136
 9058SOL    HW228018   8.137   3.387   4.714  1.5163 -0.2266  0.2798
 9059SOL     OW28019   0.606   5.039   0.132  0.1421  0.4251 -0.3520
 9059SOL    HW128020   0.667   4.965   0.123  1.1363  0.9979  1.1604
 9059SOL    HW228021   0.535   5.004   0.187 -0.4445  0.0298 -1.3351
 9060SOL     OW28022   2.023   2.529   6.950 -0.0918  0.2019  0.6163
 9060SOL    HW128023   2.030   2.486   6.865  1.0015 -0.6716  1.1219
 9060SOL    HW228024   2.036   2.622   6.932  0.6888 -0.0385 -0.1047
 9061SOL     OW28025   0.447   8.145   0.518  0.1122 -0.2136  0.0855
 9061SOL    HW128026   0.455   8.222   0.462  0.9487 -1.2341 -1.2996
 9061SOL    HW228027   0.440   8.179   0.607  0.4852  1.4455 -0.4876
 9062SOL     OW28028   1.149   1.341   0.728 -0.3676 -0.4480 -0.0813
 9062SOL    HW128029   1.105   1.409   0.677  1.1959  0.1202 -0.7184
 9062SOL    HW228030   1.166   1.383   0.812  0.2822 -0.1570 -0.3529
 9063SOL     OW28031   4.571   0.389   3.498  0.3572 -0.2615 -0.0009
 9063SOL    HW128032   4.548   0.470   3.542  0.5704 -0.7886  1.1303
 9063SOL    HW228033   4.493   0.334   3.504  1.1986 -1.3250  2.1246
 9064SOL     OW28034   3.278   4.136   2.059  0.3004 -0.2212 -0.2404
 9064SOL    HW128035   3.214   4.087   2.007  0.7947 -1.8632  0.6014
 9064SOL    HW228036   3.226   4.195   2.112 -0.3584 -0.0938 -1.0126
 9065SOL     OW28037   3.779   4.828   1.709 -0.3514  0.1707 -0.4198
 9065SOL    HW128038   3.824   4.898   1.663  1.1776 -0.4785  0.0115
 9065SOL    HW228039   3.804   4.748   1.663  2.4642 -0.6971  2.2265
 9066SOL     OW28040   5.892   6.660   3.761 -0.1532 -0.1748 -0.5177
 9066SOL    HW128041   5.867   6.596   3.694 -1.2866 -0.3806  0.0723
 9066SOL    HW228042   5.809   6.695   3.793  0.3456 -0.2528  0.9443
 9067SOL     OW28043   6.217   4.196   3.211  0.2365  0.2963 -0.3095
 9067SOL    HW128044   6.280   4.153   3.153  0.2529 -0.3796  0.2085
 9067SOL    HW228045   6.269   4.264   3.255  0.7105 -0.5171  0.4128
 9068SOL     OW28046   3.223   5.215   6.676  0.1675  0.0213 -0.0208
 9068SOL    HW128047   3.159   5.145   6.689  1.8117 -1.4419  0.5563
 9068SOL    HW228048   3.276   5.185   6.602  0.2342  1.1904 -0.4681
 9069SOL     OW28049   7.347   0.353   8.052  0.4468 -0.1713 -0.0231
 9069SOL    HW128050   7.323   0.272   8.006 -1.9159  0.5134 -0.1299
 9069SOL    HW228051   7.417   0.326   8.111  2.0298 -1.5578 -2.3575
 9070SOL     OW28052   2.713   6.610   5.439 -0.0182  0.1517  0.0639
 9070SOL    HW128053   2.732   6.685   5.495  1.0215  0.6363 -0.9020
 9070SOL    HW228054   2.762   6.627   5.358 -0.1868 -1.3103 -0.3744
 9071SOL     OW28055   4.841   7.272   7.077  0.1828  0.0210  0.2733
 9071SOL    HW128056   4.931   7.262   7.045 -0.1570 -0.7981 -0.4801
 9071SOL    HW228057   4.795   7.313   7.004 -0.0751  0.3694  0.6307
 9072SOL     OW28058   5.140   6.806   1.367 -0.1217 -0.3122 -0.4886
 9072SOL    HW128059   5.181   6.721   1.383 -0.2065 -0.3253 -0.3425
 9072SOL    HW228060   5.075   6.789   1.299  1.5234  0.0974 -2.2595
 9073SOL     OW28061   3.963   4.985   5.662 -0.2321  0.1187  0.3686
 9073SOL    HW128062   3.895   5.028   5.611 -1.1052 -1.5364  0.0618
 9073SOL    HW228063   3.954   5.022   5.750 -0.0221  1.5388 -0.1711
 9074SOL     OW28064   0.661   2.338   4.490 -0.3684 -0.1208 -0.0494
 9074SOL    HW128065   0.632   2.305   4.405  4.6938 -1.1648 -1.7310
 9074SOL    HW228066   0.685   2.259   4.539  0.7737  0.6190  0.6242
 9075SOL     OW28067   4.271   1.664   0.403 -0.2327 -0.0797 -0.3116
 9075SOL    HW128068   4.185   1.687   0.369  0.0356  0.5202 -0.5951
 9075SOL    HW228069   4.324   1.649   0.325  0.1567  0.4422 -0.1537
 9076SOL     OW28070   0.544   8.060   7.939 -0.3038  0.5660 -0.7861
 9076SOL    HW128071   0.556   8.154   7.957  0.1870  0.2416  0.7762
 9076SOL    HW228072   0.627   8.032   7.901  0.5514  0.2719  1.1718
 9077SOL     OW28073   1.184   3.021   1.792  0.2368  0.2162 -0.2146
 9077SOL    HW128074   1.247   3.066   1.847  0.3510 -1.4009  1.0517
 9077SOL    HW228075   1.223   2.935   1.775 -0.3244  0.2521 -1.8598
 9078SOL     OW28076   6.991   6.781   6.117  0.1009 -0.1768  0.1192
 9078SOL    HW128077   6.968   6.782   6.210  0.3858  0.7074  0.1945
 9078SOL    HW228078   6.909   6.804   6.072  0.4058  1.3912  0.2916
 9079SOL     OW28079   8.136   3.254   4.548  0.0539  0.2270  0.0136
 9079SOL    HW128080   8.160   3.239   4.456  2.6580 -0.3716  0.7192
 9079SOL    HW228081   8.059   3.200   4.562  1.4094 -2.1260 -1.0680
 9080SOL     OW28082   5.067   3.272   0.207 -0.0888  0.1781 -0.2183
 9080SOL    HW128083   5.009   3.283   0.282 -0.1405 -0.5118 -0.1508
 9080SOL    HW228084   5.020   3.311   0.134 -0.2165  0.4846  0.0283
 9081SOL     OW28085   3.861   2.279   4.372 -0.1208 -0.3515  0.0907
 9081SOL    HW128086   3.875   2.228   4.292  0.8751  1.3862 -0.9059
 9081SOL    HW228087   3.905   2.228   4.441  1.8027 -0.3790 -1.0671
 9082SOL     OW28088   4.188   3.050   8.086 -0.1960  0.0406 -0.1248
 9082SOL    HW128089   4.224   3.066   8.173  0.4772 -1.0980 -0.1641
 9082SOL    HW228090   4.182   2.954   8.080 -0.8116  0.1234 -1.0991
 9083SOL     OW28091   6.952   1.739   0.044  0.1890 -0.2264 -0.1047
 9083SOL    HW128092   7.043   1.720   0.023 -0.3290 -0.8179 -1.9976
 9083SOL    HW228093   6.938   1.828   0.011  0.4554  0.4866  1.5848
 9084SOL     OW28094   5.067   4.493   6.697  0.0055 -0.1355 -0.2509
 9084SOL    HW128095   5.115   4.550   6.638 -0.1491  0.3528  0.0870
 9084SOL    HW228096   4.995   4.547   6.730 -0.5119 -0.7166 -0.4027
 9085SOL     OW28097   6.048   2.372   0.705  0.8504  0.2443  0.0282
 9085SOL    HW128098   5.961   2.394   0.673  1.2838  0.8054 -0.8150
 9085SOL    HW228099   6.033   2.326   0.788 -0.3031 -0.9630 -0.8139
 9086SOL     OW28100   0.776   1.538   3.266 -0.3352  0.0444 -0.9286
 9086SOL    HW128101   0.856   1.566   3.311  0.0154 -0.4886 -1.2066
 9086SOL    HW228102   0.775   1.443   3.275 -1.3670  0.1047 -0.2306
 9087SOL     OW28103   5.137   2.744   7.349 -0.6295 -0.7109  0.0035
 9087SOL    HW128104   5.215   2.732   7.403  0.2828 -1.2543 -1.3792
 9087SOL    HW228105   5.116   2.656   7.318  0.5740 -0.1401 -2.7564
 9088SOL     OW28106   0.260   0.751   6.694 -0.3214 -0.4895  0.1174
 9088SOL    HW128107   0.355   0.747   6.705  0.0138  2.9961 -0.3724
 9088SOL    HW228108   0.242   0.698   6.616  0.9711 -2.2931  0.9863
 9089SOL     OW28109   5.431   2.280   6.808 -1.0479  0.2718 -0.2147
 9089SOL    HW128110   5.526   2.287   6.819 -0.9570  0.2369 -0.8965
 9089SOL    HW228111   5.395   2.329   6.882 -0.5105 -0.2203  0.3872
 9090SOL     OW28112   4.446   4.931   2.401  0.4477 -0.3935  0.1656
 9090SOL    HW128113   4.488   4.956   2.483 -2.1297  0.1677  1.4380
 9090SOL    HW228114   4.361   4.975   2.404 -0.3069 -1.5381 -2.1451
 9091SOL     OW28115   1.218   3.407   0.896  0.3642  0.0908  0.1403
 9091SOL    HW128116   1.139   3.361   0.925 -0.1578  0.7634 -0.1868
 9091SOL    HW228117   1.290   3.347   0.917 -0.1639 -0.2162  1.1317
 9092SOL     OW28118   7.874   3.286   2.070  0.3830 -0.1663 -0.4790
 9092SOL    HW128119   7.968   3.285   2.092  0.9213  1.1669 -2.4524
 9092SOL    HW228120   7.849   3.193   2.071  1.5336 -0.5037  0.7056
 9093SOL     OW28121   3.997   0.397   4.592  0.1916 -0.8055 -0.6354
 9093SOL    HW128122   4.026   0.350   4.670 -0.8904 -0.7444 -0.1817
 9093SOL    HW228123   3.906   0.370   4.580  0.4634 -1.1535 -2.1405
 9094SOL     OW28124   0.408   3.614   6.050  0.5743  0.2761 -0.8356
 9094SOL    HW128125   0.444   3.586   6.134  0.8092 -0.6885 -1.2412
 9094SOL    HW228126   0.344   3.547   6.027 -2.4031  2.4727  0.3744
 9095SOL     OW28127   3.910   6.196   5.846 -0.2284 -0.2398  0.4750
 9095SOL    HW128128   3.963   6.209   5.767 -1.1433  1.4563  0.0839
 9095SOL    HW228129   3.824   6.172   5.813 -0.9046  1.4763  0.8446
 9096SOL     OW28130   7.014   1.525   2.332  0.3138  0.0211 -0.4550
 9096SOL    HW128131   7.007   1.608   2.286 -0.9522 -0.4139 -1.1043
 9096SOL    HW228132   6.930   1.515   2.377  1.5913  0.5610  2.2603
 9097SOL     OW28133   4.578   2.653   0.057 -0.4557  0.4603 -0.3641
 9097SOL    HW128134   4.526   2.586   0.012  1.0203 -0.8174 -0.2333
 9097SOL    HW228135   4.668   2.636   0.031  0.2898  0.6217  1.8648
 9098SOL     OW28136   3.624   2.143   7.259 -0.2675  0.4743 -0.1610
 9098SOL    HW128137   3.673   2.079   7.309 -1.6821  0.7948  1.7191
 9098SOL    HW228138   3.546   2.097   7.230 -1.3462  1.3141  1.2928
 9099SOL     OW28139   4.498   6.490   5.328 -0.1481 -0.3009 -0.0567
 9099SOL    HW128140   4.473   6.405   5.363  0.5657  0.0226  1.3283
 9099SOL    HW228141   4.494   6.480   5.233 -1.4314 -1.4477  0.0944
 9100SOL     OW28142   3.604   6.001   1.251 -0.2094  0.5744  0.7363
 9100SOL    HW128143   3.673   6.013   1.186  0.7048 -0.0547  1.5564
 9100SOL    HW228144   3.636   5.930   1.307 -1.4769  0.3385  1.2087
 9101SOL     OW28145   7.319   3.251   8.109 -0.1016  0.6803 -0.1579
 9101SOL    HW128146   7.335   3.170   8.060 -0.8260 -0.2535  1.0938
 9101SOL    HW228147   7.226   3.249   8.130  0.0325  1.4537  0.5654
 9102SOL     OW28148   5.982   3.293   3.454 -0.0531  0.3098 -0.5133
 9102SOL    HW128149   6.022   3.228   3.512 -0.8570 -1.0260 -1.4022
 9102SOL    HW228150   6.053   3.318   3.395  0.3691  0.5592  0.0864
 9103SOL     OW28151   6.574   5.747   5.768  0.4822  0.0476 -0.5471
 9103SOL    HW128152   6.482   5.745   5.742  0.1706 -0.9717  0.5233
 9103SOL    HW228153   6.573   5.720   5.860  1.8804 -0.2417 -0.5951
 9104SOL     OW28154   2.658   5.465   6.392 -0.2184 -0.0724 -0.0509
 9104SOL    HW128155   2.600   5.493   6.321 -0.0267 -1.4336 -0.7874
 9104SOL    HW228156   2.688   5.546   6.433 -0.3690  0.7358 -1.4970
 9105SOL     OW28157   5.301   8.049   7.513  0.5116  0.3458  0.5601
 9105SOL    HW128158   5.364   7.977   7.510 -0.9452 -0.9701 -0.3713
 9105SOL    HW228159   5.218   8.007   7.539 -0.3520  1.6956  0.1076
 9106SOL     OW28160   3.616   8.044   4.172  0.1163  0.3741 -0.0126
 9106SOL    HW128161   3.582   8.064   4.085 -0.6281  0.0977  0.2091
 9106SOL    HW228162   3.709   8.028   4.158  0.0948  0.7992 -0.6840
 9107SOL     OW28163   3.686   3.653   5.564  0.3934 -0.3160 -0.1739
 9107SOL    HW128164   3.611   3.663   5.623  0.7049 -1.1279  0.3799
 9107SOL    HW228165   3.655   3.592   5.496 -0.2653  1.3206 -1.3999
 9108SOL     OW28166   4.340   7.722   8.037 -0.0999 -0.0632 -0.4640
 9108SOL    HW128167   4.357   7.752   8.126  0.1196  0.8648 -0.8091
 9108SOL    HW228168   4.245   7.733   8.025 -0.0268  0.4617 -0.5735
 9109SOL     OW28169   3.173   7.268   5.391  0.0641  0.0165  0.0807
 9109SOL    HW128170   3.226   7.339   5.426 -1.3952  1.1467  0.0667
 9109SOL    HW228171   3.214   7.189   5.426  1.2522  0.8892  0.7350
 9110SOL     OW28172   2.955   8.098   2.637 -0.4474 -0.3120 -0.3230
 9110SOL    HW128173   2.895   8.130   2.705 -0.5051  1.4816 -1.1610
 9110SOL    HW228174   2.933   8.005   2.629 -3.1285  0.2409 -0.5428
 9111SOL     OW28175   4.463   5.213   3.950  0.4165 -0.1807  0.3507
 9111SOL    HW128176   4.383   5.226   3.899 -0.0044  0.9937  1.2597
 9111SOL    HW228177   4.477   5.119   3.951 -0.1641 -0.3008 -1.0078
 9112SOL     OW28178   6.636   7.692   3.940  0.7173  1.1169 -0.5940
 9112SOL    HW128179   6.717   7.744   3.949  1.8088 -0.3824 -1.3743
 9112SOL    HW228180   6.576   7.750   3.894  1.5488  2.0502 -0.5503
 9113SOL     OW28181   6.988   4.149   4.919 -0.2564  0.7949  0.0727
 9113SOL    HW128182   7.025   4.145   4.831 -2.3669  1.2059 -0.8767
 9113SOL    HW228183   7.037   4.083   4.969  3.6823  3.1704 -0.2590
 9114SOL     OW28184   0.098   7.347   0.690  0.1682 -0.3242 -0.0937
 9114SOL    HW128185   0.134   7.262   0.665 -1.7313 -1.0043 -0.6490
 9114SOL    HW228186   0.171   7.408   0.679  1.2718 -1.7036 -0.7056
 9115SOL     OW28187   4.168   3.926   3.369  0.8231 -0.5172 -0.6492
 9115SOL    HW128188   4.243   3.893   3.319 -0.2868  0.1617 -2.8951
 9115SOL    HW228189   4.179   4.021   3.369  0.4791 -0.4749 -0.1105
 9116SOL     OW28190   3.833   2.676   1.132  0.1194 -0.2896 -0.0225
 9116SOL    HW128191   3.812   2.602   1.188  1.7473  0.3072  1.4510
 9116SOL    HW228192   3.756   2.733   1.139 -0.4819 -1.0945  0.0812
 9117SOL     OW28193   0.498   3.614   1.297 -0.0385  0.1313 -0.0936
 9117SOL    HW128194   0.457   3.537   1.338 -0.9261  0.0799 -1.0551
 9117SOL    HW228195   0.553   3.651   1.366 -0.2272 -0.9034  0.6330
 9118SOL     OW28196   6.248   5.207   3.329 -0.4806 -0.0412 -0.1841
 9118SOL    HW128197   6.194   5.130   3.313 -1.1013 -0.1459  2.0634
 9118SOL    HW228198   6.338   5.175   3.327 -0.7619 -1.1070  1.6905
 9119SOL     OW28199   6.833   0.429   3.091  0.5166 -0.0460  0.4400
 9119SOL    HW128200   6.801   0.433   3.181 -2.0273 -0.6418 -0.3634
 9119SOL    HW228201   6.838   0.521   3.063 -1.2193  0.0741  0.4120
 9120SOL     OW28202   6.273   1.687   5.793  0.1391 -0.3268  0.9560
 9120SOL    HW128203   6.344   1.672   5.730  1.3728  3.7584  1.0696
 9120SOL    HW228204   6.222   1.606   5.792  2.1183 -1.7625 -2.6408
 9121SOL     OW28205   1.036   1.111   6.719 -0.2055  0.4421  0.3291
 9121SOL    HW128206   0.968   1.161   6.764 -1.6117  0.7015 -1.9246
 9121SOL    HW228207   1.114   1.167   6.722 -1.0497  1.6640  0.0302
 9122SOL     OW28208   3.256   1.321   0.917  0.4272 -0.2362  0.4365
 9122SOL    HW128209   3.265   1.320   0.821  0.2042 -0.0469  0.4106
 9122SOL    HW228210   3.182   1.262   0.934 -0.2544  0.5770  0.3997
 9123SOL     OW28211   2.083   7.857   6.773 -0.0366  0.4501 -0.2812
 9123SOL    HW128212   2.137   7.816   6.841 -0.3976  1.4214  0.6078
 9123SOL    HW228213   2.144   7.908   6.721  0.3021 -0.5960 -0.9496
 9124SOL     OW28214   4.576   7.148   7.716  0.4630  0.2036  0.6123
 9124SOL    HW128215   4.638   7.177   7.783 -0.8628  0.9276  1.5756
 9124SOL    HW228216   4.544   7.064   7.747  0.3966  0.1897  0.5071
 9125SOL     OW28217   0.420   2.256   7.668  0.3357  0.4411 -0.1777
 9125SOL    HW128218   0.386   2.187   7.612  1.0223 -0.0431 -0.0132
 9125SOL    HW228219   0.454   2.210   7.745 -1.7033  1.1788  1.2539
 9126SOL     OW28220   7.734   5.684   6.856 -0.3386 -0.3520  0.4634
 9126SOL    HW128221   7.698   5.768   6.888 -0.6495 -0.5465  0.6316
 9126SOL    HW228222   7.726   5.625   6.931  1.1560 -0.1702  0.7959
 9127SOL     OW28223   0.982   2.789   3.228 -0.6139 -0.0703 -0.8114
 9127SOL    HW128224   1.055   2.736   3.262  0.3215  1.9448  0.4937
 9127SOL    HW228225   0.975   2.763   3.136  1.7887 -0.3346 -1.0005
 9128SOL     OW28226   7.113   6.064   6.965  0.3187 -0.0964 -0.6083
 9128SOL    HW128227   7.130   6.157   6.952  0.0573 -0.1468 -1.3724
 9128SOL    HW228228   7.088   6.056   7.057 -0.5983  0.7237 -0.7822
 9129SOL     OW28229   1.233   1.472   5.938 -0.2789  0.4029  0.3394
 9129SOL    HW128230   1.294   1.404   5.969  0.1522  0.7440  0.2534
 9129SOL    HW228231   1.289   1.534   5.890 -0.9202 -0.1236 -1.1622
 9130SOL     OW28232   2.015   2.272   2.268  0.1310 -0.0478 -0.2201
 9130SOL    HW128233   1.954   2.201   2.250 -0.9015  1.7434 -5.5615
 9130SOL    HW228234   1.965   2.336   2.318 -0.9185 -0.4489 -0.7432
 9131SOL     OW28235   0.087   2.706   6.789 -0.2397  0.1010 -0.3471
 9131SOL    HW128236   0.143   2.782   6.806 -0.4876 -0.1411  1.8188
 9131SOL    HW228237  -0.001   2.737   6.808 -0.2021 -1.0707  2.0669
 9132SOL     OW28238   5.610   1.156   1.434  0.8879 -0.2111  0.1784
 9132SOL    HW128239   5.659   1.093   1.487  1.5548 -1.2208 -1.5514
 9132SOL    HW228240   5.678   1.208   1.390  0.3513  0.7800  0.5155
 9133SOL     OW28241   3.118   6.170   5.563 -0.3935 -0.1187 -0.1572
 9133SOL    HW128242   3.151   6.101   5.620 -3.1281 -0.0583  1.7084
 9133SOL    HW228243   3.157   6.251   5.598  1.5381 -0.4776 -1.3397
 9134SOL     OW28244   2.269   1.166   4.219 -0.1298 -0.0028  0.0577
 9134SOL    HW128245   2.267   1.112   4.140 -1.1340 -0.1517  0.1792
 9134SOL    HW228246   2.203   1.127   4.277  0.0458  0.5750  0.6594
 9135SOL     OW28247   5.996   3.495   0.385  0.0766  0.3486  0.4902
 9135SOL    HW128248   5.919   3.474   0.333  0.0720  0.5753  0.4015
 9135SOL    HW228249   5.965   3.559   0.450 -0.3889 -1.4469  2.1294
 9136SOL     OW28250   6.500   3.348   3.870 -0.4986  0.3439 -0.9082
 9136SOL    HW128251   6.544   3.420   3.916 -0.6884  0.7100 -1.2887
 9136SOL    HW228252   6.460   3.296   3.939  0.2798  0.1736 -0.5764
 9137SOL     OW28253   4.466   4.783   7.542  0.0523 -0.4376 -0.0155
 9137SOL    HW128254   4.546   4.735   7.561 -0.5482 -1.8643 -0.8594
 9137SOL    HW228255   4.474   4.865   7.590  2.5704  0.0163 -1.0964
 9138SOL     OW28256   6.474   7.923   6.332 -0.2529 -0.6096  0.5611
 9138SOL    HW128257   6.482   7.920   6.237  0.5696 -0.0566  0.6045
 9138SOL    HW228258   6.473   7.831   6.359  1.1559 -0.7705  0.1379
 9139SOL     OW28259   2.110   2.246   5.604 -0.5192 -0.1340 -0.2491
 9139SOL    HW128260   2.020   2.274   5.618 -0.3512 -0.1814  1.0478
 9139SOL    HW228261   2.104   2.150   5.598 -0.3589 -0.3030  1.7596
 9140SOL     OW28262   3.470   4.119   6.108 -0.2893  0.0550 -0.1052
 9140SOL    HW128263   3.379   4.131   6.080 -0.1580  0.6830 -0.2914
 9140SOL    HW228264   3.486   4.192   6.169  0.1963  0.1600 -0.3519
 9141SOL     OW28265   0.822   5.420   5.455 -0.4146  0.0295  1.0058
 9141SOL    HW128266   0.799   5.480   5.384 -1.0671  1.4790  2.3800
 9141SOL    HW228267   0.853   5.341   5.411 -0.6168  0.9523 -0.8742
 9142SOL     OW28268   3.351   5.532   4.740  0.1481 -0.2636 -0.3554
 9142SOL    HW128269   3.388   5.570   4.819  0.7497 -1.2367 -0.1573
 9142SOL    HW228270   3.325   5.443   4.765  0.1464 -0.5083 -1.1893
 9143SOL     OW28271   0.043   1.262   4.589  0.2859 -0.5582  0.1260
 9143SOL    HW128272   0.065   1.229   4.676  0.4508 -0.0499  0.2803
 9143SOL    HW228273   0.114   1.323   4.567  0.1906 -0.6012 -0.3191
 9144SOL     OW28274   4.573   0.155   3.793 -0.7318  0.1318  0.0829
 9144SOL    HW128275   4.517   0.097   3.845  1.3834 -1.2535  0.9201
 9144SOL    HW228276   4.615   0.212   3.857  1.2438 -1.0175 -0.0986
 9145SOL     OW28277   2.599   5.155   7.340 -0.3263 -0.4843 -0.3932
 9145SOL    HW128278   2.515   5.141   7.384 -0.8255  1.3651 -0.6667
 9145SOL    HW228279   2.644   5.219   7.396  0.3971 -0.5630 -0.8782
 9146SOL     OW28280   2.599   8.007   0.372  0.5018  0.2289 -0.0464
 9146SOL    HW128281   2.655   7.939   0.335  0.4616 -0.0246  0.3506
 9146SOL    HW228282   2.538   8.029   0.302  2.1364  1.7192 -1.0927
 9147SOL     OW28283   1.433   3.989   7.770  0.7873 -0.6674  0.2224
 9147SOL    HW128284   1.486   4.068   7.766 -0.7727  0.4174 -0.0178
 9147SOL    HW228285   1.385   3.988   7.687 -0.3909 -0.9818  0.8818
 9148SOL     OW28286   6.060   1.541   5.183  0.0690 -0.0347  0.0441
 9148SOL    HW128287   6.089   1.545   5.092  1.0198 -0.6974  0.3031
 9148SOL    HW228288   6.079   1.627   5.219  0.5431 -0.0594 -0.1420
 9149SOL     OW28289   6.753   1.611   1.313 -0.2567  0.5072 -0.0185
 9149SOL    HW128290   6.811   1.688   1.310  1.6209 -0.7992 -3.0759
 9149SOL    HW228291   6.675   1.639   1.266  0.5783  0.5139 -1.4690
 9150SOL     OW28292   6.352   8.101   3.044 -0.0094 -0.3616 -0.0613
 9150SOL    HW128293   6.372   8.134   3.131  1.5487  0.2433 -0.6122
 9150SOL    HW228294   6.372   8.008   3.048  0.4530 -0.2550  0.1178
 9151SOL     OW28295   6.407   2.069   0.775 -0.1071 -0.8448  0.1212
 9151SOL    HW128296   6.317   2.074   0.742  0.0430 -2.3680 -0.6087
 9151SOL    HW228297   6.432   2.160   0.790 -1.7679 -0.3894  0.3545
 9152SOL     OW28298   1.833   5.112   5.743 -0.1991 -0.6822  0.1970
 9152SOL    HW128299   1.827   5.206   5.725  2.4403 -0.5398 -0.4152
 9152SOL    HW228300   1.808   5.070   5.660  1.0572 -0.3845 -0.3653
 9153SOL     OW28301   6.657   7.361   7.335  0.1197  0.0867  0.3756
 9153SOL    HW128302   6.618   7.287   7.288 -0.8273  0.5405  0.4158
 9153SOL    HW228303   6.709   7.407   7.269 -2.3633  1.5648 -0.7271
 9154SOL     OW28304   4.503   6.637   7.545 -0.3062 -0.3147  0.6897
 9154SOL    HW128305   4.430   6.691   7.514  1.0192  0.5860 -1.0285
 9154SOL    HW228306   4.461   6.567   7.595 -2.4517 -0.4981 -1.1970
 9155SOL     OW28307   6.098   0.529   7.918 -0.3387 -0.7061  0.5200
 9155SOL    HW128308   6.098   0.467   7.845  1.1538 -0.5389  0.3519
 9155SOL    HW228309   6.166   0.496   7.977  1.3845  1.3973 -0.1578
 9156SOL     OW28310   2.937   8.021   0.798 -0.2548  0.2234 -0.0824
 9156SOL    HW128311   2.971   8.110   0.785 -0.9182  0.4282 -0.4607
 9156SOL    HW228312   2.996   7.982   0.862 -0.0094  0.9710  0.1558
 9157SOL     OW28313   1.659   1.864   5.668 -0.1449  0.1671 -0.0247
 9157SOL    HW128314   1.566   1.859   5.690  0.1355 -2.3026  0.9786
 9157SOL    HW228315   1.698   1.915   5.738 -0.4738 -0.6022  0.7418
 9158SOL     OW28316   2.950   1.953   6.181  0.0048 -0.0770 -0.1631
 9158SOL    HW128317   2.982   1.904   6.105  1.2523 -0.8242  0.7989
 9158SOL    HW228318   2.890   1.893   6.224  0.0478 -0.0201 -0.0256
 9159SOL     OW28319   2.886   7.762   1.158  0.1412  0.4566 -0.1246
 9159SOL    HW128320   2.887   7.835   1.220  2.0479  2.2957 -2.1104
 9159SOL    HW228321   2.794   7.747   1.140 -0.3202  2.9807 -0.2151
 9160SOL     OW28322   8.069   3.243   6.690 -0.3714 -0.3602  0.0649
 9160SOL    HW128323   8.005   3.221   6.622 -0.2479  0.3588 -0.2986
 9160SOL    HW228324   8.019   3.243   6.771 -0.6445 -0.6465 -0.1015
 9161SOL     OW28325   6.378   3.526   2.476 -0.3242  0.2240 -0.3131
 9161SOL    HW128326   6.422   3.447   2.444 -2.2292 -1.6048  1.2394
 9161SOL    HW228327   6.366   3.580   2.399 -1.0089 -2.0693 -1.9311
 9162SOL     OW28328   1.111   3.566   3.723 -0.5153 -0.1897  0.2031
 9162SOL    HW128329   1.076   3.536   3.639  0.5699  0.2982 -0.4526
 9162SOL    HW228330   1.204   3.545   3.719 -0.3201  0.4579  1.0097
 9163SOL     OW28331   5.479   1.168   3.753 -0.0891 -0.1866  0.4456
 9163SOL    HW128332   5.454   1.178   3.661 -0.1906 -0.9439  0.3874
 9163SOL    HW228333   5.523   1.251   3.775 -0.1233  0.0262 -0.2612
 9164SOL     OW28334   3.017   4.237   7.131  0.3205  0.4978  0.2389
 9164SOL    HW128335   2.968   4.270   7.056 -2.0768  1.7085  2.1743
 9164SOL    HW228336   3.033   4.145   7.110 -0.1999  0.8136 -1.7731
 9165SOL     OW28337   3.248   1.229   2.591  0.5866 -0.7157  0.7411
 9165SOL    HW128338   3.213   1.200   2.675 -1.1552  0.3513  0.4301
 9165SOL    HW228339   3.179   1.207   2.528  0.3077  1.6446  0.1233
 9166SOL     OW28340   1.346   0.549   3.574  0.4005  0.4974 -0.2292
 9166SOL    HW128341   1.301   0.549   3.658  2.5377 -0.7675  1.0016
 9166SOL    HW228342   1.403   0.472   3.576  0.6753  0.5282 -2.7730
 9167SOL     OW28343   3.731   4.281   6.083 -0.4143 -0.0657 -0.2900
 9167SOL    HW128344   3.730   4.320   5.996  0.4665 -0.0756 -0.3126
 9167SOL    HW228345   3.819   4.298   6.116 -0.0443 -1.9075 -0.2422
 9168SOL     OW28346   0.457   0.355   1.607  0.3712  0.4448 -0.0747
 9168SOL    HW128347   0.398   0.290   1.567  2.2007  0.0855 -2.4254
 9168SOL    HW228348   0.402   0.433   1.619 -0.5777  0.2719 -2.5751
 9169SOL     OW28349   8.101   7.509   2.536  0.2250 -0.3412 -0.7818
 9169SOL    HW128350   8.166   7.579   2.524  0.2817  0.1773  1.9876
 9169SOL    HW228351   8.035   7.547   2.594  0.7915 -2.8352  1.6880
 9170SOL     OW28352   3.799   1.935   7.349 -0.6760  0.1049  0.3059
 9170SOL    HW128353   3.826   1.879   7.277 -1.9124  0.7859 -0.7150
 9170SOL    HW228354   3.861   1.914   7.420  0.1039 -1.0918 -0.6906
 9171SOL     OW28355   0.343   6.744   4.802 -0.0128  0.0567  0.3660
 9171SOL    HW128356   0.248   6.757   4.795  0.1621  0.5705 -2.0972
 9171SOL    HW228357   0.353   6.656   4.838 -1.4776 -0.6122 -0.7332
 9172SOL     OW28358   3.960   2.162   3.142 -0.2016  0.2502  0.3838
 9172SOL    HW128359   4.052   2.166   3.170 -0.0231  2.6826 -0.3344
 9172SOL    HW228360   3.927   2.251   3.155 -2.2227 -0.3470 -0.2468
 9173SOL     OW28361   5.747   4.992   5.495 -0.6010  0.2948 -0.0272
 9173SOL    HW128362   5.809   5.009   5.567 -0.6687  0.6474 -0.0497
 9173SOL    HW228363   5.790   5.030   5.418 -0.8199  0.4872 -0.0536
 9174SOL     OW28364   6.469   4.168   4.806  0.1141 -0.1343  0.3785
 9174SOL    HW128365   6.441   4.080   4.829 -2.2444  0.0651 -1.3505
 9174SOL    HW228366   6.389   4.220   4.805  1.3474  1.8945  0.6457
 9175SOL     OW28367   1.822   1.843   0.463 -0.5591 -0.2510  0.1752
 9175SOL    HW128368   1.906   1.887   0.445  0.0157 -1.2070  0.4255
 9175SOL    HW228369   1.806   1.790   0.385 -1.6044  0.9072 -0.4223
 9176SOL     OW28370   7.169   4.602   2.228 -0.4555 -0.5268 -0.4133
 9176SOL    HW128371   7.097   4.654   2.192  0.6768  1.5935  0.1667
 9176SOL    HW228372   7.248   4.655   2.211  0.8479 -2.2761 -0.1318
 9177SOL     OW28373   7.684   1.891   8.212  0.1534 -0.2898  0.3428
 9177SOL    HW128374   7.612   1.900   8.149  0.0051 -0.4827  0.4845
 9177SOL    HW228375   7.725   1.978   8.213  0.0094 -0.2181  0.1565
 9178SOL     OW28376   2.921   3.797   4.544 -0.0872 -0.6162 -0.0339
 9178SOL    HW128377   2.888   3.858   4.610 -6.2563 -1.8404 -1.3277
 9178SOL    HW228378   2.915   3.711   4.586  0.9586 -1.0206 -0.6672
 9179SOL     OW28379   1.731   5.348   7.034  0.1911 -0.4782 -0.7441
 9179SOL    HW128380   1.636   5.344   7.043  0.3184 -1.7249  0.5086
 9179SOL    HW228381   1.762   5.266   7.072  1.7531 -0.2831 -1.5093
 9180SOL     OW28382   6.544   5.444   7.258  0.3301  0.1487 -0.2239
 9180SOL    HW128383   6.595   5.363   7.264 -0.6055 -0.3462  1.6734
 9180SOL    HW228384   6.459   5.417   7.224 -0.3299  0.1418  1.3789
 9181SOL     OW28385   1.150   6.285   0.117  0.0721  0.2807  0.3628
 9181SOL    HW128386   1.219   6.279   0.183  1.7035 -0.5609 -1.3234
 9181SOL    HW228387   1.088   6.215   0.140  1.5723 -1.2419  0.0379
 9182SOL     OW28388   1.444   0.734   1.643 -0.2750  0.1340  0.6469
 9182SOL    HW128389   1.438   0.799   1.713  0.0348  0.8465  0.0249
 9182SOL    HW228390   1.534   0.741   1.611  0.2509 -1.6801  1.5734
 9183SOL     OW28391   7.267   3.358   6.842  0.2072 -0.4286  0.1142
 9183SOL    HW128392   7.249   3.277   6.796 -1.2923 -1.8398  2.8940
 9183SOL    HW228393   7.186   3.408   6.836  0.2649 -0.2811  0.4790
 9184SOL     OW28394   3.588   8.087   3.907 -0.2002  0.0274 -0.1707
 9184SOL    HW128395   3.542   8.120   3.830 -0.1710 -2.3337 -1.2973
 9184SOL    HW228396   3.668   8.048   3.872  0.3089 -0.2092  1.1912
 9185SOL     OW28397   7.577   7.833   3.636 -0.0889 -0.2335 -0.3605
 9185SOL    HW128398   7.652   7.885   3.665  0.6773 -1.0798 -0.7611
 9185SOL    HW228399   7.504   7.865   3.689  0.2034  1.6609 -1.0267
 9186SOL     OW28400   2.761   4.084   0.538 -0.4172 -0.1942 -0.1748
 9186SOL    HW128401   2.706   4.127   0.473 -1.0257 -0.1914  0.3354
 9186SOL    HW228402   2.762   3.992   0.512  0.2233 -0.0206 -0.7998
 9187SOL     OW28403   3.064   7.883   5.366  0.0576 -0.1748 -0.3518
 9187SOL    HW128404   3.073   7.962   5.313  0.5756 -0.2020 -0.3070
 9187SOL    HW228405   2.972   7.857   5.353  0.0171  0.1460 -0.7672
 9188SOL     OW28406   4.968   3.764   6.980  0.2908 -0.6188  0.0065
 9188SOL    HW128407   4.937   3.673   6.976 -0.5826 -0.3213 -0.1911
 9188SOL    HW228408   4.896   3.812   7.021  0.4620  0.1117 -0.5333
 9189SOL     OW28409   2.372   1.241   6.231  0.0955 -0.1156  0.1988
 9189SOL    HW128410   2.310   1.185   6.279  0.0151  0.8463  1.2592
 9189SOL    HW228411   2.425   1.281   6.300  0.1915  1.0626 -0.5515
 9190SOL     OW28412   1.502   3.612   0.861  0.6173  0.0666  0.3004
 9190SOL    HW128413   1.496   3.693   0.912 -1.7008 -0.1424  0.4883
 9190SOL    HW228414   1.559   3.555   0.911  0.1848  0.6754  1.5186
 9191SOL     OW28415   4.405   0.690   3.820 -0.1565  0.4060  0.2660
 9191SOL    HW128416   4.355   0.770   3.801 -0.2679 -0.0261 -1.3454
 9191SOL    HW228417   4.497   0.716   3.807 -0.1891  0.2849 -0.2054
 9192SOL     OW28418   4.573   2.910   6.079 -0.3871  0.2082 -0.1645
 9192SOL    HW128419   4.562   2.923   6.173  0.3509  0.7777 -0.1427
 9192SOL    HW228420   4.513   2.972   6.039 -1.6003 -0.8878 -0.0849
 9193SOL     OW28421   2.475   0.613   1.269 -0.0273 -0.5112 -0.0672
 9193SOL    HW128422   2.417   0.681   1.232  0.9507  1.9380  2.5363
 9193SOL    HW228423   2.558   0.625   1.223  0.3746  0.6784  0.9051
 9194SOL     OW28424   2.602   4.612   5.687 -0.3347 -0.5812  0.1732
 9194SOL    HW128425   2.664   4.645   5.751 -1.7594  0.7498  0.9366
 9194SOL    HW228426   2.652   4.607   5.605  0.8259  0.2150  0.8013
 9195SOL     OW28427   6.791   4.646   1.865 -0.1578  0.1879  0.9801
 9195SOL    HW128428   6.779   4.739   1.843  2.2325  0.4265  0.4739
 9195SOL    HW228429   6.709   4.622   1.909 -0.0637  3.0806  3.0419
 9196SOL     OW28430   2.321   7.537   6.943  0.0498  0.2572  0.4910
 9196SOL    HW128431   2.349   7.621   6.907  0.6804  0.5876  1.7120
 9196SOL    HW228432   2.282   7.558   7.028  0.4605 -0.7116  0.9351
 9197SOL     OW28433   6.605   5.357   0.896 -0.0169  0.3561  0.6559
 9197SOL    HW128434   6.626   5.439   0.940 -0.2100  0.8095 -0.0871
 9197SOL    HW228435   6.638   5.368   0.807 -1.2092  0.1433  0.1685
 9198SOL     OW28436   6.982   1.747   1.303 -0.6073 -0.2661  0.3860
 9198SOL    HW128437   7.051   1.681   1.290 -2.9454 -2.9930  0.8075
 9198SOL    HW228438   6.996   1.779   1.392  1.4458  1.0449 -0.3228
 9199SOL     OW28439   4.390   3.095   0.747 -0.6997 -0.3624 -0.2986
 9199SOL    HW128440   4.377   3.002   0.728  1.2335 -1.1014  1.4803
 9199SOL    HW228441   4.449   3.126   0.678  0.6900 -1.1805  0.4622
 9200SOL     OW28442   7.824   6.900   5.865  0.7484  0.5265  0.5789
 9200SOL    HW128443   7.912   6.936   5.855 -0.3760  3.5533  0.7215
 9200SOL    HW228444   7.792   6.892   5.775  1.2603 -1.0423  0.4954
 9201SOL     OW28445   1.516   5.208   7.390 -0.7179 -0.4268  0.0681
 9201SOL    HW128446   1.525   5.280   7.327  0.1141  0.2246  0.9007
 9201SOL    HW228447   1.576   5.231   7.461 -1.5423 -1.1992  1.0466
 9202SOL     OW28448   5.520   0.762   7.596 -0.6517  0.5182  0.3303
 9202SOL    HW128449   5.557   0.694   7.653  0.3481  1.5680  0.9688
 9202SOL    HW228450   5.577   0.763   7.519 -0.6772  0.6273  0.3120
 9203SOL     OW28451   4.561   3.564   5.518  0.2860  0.2702 -0.4624
 9203SOL    HW128452   4.581   3.471   5.507  0.2976  0.1407  0.5463
 9203SOL    HW228453   4.644   3.603   5.549  0.2335  0.5861 -0.7110
 9204SOL     OW28454   7.447   4.227   0.041  0.1419 -0.1774  0.1362
 9204SOL    HW128455   7.452   4.311   0.086  0.1146 -0.3657  0.4913
 9204SOL    HW228456   7.511   4.171   0.086 -0.8252 -0.7662  0.7969
 9205SOL     OW28457   0.021   1.025   6.441 -0.3919 -0.2567 -0.1916
 9205SOL    HW128458   0.019   1.118   6.464 -1.7927 -0.2178 -0.3889
 9205SOL    HW228459  -0.025   0.981   6.513 -1.0302 -0.6211 -0.8112
 9206SOL     OW28460   2.350   4.387   1.024 -0.3831  0.5994  0.2416
 9206SOL    HW128461   2.426   4.425   0.979  0.1545  1.1809  1.5722
 9206SOL    HW228462   2.378   4.299   1.049 -0.5704  0.3905 -0.2778
 9207SOL     OW28463   1.435   2.047   7.906 -0.0742 -0.5909  0.0186
 9207SOL    HW128464   1.385   2.013   7.980 -0.5677  1.4035  0.6905
 9207SOL    HW228465   1.399   2.002   7.830 -1.6337 -0.5751  0.7013
 9208SOL     OW28466   6.837   7.430   6.235  0.2705  0.1501  0.3723
 9208SOL    HW128467   6.926   7.449   6.263 -0.0848  3.5462 -0.3955
 9208SOL    HW228468   6.790   7.512   6.246 -3.2249 -1.8230  2.1115
 9209SOL     OW28469   0.300   1.758   5.105  0.0997  0.1976 -0.3638
 9209SOL    HW128470   0.270   1.720   5.023  0.1908 -2.2082  0.6524
 9209SOL    HW228471   0.396   1.756   5.098  0.1235 -0.6559  0.0383
 9210SOL     OW28472   3.171   7.536   1.415 -0.3312  0.6754  0.2871
 9210SOL    HW128473   3.123   7.501   1.490 -0.8038 -0.0539 -0.3467
 9210SOL    HW228474   3.259   7.502   1.424 -0.7574 -0.6396 -0.2659
 9211SOL     OW28475   8.174   1.457   6.701  0.4055  0.4811 -0.5726
 9211SOL    HW128476   8.196   1.453   6.794  1.2144 -0.1690 -0.7766
 9211SOL    HW228477   8.171   1.550   6.680  0.4957  0.6239  0.0474
 9212SOL     OW28478   7.476   0.331   6.540  0.3406 -0.6283 -0.1021
 9212SOL    HW128479   7.411   0.325   6.611  1.7319 -1.1160  1.1818
 9212SOL    HW228480   7.439   0.277   6.470 -1.5790  0.7105 -0.2179
 9213SOL     OW28481   5.414   3.757   5.136  0.3596  0.1580 -0.4523
 9213SOL    HW128482   5.382   3.668   5.152  1.5221 -0.3360 -0.7045
 9213SOL    HW228483   5.416   3.797   5.223 -0.5421  0.0770 -0.3885
 9214SOL     OW28484   3.500   3.179   5.884  0.0475  0.5105 -0.0012
 9214SOL    HW128485   3.580   3.205   5.837 -1.7765  2.4680 -2.2938
 9214SOL    HW228486   3.486   3.088   5.857  1.1250  0.3624 -0.1227
 9215SOL     OW28487   4.135   8.023   3.605  0.3236 -0.4750 -0.2804
 9215SOL    HW128488   4.166   8.067   3.684  1.4706  0.5987 -1.2990
 9215SOL    HW228489   4.186   8.062   3.534 -0.5462 -1.5553 -1.5363
 9216SOL     OW28490   8.058   7.692   4.961 -0.0429 -0.3875 -0.0484
 9216SOL    HW128491   8.149   7.698   4.992 -0.0559 -0.8031  0.0751
 9216SOL    HW228492   8.046   7.600   4.939 -0.6239 -0.4515  0.5167
 9217SOL     OW28493   2.691   7.439   3.530  0.1258  0.1589 -0.7503
 9217SOL    HW128494   2.702   7.450   3.624  0.6871 -1.4498 -0.5895
 9217SOL    HW228495   2.598   7.415   3.520  0.0175  0.5289 -0.6247
 9218SOL     OW28496   6.060   7.737   1.540  0.4377  0.1158 -0.0554
 9218SOL    HW128497   6.097   7.746   1.628 -0.0092  2.0285 -0.0359
 9218SOL    HW228498   5.970   7.709   1.555  0.0774  1.3552  0.1493
 9219SOL     OW28499   6.867   1.216   3.383  0.3210  0.4152 -0.4052
 9219SOL    HW128500   6.841   1.298   3.425  0.1875  0.1967 -0.0619
 9219SOL    HW228501   6.866   1.237   3.289 -1.4200  0.3444 -0.4421
 9220SOL     OW28502   2.399   8.105   4.191  0.2774  0.1536  0.2408
 9220SOL    HW128503   2.348   8.184   4.210  2.7077  2.0113 -0.5284
 9220SOL    HW228504   2.340   8.033   4.214 -2.9836  2.0811 -1.3504
 9221SOL     OW28505   1.577   3.811   4.019 -0.3216  0.0966  0.1525
 9221SOL    HW128506   1.555   3.897   3.983 -1.2353 -0.6420 -1.1361
 9221SOL    HW228507   1.673   3.809   4.019 -0.2822  1.2849  0.6474
 9222SOL     OW28508   1.826   4.772   3.520 -1.0920  0.0997 -0.0009
 9222SOL    HW128509   1.822   4.700   3.457  0.4049 -0.7109  0.7683
 9222SOL    HW228510   1.844   4.850   3.466  5.5088 -1.1898 -0.5620
 9223SOL     OW28511   7.648   4.589   3.370 -0.5347  0.0987 -0.1062
 9223SOL    HW128512   7.641   4.530   3.445  0.0951 -0.3817 -0.4103
 9223SOL    HW228513   7.703   4.541   3.308  0.4700  1.2562 -0.1350
 9224SOL     OW28514   6.388   1.917   0.260  0.5801 -0.4465 -0.1131
 9224SOL    HW128515   6.363   2.004   0.229  0.4635 -0.2766  0.4329
 9224SOL    HW228516   6.484   1.918   0.261  0.5835 -0.4656 -0.4924
 9225SOL     OW28517   0.919   7.588   4.691  0.1305 -0.4013 -0.0460
 9225SOL    HW128518   0.875   7.571   4.608  0.2653  1.3891 -0.5410
 9225SOL    HW228519   0.952   7.678   4.681  0.8197 -0.4459  1.6523
 9226SOL     OW28520   7.568   1.100   0.276  0.4466  0.1863  0.2669
 9226SOL    HW128521   7.586   1.156   0.201 -2.8551  2.7641  1.1574
 9226SOL    HW228522   7.646   1.108   0.331  2.0322 -0.0594 -1.8211
 9227SOL     OW28523   5.128   3.809   2.102  0.2089 -0.1896 -0.0424
 9227SOL    HW128524   5.093   3.852   2.180 -0.1122 -0.2808 -0.1330
 9227SOL    HW228525   5.196   3.751   2.135  0.5274  0.2570  0.0995
 9228SOL     OW28526   7.522   3.451   7.328 -0.1499  0.0498  0.0221
 9228SOL    HW128527   7.545   3.377   7.271  1.4626  0.6573 -0.1781
 9228SOL    HW228528   7.458   3.415   7.389  0.6564 -1.5466 -0.0124
 9229SOL     OW28529   3.399   5.677   2.370  0.3923 -0.4489 -0.1872
 9229SOL    HW128530   3.371   5.724   2.449  1.8782  0.8029 -0.3536
 9229SOL    HW228531   3.429   5.746   2.311  0.0594 -1.4286 -1.5485
 9230SOL     OW28532   3.782   2.676   3.380 -0.2108 -0.2593  0.1563
 9230SOL    HW128533   3.862   2.670   3.432  0.5896  0.9571 -0.8902
 9230SOL    HW228534   3.782   2.597   3.327  0.1638 -0.3860  0.3385
 9231SOL     OW28535   2.153   6.938   2.486 -0.0758 -0.1959 -0.0791
 9231SOL    HW128536   2.060   6.937   2.462  0.0072 -1.3230 -0.4028
 9231SOL    HW228537   2.182   6.848   2.473  0.9550  0.0421  0.4747
 9232SOL     OW28538   2.443   4.676   2.100 -0.1073  0.8401  0.7734
 9232SOL    HW128539   2.398   4.618   2.162 -1.7732 -0.7226 -1.7126
 9232SOL    HW228540   2.508   4.619   2.058  0.0502  1.4884  0.1255
 9233SOL     OW28541   4.670   6.404   1.237  0.4318 -0.1735 -0.0912
 9233SOL    HW128542   4.726   6.472   1.275 -0.5470  0.9207 -0.5264
 9233SOL    HW228543   4.591   6.404   1.292 -0.2099  0.1215 -0.9826
 9234SOL     OW28544   0.478   1.187   7.148  0.4656 -0.6397  0.0007
 9234SOL    HW128545   0.442   1.132   7.218  2.7087  0.5748  2.2637
 9234SOL    HW228546   0.415   1.259   7.140  0.5755 -0.3400  1.4476
 9235SOL     OW28547   2.831   2.451   7.234 -0.1450 -0.4925  0.5907
 9235SOL    HW128548   2.906   2.499   7.201 -0.2749 -0.9328 -0.3925
 9235SOL    HW228549   2.768   2.453   7.162 -1.5017  0.7334  1.7403
 9236SOL     OW28550   6.274   5.547   5.153  0.4165  0.5665 -0.2807
 9236SOL    HW128551   6.311   5.634   5.140 -0.1306  1.0183  1.0886
 9236SOL    HW228552   6.201   5.560   5.213 -2.9181 -0.0824 -3.7711
 9237SOL     OW28553   1.572   0.398   0.004  0.1685 -0.2344  0.2518
 9237SOL    HW128554   1.641   0.332   0.008  0.6016  0.2603  1.4874
 9237SOL    HW228555   1.534   0.399   0.092  0.1841  1.1602  0.2758
 9238SOL     OW28556   6.989   8.077   3.107  0.0348  0.1589 -0.5728
 9238SOL    HW128557   7.034   8.140   3.163  1.2082 -0.6702 -0.5475
 9238SOL    HW228558   6.955   8.011   3.168 -1.3518  0.8285 -0.5814
 9239SOL     OW28559   2.789   1.162   4.049 -0.3613 -0.6851 -0.1464
 9239SOL    HW128560   2.709   1.129   4.090  0.6343 -2.1622  0.7619
 9239SOL    HW228561   2.821   1.228   4.110  0.4127 -1.9333  0.8798
 9240SOL     OW28562   5.987   1.604   6.430  0.1832 -0.3381 -0.1950
 9240SOL    HW128563   6.011   1.512   6.422 -2.2898 -1.0749 -0.0205
 9240SOL    HW228564   5.972   1.617   6.524 -0.8411 -0.1823 -0.3640
 9241SOL     OW28565   0.872   3.080   7.512  0.2340  0.3819 -0.0380
 9241SOL    HW128566   0.779   3.070   7.534  0.0419 -1.3678 -1.4233
 9241SOL    HW228567   0.876   3.160   7.460 -0.6891 -0.0850 -0.8485
 9242SOL     OW28568   3.970   3.238   0.221  0.3471 -0.4312  0.1987
 9242SOL    HW128569   3.993   3.191   0.302  0.7296 -0.2964  0.1711
 9242SOL    HW228570   4.053   3.248   0.175  0.6303  1.9278  1.0830
 9243SOL     OW28571   7.906   4.900   1.320 -0.1311 -0.0788 -0.2470
 9243SOL    HW128572   8.001   4.909   1.311  0.0571 -0.9298  0.6739
 9243SOL    HW228573   7.888   4.809   1.294 -0.6179 -0.0788  0.0818
 9244SOL     OW28574   4.557   6.390   6.861  0.0579 -0.4651 -0.9165
 9244SOL    HW128575   4.538   6.439   6.780  1.4867 -3.7457 -3.4841
 9244SOL    HW228576   4.477   6.339   6.876 -0.9134  1.4432  0.9749
 9245SOL     OW28577   2.333   4.825   3.478  0.2700  0.0836 -0.0044
 9245SOL    HW128578   2.253   4.839   3.426  0.1634 -0.4521  0.0120
 9245SOL    HW228579   2.311   4.859   3.565 -1.0745 -2.8715  0.9420
 9246SOL     OW28580   7.141   7.275   4.614 -0.5149  0.2328 -0.0946
 9246SOL    HW128581   7.113   7.208   4.676  0.5593 -1.9925 -1.8732
 9246SOL    HW228582   7.153   7.228   4.531  0.5567  2.5795 -1.3804
 9247SOL     OW28583   0.151   3.824   3.370  0.5416  0.0950 -0.6941
 9247SOL    HW128584   0.231   3.772   3.365  0.9833  0.6947 -0.0201
 9247SOL    HW228585   0.080   3.760   3.363  1.0746 -0.6626  0.5931
 9248SOL     OW28586   6.744   7.371   0.183  0.2017  0.4826  0.0720
 9248SOL    HW128587   6.651   7.366   0.158  0.0774  0.1817  0.5778
 9248SOL    HW228588   6.785   7.298   0.138 -0.1803 -0.5775  1.3840
 9249SOL     OW28589   4.659   7.031   1.747 -0.1532  0.1130 -0.3460
 9249SOL    HW128590   4.650   7.032   1.842 -4.1613 -0.1057 -0.5818
 9249SOL    HW228591   4.680   7.122   1.725  1.5042  0.0330  0.7119
 9250SOL     OW28592   7.156   4.921   7.982 -0.1824 -0.4473 -0.2064
 9250SOL    HW128593   7.168   4.954   7.893 -0.6072 -0.5741 -0.3165
 9250SOL    HW228594   7.128   4.830   7.970 -0.3475 -0.4330  0.0501
 9251SOL     OW28595   0.904   6.186   4.859  0.2976 -0.2701 -0.3339
 9251SOL    HW128596   0.844   6.142   4.919  0.0917 -0.1783 -0.4697
 9251SOL    HW228597   0.859   6.267   4.835  0.2007 -0.4935 -0.9186
 9252SOL     OW28598   7.012   1.979   7.192 -0.2255  0.5288 -0.0632
 9252SOL    HW128599   7.051   1.922   7.125  0.4083 -0.0150  0.7510
 9252SOL    HW228600   7.086   2.029   7.227 -0.3901  0.1269  0.8857
 9253SOL     OW28601   0.615   5.950   7.119  0.5138 -0.0112 -0.6159
 9253SOL    HW128602   0.688   5.994   7.162  0.1673  0.2872 -0.3256
 9253SOL    HW228603   0.640   5.946   7.027  1.2076 -0.5444 -0.4107
 9254SOL     OW28604   2.004   4.935   7.242 -0.6071 -0.3782  0.0272
 9254SOL    HW128605   2.022   4.893   7.326  1.2674  1.1283  0.4493
 9254SOL    HW228606   1.941   5.004   7.263  1.0312  1.0301  0.5796
 9255SOL     OW28607   2.960   2.146   7.974 -0.2182 -0.4204 -0.2431
 9255SOL    HW128608   2.954   2.226   8.027  1.2096 -0.5559  0.1662
 9255SOL    HW228609   3.048   2.113   7.990 -1.4506 -3.2859  1.2515
 9256SOL     OW28610   7.344   7.036   6.983  0.0893 -0.1940  0.5431
 9256SOL    HW128611   7.377   6.967   7.041  0.2263  0.0661  0.7823
 9256SOL    HW228612   7.392   7.023   6.901 -2.7591 -2.8745 -0.8589
 9257SOL     OW28613   8.060   6.228   3.102  0.4042 -0.1203 -0.7202
 9257SOL    HW128614   8.009   6.301   3.138 -0.7836 -0.9475 -0.6775
 9257SOL    HW228615   8.151   6.258   3.108 -0.1041  1.8121 -1.7584
 9258SOL     OW28616   2.933   6.160   7.371  0.0813  0.1323  0.1290
 9258SOL    HW128617   2.998   6.101   7.333 -0.5332 -0.8039  0.5063
 9258SOL    HW228618   2.881   6.190   7.296  3.1540  3.9110 -0.8449
 9259SOL     OW28619   4.606   7.408   5.532 -0.1710 -0.0488 -0.0704
 9259SOL    HW128620   4.678   7.349   5.509 -0.3905  0.1393 -1.2795
 9259SOL    HW228621   4.636   7.451   5.612  0.4363 -1.0273  0.2556
 9260SOL     OW28622   7.259   2.509   0.555 -0.0445 -0.0053 -0.2765
 9260SOL    HW128623   7.210   2.427   0.560  0.3097 -0.1519  1.0764
 9260SOL    HW228624   7.345   2.488   0.592 -0.1578  1.1164  0.6747
 9261SOL     OW28625   4.589   0.630   0.356 -0.3023  0.3610  0.1998
 9261SOL    HW128626   4.575   0.545   0.398 -0.0603  0.2942  0.1462
 9261SOL    HW228627   4.509   0.646   0.306 -0.8154  0.6899  1.1176
 9262SOL     OW28628   1.462   2.828   1.462  0.0218 -0.4904 -0.0121
 9262SOL    HW128629   1.373   2.830   1.428 -0.0221 -1.5095  0.0089
 9262SOL    HW228630   1.460   2.761   1.530  1.0096 -1.1843 -0.6436
 9263SOL     OW28631   0.263   5.500   4.923 -0.8778 -0.5508  0.2947
 9263SOL    HW128632   0.241   5.554   4.999  1.9463 -0.1899  0.9505
 9263SOL    HW228633   0.259   5.560   4.849 -2.1807 -0.5539  0.3446
 9264SOL     OW28634   1.184   6.292   2.822 -1.3038 -0.3022 -0.3515
 9264SOL    HW128635   1.101   6.308   2.776 -1.4644 -1.0212 -0.3247
 9264SOL    HW228636   1.252   6.320   2.761 -1.5430 -0.4256 -0.6760
 9265SOL     OW28637   4.573   2.240   0.692 -0.6733  0.0448 -0.2320
 9265SOL    HW128638   4.625   2.184   0.749 -0.8368 -0.3379 -0.4532
 9265SOL    HW228639   4.483   2.213   0.708 -0.8251  0.8359  0.2916
 9266SOL     OW28640   3.529   5.935   5.567 -0.2036 -0.3927  0.3817
 9266SOL    HW128641   3.535   5.941   5.472 -0.2811  0.2132  0.4157
 9266SOL    HW228642   3.483   5.852   5.583 -1.6938  0.3137 -0.1472
 9267SOL     OW28643   7.412   0.113   1.495  0.0229 -0.1879  0.1424
 9267SOL    HW128644   7.381   0.024   1.511  1.5103 -0.6489  0.6275
 9267SOL    HW228645   7.411   0.122   1.400 -0.8484 -0.4409  0.1191
 9268SOL     OW28646   7.476   4.945   3.194 -0.1479  0.2397 -0.3751
 9268SOL    HW128647   7.537   4.952   3.267 -1.2365  0.3561  0.5466
 9268SOL    HW228648   7.464   4.851   3.181  1.4831  0.1785 -1.6586
 9269SOL     OW28649   0.285   3.568   0.437 -0.6293  0.2931 -0.5824
 9269SOL    HW128650   0.338   3.540   0.511 -0.6621 -3.1397 -1.6987
 9269SOL    HW228651   0.329   3.647   0.405  0.1548  1.0912  2.1867
 9270SOL     OW28652   2.467   5.124   3.574 -0.2706  0.3423  0.6258
 9270SOL    HW128653   2.552   5.125   3.530 -0.4206  0.0942  0.3263
 9270SOL    HW228654   2.404   5.135   3.503 -0.5058  0.1599  0.8073
 9271SOL     OW28655   2.885   2.623   6.340  0.2806 -0.8391 -0.7319
 9271SOL    HW128656   2.870   2.624   6.246 -1.8818 -1.0684 -0.4494
 9271SOL    HW228657   2.975   2.591   6.350  0.8332 -0.0402 -2.7115
 9272SOL     OW28658   1.810   1.232   7.333  0.4695  0.0665  0.0142
 9272SOL    HW128659   1.865   1.211   7.258  1.5501  3.2112 -0.2447
 9272SOL    HW228660   1.724   1.249   7.296  0.7384  0.5895 -0.3822
 9273SOL     OW28661   7.057   6.377   6.835  0.6120 -0.2130 -0.1524
 9273SOL    HW128662   6.989   6.312   6.856  1.5979 -1.6807 -1.3406
 9273SOL    HW228663   7.011   6.461   6.842 -0.6547 -0.9691  1.6373
 9274SOL     OW28664   0.670   5.887   1.255  0.4051 -0.2427  0.1221
 9274SOL    HW128665   0.656   5.933   1.338  1.2586  2.0743 -0.9188
 9274SOL    HW228666   0.624   5.940   1.190 -0.4093 -2.1221 -0.9063
 9275SOL     OW28667   7.364   0.754   7.048 -0.2216  0.2908  0.5230
 9275SOL    HW128668   7.313   0.699   6.987 -1.6128  1.4490  0.6002
 9275SOL    HW228669   7.448   0.708   7.056 -1.6683 -2.3916  1.4057
 9276SOL     OW28670   0.744   7.176   4.079  0.5964 -0.3561  0.4664
 9276SOL    HW128671   0.684   7.212   4.143 -0.9169 -0.9301 -0.5828
 9276SOL    HW228672   0.714   7.086   4.065  2.8815 -1.3333  1.3374
 9277SOL     OW28673   0.687   0.738   6.417 -0.3211  0.3059 -0.3138
 9277SOL    HW128674   0.757   0.752   6.354  0.1940  2.1970  0.6203
 9277SOL    HW228675   0.692   0.813   6.476 -3.6418  0.9762 -0.6715
 9278SOL     OW28676   6.573   1.936   6.524 -0.4643 -0.0295  0.1388
 9278SOL    HW128677   6.620   1.870   6.573 -1.0578  0.1619  0.9940
 9278SOL    HW228678   6.638   2.004   6.505 -0.0238 -0.5223 -0.1361
 9279SOL     OW28679   6.840   4.819   4.570  0.1023  0.0397  0.1105
 9279SOL    HW128680   6.808   4.906   4.597 -0.3031  0.4469 -1.5978
 9279SOL    HW228681   6.899   4.793   4.641  0.1667  1.6733  0.6994
 9280SOL     OW28682   0.692   4.407   5.470  0.1070 -0.4755  0.4197
 9280SOL    HW128683   0.599   4.387   5.468  0.1009 -0.4758  0.7299
 9280SOL    HW228684   0.729   4.345   5.533 -0.0195  0.9052  1.9172
 9281SOL     OW28685   7.758   0.279   6.910  0.3589 -0.0805 -0.2491
 9281SOL    HW128686   7.778   0.271   6.817  0.0495  1.2383 -0.4470
 9281SOL    HW228687   7.826   0.338   6.944  0.8909 -1.1051  0.5212
 9282SOL     OW28688   4.763   3.670   5.648  0.1968 -0.2281  0.0701
 9282SOL    HW128689   4.795   3.592   5.693 -0.2241  0.0553  0.8801
 9282SOL    HW228690   4.776   3.741   5.712  0.3298  0.3193 -0.5565
 9283SOL     OW28691   3.920   5.487   5.781  0.2191  0.2915  0.3759
 9283SOL    HW128692   3.854   5.488   5.851  0.6302 -1.4588  0.8414
 9283SOL    HW228693   3.970   5.567   5.795 -0.3112  0.4615  1.4994
 9284SOL     OW28694   7.547   6.402   4.632  0.8320  0.5205  0.3125
 9284SOL    HW128695   7.543   6.332   4.696 -2.7785 -0.5691 -0.8576
 9284SOL    HW228696   7.586   6.362   4.554  0.5379  0.3499  0.2514
 9285SOL     OW28697   1.113   7.176   5.521 -0.0173 -0.0507  0.8933
 9285SOL    HW128698   1.122   7.114   5.594  0.4563 -0.6356  0.3516
 9285SOL    HW228699   1.139   7.126   5.444  0.5513  0.8786  0.4606
 9286SOL     OW28700   4.201   7.359   5.776 -0.1227 -0.5829 -0.1451
 9286SOL    HW128701   4.170   7.355   5.867 -0.1460 -0.3797 -0.1441
 9286SOL    HW228702   4.185   7.449   5.749  1.8093 -0.0619  0.3327
 9287SOL     OW28703   6.842   3.731   0.235 -0.3347  0.1780  0.2781
 9287SOL    HW128704   6.925   3.776   0.250 -0.4570 -0.0392  1.7243
 9287SOL    HW228705   6.781   3.800   0.209 -0.2795  0.7316  1.5446
 9288SOL     OW28706   7.491   5.810   5.258 -0.1731 -0.1335 -0.8104
 9288SOL    HW128707   7.476   5.747   5.329  0.9437 -2.1615 -2.2408
 9288SOL    HW228708   7.461   5.894   5.293 -3.3573 -1.6860  0.6345
 9289SOL     OW28709   3.797   2.368   0.573  0.2618 -0.0553 -0.7696
 9289SOL    HW128710   3.712   2.361   0.616 -0.4291 -0.2240 -2.1086
 9289SOL    HW228711   3.783   2.432   0.503  1.5490  0.7842 -0.3004
 9290SOL     OW28712   6.540   2.922   7.836 -0.2251  0.2552  0.3238
 9290SOL    HW128713   6.634   2.939   7.837 -0.5098  1.8866  0.6395
 9290SOL    HW228714   6.500   3.003   7.804 -1.6535  0.3140  2.0501
 9291SOL     OW28715   2.889   5.262   6.505 -0.2646  0.1348 -0.6730
 9291SOL    HW128716   2.929   5.269   6.591 -2.7708 -3.5491  1.0450
 9291SOL    HW228717   2.807   5.310   6.513 -1.0115 -1.1068 -0.5403
 9292SOL     OW28718   5.986   3.715   5.951 -0.1050 -0.5890  0.7364
 9292SOL    HW128719   5.952   3.690   5.865  1.5692  0.5214 -0.2871
 9292SOL    HW228720   5.996   3.632   5.998  0.4244 -1.3682 -0.7033
 9293SOL     OW28721   7.464   1.140   4.445  0.0208  0.2008 -0.5637
 9293SOL    HW128722   7.491   1.200   4.515 -1.2018  0.1128  0.0141
 9293SOL    HW228723   7.495   1.182   4.365  1.9312  0.0309  0.0387
 9294SOL     OW28724   1.917   0.962   6.272  0.4067  0.2172  0.1035
 9294SOL    HW128725   1.925   0.868   6.289  0.3440  0.1663 -0.1437
 9294SOL    HW228726   1.831   0.972   6.231  0.9310  0.2151 -1.0238
 9295SOL     OW28727   1.522   6.479   1.678 -0.2114 -0.1398 -0.3125
 9295SOL    HW128728   1.510   6.572   1.657  0.5061  0.0536  0.0907
 9295SOL    HW228729   1.468   6.464   1.755  1.2356  0.4620  0.8618
 9296SOL     OW28730   7.895   2.817   8.067  0.1073 -0.6651 -0.5813
 9296SOL    HW128731   7.804   2.813   8.097 -0.2987 -0.7955 -1.7894
 9296SOL    HW228732   7.895   2.770   7.983  0.7848  1.4069 -1.8087
 9297SOL     OW28733   1.696   5.962   6.431  0.8220  0.1137  0.0931
 9297SOL    HW128734   1.723   6.032   6.371 -1.1018 -0.6732 -1.8148
 9297SOL    HW228735   1.685   6.006   6.515  1.4312  1.7328 -0.6304
 9298SOL     OW28736   3.020   5.919   5.426  0.9326 -0.1536 -0.7415
 9298SOL    HW128737   3.020   5.894   5.518  0.5944 -0.9083 -0.9403
 9298SOL    HW228738   2.972   6.002   5.424 -0.2281 -0.7839 -0.4002
 9299SOL     OW28739   3.795   0.966   1.782 -0.0811 -0.1607  0.0988
 9299SOL    HW128740   3.859   1.037   1.780  0.3646 -0.5735 -1.2536
 9299SOL    HW228741   3.710   1.010   1.785  0.1902  0.4478 -0.8571
 9300SOL     OW28742   4.207   0.878   5.050  0.0308 -0.3408  0.2381
 9300SOL    HW128743   4.130   0.909   5.100 -0.2658 -2.0265  0.8910
 9300SOL    HW228744   4.170   0.819   4.985  0.8435 -2.4137  1.5644
 9301SOL     OW28745   5.223   3.876   0.746  0.5079 -0.4782  0.4135
 9301SOL    HW128746   5.268   3.956   0.774 -1.2061  0.3813  0.8648
 9301SOL    HW228747   5.213   3.886   0.652  0.8596 -0.4566  0.3785
 9302SOL     OW28748   0.066   6.525   8.104  0.0557 -0.1711 -0.0992
 9302SOL    HW128749   0.016   6.490   8.031  1.0462  0.2972 -1.0271
 9302SOL    HW228750   0.099   6.448   8.150  0.7444 -0.4741 -1.0823
 9303SOL     OW28751   1.235   7.094   0.889 -0.4608  0.2020  0.1650
 9303SOL    HW128752   1.207   7.013   0.847  1.1432  0.2846 -1.1298
 9303SOL    HW228753   1.166   7.157   0.869 -1.8207 -0.8276  1.3411
 9304SOL     OW28754   1.718   0.018   7.239  0.4230  0.1755 -0.2661
 9304SOL    HW128755   1.625   0.021   7.263  0.6792  0.6675  0.6935
 9304SOL    HW228756   1.717   0.015   7.143 -0.6179 -1.5730 -0.2632
 9305SOL     OW28757   7.510   4.362   7.543  0.7233  0.0653  0.3003
 9305SOL    HW128758   7.504   4.429   7.475  0.1672  0.4535  0.7207
 9305SOL    HW228759   7.476   4.404   7.622 -2.8657 -1.6556 -0.1272
 9306SOL     OW28760   2.019   5.911   1.375  0.0654  0.4029  0.5910
 9306SOL    HW128761   2.026   5.842   1.441 -0.1832  0.3319  0.5444
 9306SOL    HW228762   1.999   5.990   1.426  0.7303  0.5137  0.6788
 9307SOL     OW28763   2.571   6.512   3.532  0.2058 -0.3949  0.2478
 9307SOL    HW128764   2.651   6.498   3.481  1.6494 -0.2122  2.3348
 9307SOL    HW228765   2.534   6.593   3.497  2.3494  0.9374  0.8816
 9308SOL     OW28766   3.625   3.999   5.884 -0.5236  0.3484 -0.1808
 9308SOL    HW128767   3.585   4.044   5.959  2.5561  1.0965  1.1816
 9308SOL    HW228768   3.673   4.068   5.838  1.3105 -0.8815 -0.2026
 9309SOL     OW28769   1.153   4.686   5.333 -0.2157 -0.5727  0.0606
 9309SOL    HW128770   1.072   4.703   5.284 -0.0202  0.0888 -0.0489
 9309SOL    HW228771   1.140   4.731   5.417  0.3108  0.1530 -0.2334
 9310SOL     OW28772   4.207   2.525   7.317 -0.1164  0.5789 -0.0007
 9310SOL    HW128773   4.206   2.459   7.385 -0.8196  1.3054  0.7119
 9310SOL    HW228774   4.137   2.500   7.257 -0.3843  0.6706  0.2702
 9311SOL     OW28775   0.126   5.025   3.858  0.2801  0.2370  0.1049
 9311SOL    HW128776   0.035   5.044   3.834  0.2122  0.1843  0.3148
 9311SOL    HW228777   0.126   5.029   3.954  0.5959  0.6603  0.0888
 9312SOL     OW28778   6.124   3.466   2.985 -0.0450 -0.3443 -0.4165
 9312SOL    HW128779   6.205   3.428   2.953  0.6496  2.4380 -2.2962
 9312SOL    HW228780   6.078   3.496   2.907 -1.6275  0.4858  0.7628
 9313SOL     OW28781   5.505   4.021   2.500  0.0653 -0.3679 -0.3788
 9313SOL    HW128782   5.517   4.114   2.520  0.6419 -0.6927  0.8887
 9313SOL    HW228783   5.520   4.014   2.405 -1.6298  1.0774 -0.7949
 9314SOL     OW28784   5.670   6.979   7.305  0.2672  0.4153 -0.1058
 9314SOL    HW128785   5.644   6.906   7.250  0.3653  2.0779 -2.4904
 9314SOL    HW228786   5.587   7.018   7.335  0.1151  1.0620 -1.3004
 9315SOL     OW28787   5.287   6.115   4.543  0.6494 -0.1518 -0.0519
 9315SOL    HW128788   5.332   6.121   4.627  0.1296  1.7659  0.1436
 9315SOL    HW228789   5.257   6.024   4.537  1.8955 -0.6748  1.1750
 9316SOL     OW28790   6.028   2.140   1.758  0.1685  0.0809 -0.5071
 9316SOL    HW128791   5.957   2.147   1.821 -1.1207 -2.4113 -1.5415
 9316SOL    HW228792   5.987   2.108   1.678  2.5160 -2.5235 -0.8495
 9317SOL     OW28793   5.851   2.550   6.856 -0.0822 -0.5344  0.1689
 9317SOL    HW128794   5.778   2.553   6.794  0.8739 -1.3878 -1.0585
 9317SOL    HW228795   5.819   2.597   6.933 -1.3754  0.4105 -0.8915
 9318SOL     OW28796   4.104   3.200   5.047 -0.2135  0.6586  0.4602
 9318SOL    HW128797   4.200   3.199   5.043 -0.2393 -0.7842 -0.9321
 9318SOL    HW228798   4.082   3.286   5.083  1.6108  0.6032  1.8222
 9319SOL     OW28799   7.444   0.396   7.572  0.5924  0.1954 -0.2137
 9319SOL    HW128800   7.479   0.452   7.503  1.5035 -1.2430 -0.9692
 9319SOL    HW228801   7.471   0.440   7.653  2.2796  0.2832 -0.7793
 9320SOL     OW28802   2.990   6.302   3.698 -0.0842  0.0514  0.1184
 9320SOL    HW128803   2.936   6.305   3.777  2.2825 -0.0154  1.8472
 9320SOL    HW228804   3.024   6.391   3.689  1.7199 -0.5280  0.7612
 9321SOL     OW28805   5.512   5.939   7.052 -0.1184 -0.0038  0.0109
 9321SOL    HW128806   5.421   5.920   7.029 -0.1666 -1.8199  1.4655
 9321SOL    HW228807   5.506   6.007   7.120 -0.6654 -2.1178  2.2288
 9322SOL     OW28808   1.373   3.989   2.803  0.0159 -0.6051  0.0737
 9322SOL    HW128809   1.340   4.039   2.728  1.1432 -0.4076 -0.3083
 9322SOL    HW228810   1.448   4.039   2.834  0.6287 -1.6015  0.2393
 9323SOL     OW28811   5.850   6.431   5.089  0.4811  0.0925  0.1085
 9323SOL    HW128812   5.885   6.430   4.999  1.1413 -0.0830  0.3581
 9323SOL    HW228813   5.904   6.367   5.136  0.6561  0.7523  0.8236
 9324SOL     OW28814   4.677   0.479   0.740 -0.0128 -0.4367  0.4526
 9324SOL    HW128815   4.763   0.507   0.771  0.4752 -0.2684 -0.9769
 9324SOL    HW228816   4.691   0.392   0.703 -0.4387 -0.3897  0.1718
 9325SOL     OW28817   6.165   4.755   8.212 -0.7065  0.1456 -0.0539
 9325SOL    HW128818   6.133   4.839   8.178 -1.0228  0.3650  0.7516
 9325SOL    HW228819   6.252   4.775   8.246 -0.3459 -0.0977 -0.8169
 9326SOL     OW28820   3.841   5.976   2.131  0.1480 -0.5734  0.3009
 9326SOL    HW128821   3.861   6.038   2.060  1.9006 -0.1590  1.1166
 9326SOL    HW228822   3.846   5.890   2.089 -1.2301 -0.2638 -0.5907
 9327SOL     OW28823   6.208   7.717   2.255  0.3127  0.3840 -0.2610
 9327SOL    HW128824   6.169   7.708   2.168  0.8958  0.1535 -0.4978
 9327SOL    HW228825   6.263   7.639   2.265 -0.0492  0.2092  0.4670
 9328SOL     OW28826   6.337   2.600   1.253  0.3012  0.1610  0.0213
 9328SOL    HW128827   6.390   2.670   1.291  1.4454 -0.3253 -0.6326
 9328SOL    HW228828   6.249   2.616   1.287  0.4489  2.1388 -0.4134
 9329SOL     OW28829   3.808   1.768   1.438 -0.1564 -0.3566 -0.0886
 9329SOL    HW128830   3.779   1.767   1.530  0.0850 -1.2688 -0.0119
 9329SOL    HW228831   3.773   1.687   1.402 -1.4882  0.6608 -1.2132
 9330SOL     OW28832   0.475   8.095   5.953  0.0793 -0.1784 -0.5434
 9330SOL    HW128833   0.513   8.182   5.939 -0.7430  0.4232  0.8451
 9330SOL    HW228834   0.499   8.073   6.043 -3.0878  0.3814  0.5448
 9331SOL     OW28835   3.781   1.584   3.090 -0.4693  0.1794 -1.0036
 9331SOL    HW128836   3.873   1.598   3.113 -0.5754 -0.2199 -0.3113
 9331SOL    HW228837   3.751   1.669   3.059 -0.0944  0.5320 -0.4149
 9332SOL     OW28838   3.630   7.681   1.444 -0.0898  0.3918  0.8009
 9332SOL    HW128839   3.687   7.751   1.412 -0.0961  0.6770  1.3996
 9332SOL    HW228840   3.555   7.726   1.483 -0.4515  0.0325  0.5392
 9333SOL     OW28841   2.170   2.935   5.805 -0.1598  0.1544 -0.3772
 9333SOL    HW128842   2.090   2.882   5.801  0.9694 -1.7197  0.2498
 9333SOL    HW228843   2.213   2.905   5.885  0.3123  2.4524  0.2845
 9334SOL     OW28844   7.786   7.449   0.333 -0.2386 -0.1930 -0.5302
 9334SOL    HW128845   7.717   7.506   0.300 -0.0392 -0.4748 -1.4613
 9334SOL    HW228846   7.832   7.419   0.255  0.4107 -0.6808  0.0241
 9335SOL     OW28847   4.354   5.825   1.299 -0.4420 -0.1339 -0.1828
 9335SOL    HW128848   4.287   5.874   1.347  0.7449  0.8241  0.5718
 9335SOL    HW228849   4.430   5.826   1.358  1.1814  1.3352 -2.1559
 9336SOL     OW28850   5.004   7.746   4.582 -0.2207 -0.3039  0.7891
 9336SOL    HW128851   5.013   7.816   4.648  1.0867 -0.1947  0.5130
 9336SOL    HW228852   5.087   7.747   4.534 -0.5780 -1.3843  0.1156
 9337SOL     OW28853   0.039   4.366   3.414  0.4874 -0.1098  0.7347
 9337SOL    HW128854   0.056   4.460   3.408  1.6833 -0.2924  1.0434
 9337SOL    HW228855   0.125   4.327   3.427  0.4815 -1.5507 -2.4724
 9338SOL     OW28856   4.307   3.888   1.961  0.6088 -0.6115 -0.3549
 9338SOL    HW128857   4.278   3.808   1.918  0.4453  0.3874 -2.2235
 9338SOL    HW228858   4.392   3.907   1.920  1.3115 -0.5377  1.0662
 9339SOL     OW28859   6.602   6.782   0.637 -0.7838  0.3190 -0.4538
 9339SOL    HW128860   6.678   6.771   0.581 -0.6253 -0.7502 -0.0550
 9339SOL    HW228861   6.537   6.722   0.601  0.1924 -2.3921  1.9740
 9340SOL     OW28862   7.003   2.377   5.802  0.3554 -0.2822 -0.4036
 9340SOL    HW128863   7.095   2.386   5.829  0.0794  0.2147  0.3975
 9340SOL    HW228864   6.970   2.305   5.855 -0.1918  0.7064  0.6641
 9341SOL     OW28865   2.450   4.040   0.442 -0.2066  0.1098 -0.6430
 9341SOL    HW128866   2.445   4.034   0.537 -2.0566  1.2789 -0.6049
 9341SOL    HW228867   2.503   3.965   0.416  0.8883  0.1321  1.3327
 9342SOL     OW28868   4.347   6.053   6.714 -0.6083 -0.2233 -0.2603
 9342SOL    HW128869   4.410   6.046   6.643 -0.1677  0.5284  0.0513
 9342SOL    HW228870   4.263   6.029   6.674 -0.1187 -1.3620 -0.6397
 9343SOL     OW28871   2.458   2.471   2.440 -0.5668  0.0381  0.4395
 9343SOL    HW128872   2.364   2.474   2.418 -0.3665  0.2361 -0.4148
 9343SOL    HW228873   2.480   2.562   2.459 -0.3767  0.1102 -0.1137
 9344SOL     OW28874   6.564   2.669   7.847  0.1912 -0.4569 -0.6288
 9344SOL    HW128875   6.535   2.758   7.826 -0.8806 -0.8997 -1.0953
 9344SOL    HW228876   6.573   2.670   7.942  1.9041  0.6319 -0.7590
 9345SOL     OW28877   6.261   7.307   8.070  0.4560  0.5622 -0.1587
 9345SOL    HW128878   6.203   7.328   7.996 -1.9946  1.4302  1.8533
 9345SOL    HW228879   6.285   7.215   8.057 -0.5569  0.4679 -1.6078
 9346SOL     OW28880   0.221   2.189   6.839  0.2506  0.1756  0.2238
 9346SOL    HW128881   0.185   2.278   6.836  0.2363  0.1844  0.6755
 9346SOL    HW228882   0.289   2.189   6.771  2.0016  1.2986  1.8581
 9347SOL     OW28883   0.388   1.971   6.206  0.0534 -0.0424  0.0104
 9347SOL    HW128884   0.352   1.989   6.120  1.4817 -0.4211 -0.6909
 9347SOL    HW228885   0.333   1.901   6.241 -0.9938  0.6298 -0.2649
 9348SOL     OW28886   6.711   2.190   0.088  0.4165  0.1189 -0.0879
 9348SOL    HW128887   6.688   2.252   0.157  1.2320  2.0645 -1.4479
 9348SOL    HW228888   6.640   2.197   0.025 -1.0466 -2.6895  1.0934
 9349SOL     OW28889   7.276   7.281   2.342  0.5601 -0.1836  0.3503
 9349SOL    HW128890   7.367   7.309   2.347  0.2997  0.6935  0.4555
 9349SOL    HW228891   7.239   7.306   2.426  0.3627 -1.0812  0.5374
 9350SOL     OW28892   7.944   0.240   3.748  0.3844 -0.0625 -0.3637
 9350SOL    HW128893   7.992   0.254   3.667 -0.8157  1.9780 -0.7938
 9350SOL    HW228894   7.979   0.157   3.783  2.6885  0.2751 -1.6594
 9351SOL     OW28895   4.479   7.036   2.381  0.1790 -0.6609  0.5434
 9351SOL    HW128896   4.392   7.038   2.421  0.1213  2.4143  0.4595
 9351SOL    HW228897   4.513   7.125   2.391  2.7245 -1.3794 -0.7577
 9352SOL     OW28898   4.999   0.789   0.583 -0.2294  0.2144  0.3518
 9352SOL    HW128899   5.027   0.878   0.561 -0.8563  0.6376  1.2116
 9352SOL    HW228900   4.945   0.762   0.509 -0.4339  0.7363  0.3082
 9353SOL     OW28901   7.703   2.524   2.328 -0.3167  0.0406  0.1775
 9353SOL    HW128902   7.702   2.567   2.243  1.6173 -1.0825 -0.4626
 9353SOL    HW228903   7.760   2.579   2.382  0.0288 -0.2970  0.1576
 9354SOL     OW28904   5.801   3.979   6.296  0.2142 -0.1780 -0.2908
 9354SOL    HW128905   5.730   3.921   6.323  0.3938 -1.3601 -2.1826
 9354SOL    HW228906   5.763   4.067   6.301 -1.0120 -0.6901 -0.2036
 9355SOL     OW28907   4.055   6.112   6.643 -0.4370  0.3932 -0.0255
 9355SOL    HW128908   4.032   6.130   6.734 -0.8214 -0.6710  0.0973
 9355SOL    HW228909   3.971   6.106   6.598 -0.4657 -2.5131  0.2393
 9356SOL     OW28910   4.968   7.532   5.537 -0.4128 -0.8437 -0.8460
 9356SOL    HW128911   4.895   7.562   5.592  0.1468 -1.1113  0.0677
 9356SOL    HW228912   5.024   7.483   5.597  0.2945 -1.0171 -1.6350
 9357SOL     OW28913   6.558   3.027   6.188 -0.1710 -0.2378 -0.1497
 9357SOL    HW128914   6.479   3.080   6.185  0.2933  0.4548 -0.5782
 9357SOL    HW228915   6.576   3.006   6.096  1.1476  1.1830 -0.2658
 9358SOL     OW28916   4.692   7.980   0.155  0.0856  0.0541  0.2366
 9358SOL    HW128917   4.614   8.033   0.139  0.1847  0.1707  0.1420
 9358SOL    HW228918   4.754   8.007   0.087 -0.3369 -1.1307 -0.6689
 9359SOL     OW28919   2.245   7.596   3.097 -0.6085  0.2340  0.0108
 9359SOL    HW128920   2.234   7.567   3.187  1.1479  0.2219  0.2361
 9359SOL    HW228921   2.166   7.647   3.079  0.7176  3.7578  2.9248
 9360SOL     OW28922   4.469   3.016   6.616 -0.1682  0.3601 -0.2021
 9360SOL    HW128923   4.471   2.973   6.530  1.3328  0.1757 -0.0984
 9360SOL    HW228924   4.560   3.021   6.643 -0.4533  2.0390  0.5979
 9361SOL     OW28925   3.804   5.227   0.074  0.5626 -0.4212  0.5975
 9361SOL    HW128926   3.828   5.248   0.164 -1.7957  3.3150  0.5458
 9361SOL    HW228927   3.717   5.188   0.080  0.4568 -0.3010 -0.0390
 9362SOL     OW28928   5.821   4.464   6.931 -0.0656  0.1702 -0.4463
 9362SOL    HW128929   5.848   4.510   7.011 -0.4751  1.6986 -1.1564
 9362SOL    HW228930   5.726   4.464   6.935 -0.0845  0.2265 -0.9255
 9363SOL     OW28931   1.903   7.176   3.266 -0.1641  0.2115  0.0714
 9363SOL    HW128932   1.944   7.105   3.315 -2.7301 -0.7962  0.9467
 9363SOL    HW228933   1.826   7.200   3.318 -2.5486 -0.2785 -2.9606
 9364SOL     OW28934   0.268   6.885   1.029  0.3257  0.1290  0.7474
 9364SOL    HW128935   0.308   6.800   1.046  0.3451  0.1373  0.7425
 9364SOL    HW228936   0.229   6.911   1.112 -1.2448 -0.7019  0.3160
 9365SOL     OW28937   0.367   6.568   3.194  0.2794 -0.3457 -0.4029
 9365SOL    HW128938   0.322   6.525   3.121  1.6245 -2.8041  0.1297
 9365SOL    HW228939   0.296   6.611   3.243 -1.2071 -2.0560 -0.9303
 9366SOL     OW28940   6.274   0.126   5.372  0.0396  0.2817 -0.2591
 9366SOL    HW128941   6.328   0.139   5.295  0.7468 -0.6011  0.0745
 9366SOL    HW228942   6.189   0.100   5.337  0.5523 -0.8018 -0.7359
 9367SOL     OW28943   5.456   4.674   5.452  0.1459 -0.0860  0.0739
 9367SOL    HW128944   5.402   4.720   5.517  0.9045  0.0904  0.6014
 9367SOL    HW228945   5.394   4.622   5.401 -0.5874  0.5888  0.2613
 9368SOL     OW28946   6.203   7.022   5.831  0.1186 -0.1347  0.3066
 9368SOL    HW128947   6.219   6.934   5.865 -0.9067  0.1029  1.4806
 9368SOL    HW228948   6.130   7.011   5.770  0.7803 -0.2799 -0.4647
 9369SOL     OW28949   4.318   1.258   3.984 -0.6605  0.6300  0.0279
 9369SOL    HW128950   4.377   1.191   4.020 -1.2392  0.7608  1.2685
 9369SOL    HW228951   4.240   1.254   4.040 -0.7410  2.2933  0.0659
 9370SOL     OW28952   4.876   4.196   2.815  0.2412  0.2012 -0.4249
 9370SOL    HW128953   4.856   4.121   2.871 -2.2479 -0.3728 -1.8819
 9370SOL    HW228954   4.935   4.161   2.749  0.6113  0.0268 -0.0032
 9371SOL     OW28955   7.806   3.469   5.376 -0.0156 -0.1488  0.6138
 9371SOL    HW128956   7.795   3.398   5.312  1.8269 -0.9059  1.0815
 9371SOL    HW228957   7.875   3.438   5.434  1.7020  2.5156  0.1410
 9372SOL     OW28958   0.363   5.011   6.008  0.1374  0.2582 -0.5044
 9372SOL    HW128959   0.424   5.068   6.055  2.0801 -1.5469 -0.7330
 9372SOL    HW228960   0.316   5.071   5.950  1.8068  1.7072 -0.4692
 9373SOL     OW28961   1.950   0.265   2.641 -0.4458  0.3865  0.0026
 9373SOL    HW128962   2.026   0.232   2.594 -0.6123  1.3061 -0.9630
 9373SOL    HW228963   1.876   0.215   2.606 -0.3914  0.0899  0.3132
 9374SOL     OW28964   2.421   1.156   2.706 -0.2406 -0.3309  0.2096
 9374SOL    HW128965   2.516   1.146   2.705 -0.1403  0.4233  1.1197
 9374SOL    HW228966   2.405   1.225   2.771 -1.5695 -2.0310  1.7562
 9375SOL     OW28967   8.057   4.386   3.140 -0.0076 -0.0098 -0.0793
 9375SOL    HW128968   8.106   4.306   3.155  0.2329  0.2405  0.4840
 9375SOL    HW228969   8.119   4.445   3.096 -0.6860 -0.7179 -2.1030
 9376SOL     OW28970   3.821   7.100   5.629  0.8000  0.2480 -0.6120
 9376SOL    HW128971   3.905   7.068   5.662  0.7383 -0.4024 -1.0707
 9376SOL    HW228972   3.820   7.072   5.537  0.4606  1.0104 -0.8492
 9377SOL     OW28973   0.224   6.192   3.631  0.3566  0.0707  0.3818
 9377SOL    HW128974   0.286   6.138   3.679  1.1321  0.5440 -0.0767
 9377SOL    HW228975   0.173   6.130   3.578 -0.4204 -0.4479  1.6752
 9378SOL     OW28976   1.391   4.632   4.688  0.0540 -0.1097  0.2776
 9378SOL    HW128977   1.389   4.680   4.771 -0.0281  1.3348 -0.5270
 9378SOL    HW228978   1.403   4.541   4.713 -3.0567 -0.1549  2.0511
 9379SOL     OW28979   1.922   1.880   4.836  0.1810 -0.2080  0.2439
 9379SOL    HW128980   1.874   1.944   4.784  0.4470  0.3551  0.6863
 9379SOL    HW228981   1.896   1.795   4.800 -1.1344  0.0804  0.4778
 9380SOL     OW28982   0.880   2.467   5.261  0.4886 -0.6580  0.3401
 9380SOL    HW128983   0.963   2.420   5.252  1.6158  1.3291 -0.2461
 9380SOL    HW228984   0.885   2.509   5.347  1.6457  2.1478 -0.9817
 9381SOL     OW28985   1.155   7.952   1.737  0.6104 -0.4177 -0.1541
 9381SOL    HW128986   1.068   7.991   1.733  1.1786  1.0300  1.0858
 9381SOL    HW228987   1.142   7.863   1.703 -0.8421  0.5606 -2.4079
 9382SOL     OW28988   8.036   0.874   2.838  0.1071 -0.1312  0.4077
 9382SOL    HW128989   8.009   0.876   2.746  0.2512 -0.2319  0.3642
 9382SOL    HW228990   8.063   0.783   2.853  2.6779  0.4583 -0.1847
 9383SOL     OW28991   6.593   0.961   2.938 -0.1477  0.7769  0.3032
 9383SOL    HW128992   6.611   0.878   2.983  1.5698  1.4687  0.9636
 9383SOL    HW228993   6.507   0.948   2.897 -0.1439 -1.1382  0.8155
 9384SOL     OW28994   6.754   1.302   8.088 -0.0620 -0.0833  0.2127
 9384SOL    HW128995   6.697   1.333   8.018 -0.3210 -1.8340 -0.3918
 9384SOL    HW228996   6.774   1.211   8.064  0.9849 -0.2672  1.6866
 9385SOL     OW28997   6.240   7.884   1.015 -0.4319 -0.3214  0.5424
 9385SOL    HW128998   6.177   7.942   0.973 -0.3070  0.1105  0.9391
 9385SOL    HW228999   6.205   7.796   1.001 -0.9614 -0.1069  0.4956
 9386SOL     OW29000   2.218   2.372   8.061  0.4402  0.0640  0.3361
 9386SOL    HW129001   2.217   2.368   7.966 -1.8637 -1.2919  0.3433
 9386SOL    HW229002   2.228   2.280   8.088 -0.1155  0.2980  1.3806
 9387SOL     OW29003   5.952   2.926   2.127  0.1183  0.6914 -0.4493
 9387SOL    HW129004   6.003   2.878   2.192 -1.3093  0.9287  0.9062
 9387SOL    HW229005   6.016   2.980   2.081  1.1956  0.4123  0.6799
 9388SOL     OW29006   7.387   1.016   3.558  0.0100 -0.0320  0.1490
 9388SOL    HW129007   7.369   1.055   3.472 -0.7010  0.0261  0.3256
 9388SOL    HW229008   7.481   0.994   3.554  0.2400  0.9728 -0.2333
 9389SOL     OW29009   7.593   5.895   2.736  0.3956 -0.3806  0.0015
 9389SOL    HW129010   7.645   5.816   2.721 -1.4984 -1.5729 -0.6826
 9389SOL    HW229011   7.550   5.911   2.652  0.1575  0.9718  0.3545
 9390SOL     OW29012   0.795   1.729   7.988  0.1583  0.5023  0.6141
 9390SOL    HW129013   0.738   1.769   8.053 -2.3354  0.0257 -1.1278
 9390SOL    HW229014   0.784   1.635   8.001  1.6629  0.3545  1.0946
 9391SOL     OW29015   2.001   7.294   0.425 -0.0803  0.1524 -0.5472
 9391SOL    HW129016   2.089   7.331   0.432 -0.3774  0.7193  0.3187
 9391SOL    HW229017   1.958   7.318   0.507  0.0976 -3.2164  0.6894
 9392SOL     OW29018   4.489   3.459   0.793 -0.5779  0.1654  0.3194
 9392SOL    HW129019   4.396   3.476   0.811 -0.8533 -0.1192 -0.7711
 9392SOL    HW229020   4.532   3.473   0.878 -1.4249  1.5901  0.5561
 9393SOL     OW29021   7.086   3.876   1.236  0.1578  0.4860  0.2692
 9393SOL    HW129022   7.098   3.876   1.142  1.2093 -1.4319  0.3550
 9393SOL    HW229023   7.127   3.957   1.266  1.4480  0.2269 -0.7498
 9394SOL     OW29024   7.021   5.785   5.330 -0.2070 -0.1361  0.3383
 9394SOL    HW129025   7.083   5.789   5.257  0.4350 -1.0487  0.8048
 9394SOL    HW229026   6.938   5.759   5.290 -0.1196  0.4167 -0.2050
 9395SOL     OW29027   5.786   7.733   3.224 -0.0290 -0.2389  0.0645
 9395SOL    HW129028   5.839   7.704   3.298 -0.9693 -1.1469  0.3997
 9395SOL    HW229029   5.696   7.710   3.248 -0.1795 -2.3521 -2.1435
 9396SOL     OW29030   6.390   1.097   7.389 -0.5357 -0.0257  0.3867
 9396SOL    HW129031   6.380   1.115   7.296  0.4157  1.8640  0.6041
 9396SOL    HW229032   6.468   1.146   7.415 -0.0985 -1.4542  1.9443
 9397SOL     OW29033   7.173   4.435   1.732  0.0884  0.1692  0.3190
 9397SOL    HW129034   7.238   4.425   1.663 -0.1530 -0.9389  0.2395
 9397SOL    HW229035   7.098   4.477   1.690 -0.0043 -0.3752 -0.0709
 9398SOL     OW29036   1.842   7.955   5.386 -0.0305 -0.1060 -0.0193
 9398SOL    HW129037   1.932   7.954   5.418 -0.0317 -0.4498 -0.0224
 9398SOL    HW229038   1.789   7.961   5.465 -0.0437 -1.2843  0.0785
 9399SOL     OW29039   8.080   3.187   0.249 -0.0073 -0.5395  0.1820
 9399SOL    HW129040   8.050   3.192   0.340  2.1295 -1.2392  1.0104
 9399SOL    HW229041   8.176   3.183   0.257  0.2895  0.7313 -2.1822
 9400SOL     OW29042   5.853   4.885   6.865 -0.3061  0.7942  0.2624
 9400SOL    HW129043   5.789   4.944   6.825 -0.4670  1.1627  1.0435
 9400SOL    HW229044   5.883   4.830   6.793 -1.2911  0.8025 -0.1646
 9401SOL     OW29045   7.356   5.517   5.553  0.1640  0.0866 -0.3018
 9401SOL    HW129046   7.377   5.424   5.560 -1.0353 -0.2983 -1.4649
 9401SOL    HW229047   7.269   5.519   5.513 -0.0793  1.7028  0.2519
 9402SOL     OW29048   3.015   5.997   3.669 -0.6456  0.1469  0.4511
 9402SOL    HW129049   3.005   6.089   3.647  0.7643  0.5550  1.3828
 9402SOL    HW229050   3.047   5.996   3.759 -1.8491 -1.3089  0.9000
 9403SOL     OW29051   0.953   8.030   7.714 -0.1591 -0.1885 -0.0036
 9403SOL    HW129052   0.939   7.953   7.769 -2.4793  0.2543  0.0992
 9403SOL    HW229053   0.997   7.996   7.636 -0.5661 -1.4940  0.3116
 9404SOL     OW29054   3.101   1.101   3.458 -0.3849  0.4973 -0.0669
 9404SOL    HW129055   3.009   1.077   3.467 -0.1101 -0.0895  1.4702
 9404SOL    HW229056   3.099   1.192   3.427 -1.4689  0.3416 -0.4869
 9405SOL     OW29057   3.459   1.965   0.782  0.0510 -0.3080 -0.1448
 9405SOL    HW129058   3.385   1.904   0.782  1.2710 -1.8523 -0.4484
 9405SOL    HW229059   3.445   2.020   0.859 -1.4281 -0.5075 -0.2301
 9406SOL     OW29060   8.033   0.269   0.072 -0.2791 -0.2325 -0.2424
 9406SOL    HW129061   8.030   0.175   0.051  0.1208  0.0804 -1.7541
 9406SOL    HW229062   8.089   0.307   0.005 -0.7604  1.1599  0.1231
 9407SOL     OW29063   0.551   4.576   3.437  0.2620  0.5306 -0.0204
 9407SOL    HW129064   0.493   4.626   3.495  0.8912  1.9743 -0.5652
 9407SOL    HW229065   0.548   4.625   3.354 -0.0667 -1.0766 -0.9940
 9408SOL     OW29066   1.268   4.055   3.111 -0.1520 -0.1020  0.1148
 9408SOL    HW129067   1.310   4.052   3.197 -0.2810  1.1794  0.2437
 9408SOL    HW229068   1.328   4.108   3.057  0.6451 -2.0294 -1.0237
 9409SOL     OW29069   3.322   1.520   2.528 -1.0768  0.0815  0.3510
 9409SOL    HW129070   3.290   1.591   2.583 -0.3868  1.3034 -0.7742
 9409SOL    HW229071   3.266   1.445   2.550 -0.3291  0.2622  3.2757
 9410SOL     OW29072   0.533   0.965   7.930  0.1194  0.6432  0.4167
 9410SOL    HW129073   0.618   0.932   7.959  0.5783  0.8221 -0.6944
 9410SOL    HW229074   0.470   0.917   7.984  0.9372  1.2013  1.9261
 9411SOL     OW29075   5.263   0.483   3.284 -0.5046  0.3211 -0.7719
 9411SOL    HW129076   5.278   0.494   3.378 -0.8996 -1.2495 -0.5065
 9411SOL    HW229077   5.227   0.568   3.257 -1.2879  0.5051  0.6835
 9412SOL     OW29078   2.768   5.773   2.215 -0.1293  0.3039  1.1333
 9412SOL    HW129079   2.756   5.827   2.137  0.9702  0.3455  0.9775
 9412SOL    HW229080   2.745   5.831   2.287  1.9668  1.3427  1.0287
 9413SOL     OW29081   1.165   8.091   0.821  0.0995 -0.3443  0.1215
 9413SOL    HW129082   1.219   8.080   0.742 -0.8840  2.7412 -1.1176
 9413SOL    HW229083   1.149   8.185   0.827 -3.5102 -0.8574  1.4918
 9414SOL     OW29084   0.516   7.406   6.830  0.1368 -0.2127 -0.1175
 9414SOL    HW129085   0.425   7.437   6.839  0.1886 -0.0605 -0.1145
 9414SOL    HW229086   0.533   7.410   6.736  0.8012  1.6667  0.0582
 9415SOL     OW29087   0.967   4.316   2.587  0.0750 -0.3930 -0.2951
 9415SOL    HW129088   1.048   4.368   2.586  0.7366 -1.3826  0.0718
 9415SOL    HW229089   0.969   4.272   2.672  1.6060 -4.1090 -2.0255
 9416SOL     OW29090   4.589   6.431   4.586 -0.3506 -0.1031 -0.2816
 9416SOL    HW129091   4.584   6.449   4.493 -0.4301  1.8651  0.0708
 9416SOL    HW229092   4.619   6.340   4.591  0.9209  0.1616 -2.1991
 9417SOL     OW29093   5.414   2.754   7.721  0.2058 -0.3784  0.0864
 9417SOL    HW129094   5.402   2.722   7.631  0.8789 -1.4845  0.3621
 9417SOL    HW229095   5.485   2.700   7.755  1.4790  1.5544  0.5721
 9418SOL     OW29096   4.044   1.056   2.230 -0.5447  0.6603  0.2749
 9418SOL    HW129097   3.966   1.025   2.276 -0.1535  1.0774  1.2532
 9418SOL    HW229098   4.077   0.979   2.183 -0.2139 -0.1487  1.7619
 9419SOL     OW29099   4.040   0.193   6.232 -0.0306 -0.3544  0.3891
 9419SOL    HW129100   4.056   0.125   6.297  3.3297 -0.4837 -0.3921
 9419SOL    HW229101   4.044   0.146   6.148  1.7046  0.6169 -0.1265
 9420SOL     OW29102   3.940   0.077   1.982 -0.5259  0.0045  0.2275
 9420SOL    HW129103   3.998   0.146   1.950  1.1776  0.2645  3.3774
 9420SOL    HW229104   3.869   0.124   2.026  0.4778 -0.1498  2.1136
 9421SOL     OW29105   0.870   5.670   7.977 -0.0854 -0.0320  0.3892
 9421SOL    HW129106   0.808   5.642   7.910 -0.2286  0.2474  0.4023
 9421SOL    HW229107   0.823   5.738   8.026 -0.1764 -0.5945  1.1004
 9422SOL     OW29108   1.997   2.466   5.893  0.2611 -0.2673 -0.1867
 9422SOL    HW129109   1.980   2.512   5.810  0.9782  0.0775 -0.1492
 9422SOL    HW229110   1.988   2.534   5.959  1.9598 -0.0036 -0.1804
 9423SOL     OW29111   3.611   1.921   1.825  0.0243 -0.1173  0.1323
 9423SOL    HW129112   3.641   2.007   1.796  0.3181  0.3705  1.8029
 9423SOL    HW229113   3.536   1.939   1.881  1.9235 -0.6391  3.0346
 9424SOL     OW29114   6.707   1.225   1.143  0.2682 -0.4934 -0.0756
 9424SOL    HW129115   6.786   1.195   1.188  0.7748  2.1901  0.9970
 9424SOL    HW229116   6.641   1.158   1.164  1.4723 -1.2317  1.5662
 9425SOL     OW29117   7.873   0.657   6.630 -0.1687 -0.0414 -0.1488
 9425SOL    HW129118   7.836   0.744   6.648 -0.1427 -0.0046 -0.2758
 9425SOL    HW229119   7.798   0.598   6.636  0.0787 -0.2382  1.5856
 9426SOL     OW29120   6.593   6.784   3.328  0.5555  0.0190  0.0981
 9426SOL    HW129121   6.663   6.719   3.334 -0.4059 -0.9493  1.1925
 9426SOL    HW229122   6.522   6.740   3.282  1.0317  1.3826 -2.1056
 9427SOL     OW29123   0.037   7.982   0.263  0.3304 -0.1366 -0.5952
 9427SOL    HW129124  -0.020   8.057   0.250 -0.5689 -0.3588  1.5419
 9427SOL    HW229125   0.100   8.011   0.329 -0.1787 -1.2787  0.4418
 9428SOL     OW29126   6.293   7.279   5.077  0.5643  0.1546 -0.1324
 9428SOL    HW129127   6.269   7.192   5.108 -0.5431  0.2043 -0.7889
 9428SOL    HW229128   6.335   7.321   5.153 -0.7576 -0.2329  0.8546
 9429SOL     OW29129   6.664   6.253   0.185 -0.0706 -0.0687  0.0808
 9429SOL    HW129130   6.608   6.232   0.261  0.2483  0.8180  0.5712
 9429SOL    HW229131   6.725   6.318   0.218  0.7053 -0.3969 -0.6917
 9430SOL     OW29132   1.023   1.596   3.781  0.4065  0.0606  0.5927
 9430SOL    HW129133   1.086   1.530   3.808  0.4007 -0.4277 -0.5383
 9430SOL    HW229134   0.948   1.546   3.748  0.4278  0.6170 -0.3358
 9431SOL     OW29135   0.312   3.080   7.183  0.4867  0.1936 -0.3050
 9431SOL    HW129136   0.404   3.064   7.207  0.9036  2.0608 -0.5341
 9431SOL    HW229137   0.278   3.133   7.256 -0.3530 -0.2908 -0.3384
 9432SOL     OW29138   1.581   0.859   5.240 -0.3707 -0.3110 -0.0937
 9432SOL    HW129139   1.603   0.882   5.149 -0.1316 -1.5907 -0.3716
 9432SOL    HW229140   1.662   0.874   5.288  0.4085 -2.4071 -0.6361
 9433SOL     OW29141   4.866   4.159   5.986 -0.0238 -0.1285 -0.2929
 9433SOL    HW129142   4.878   4.147   5.891  1.6146 -0.6353 -0.0565
 9433SOL    HW229143   4.951   4.137   6.023 -0.0773  1.8708  1.1547
 9434SOL     OW29144   0.126   8.158   5.652 -0.4815  0.0833 -1.1974
 9434SOL    HW129145   0.074   8.162   5.732  0.3765 -0.1567 -0.6148
 9434SOL    HW229146   0.207   8.114   5.678 -0.8733 -1.5740 -2.5836
 9435SOL     OW29147   6.802   4.401   6.750 -0.1593  0.2977 -0.4937
 9435SOL    HW129148   6.888   4.405   6.791  0.4105 -1.6135 -1.3712
 9435SOL    HW229149   6.746   4.359   6.815  0.6608 -2.4113 -1.4173
 9436SOL     OW29150   5.427   5.877   1.365 -0.5322 -0.6255  0.2490
 9436SOL    HW129151   5.369   5.928   1.308 -0.7932  0.3058  1.3060
 9436SOL    HW229152   5.515   5.902   1.339 -0.6567  0.4447  0.7935
 9437SOL     OW29153   0.588   6.232   0.102 -0.2186  0.5086  0.3887
 9437SOL    HW129154   0.553   6.179   0.031  0.0182 -1.4368  1.6390
 9437SOL    HW229155   0.519   6.231   0.169  0.0689  1.2389  0.7122
 9438SOL     OW29156   8.064   2.200   3.043 -0.2597  0.0083 -0.1977
 9438SOL    HW129157   8.155   2.231   3.043 -0.5277  0.8751 -1.7836
 9438SOL    HW229158   8.072   2.105   3.050  0.7659  0.0757 -0.2493
 9439SOL     OW29159   5.588   1.674   4.347  0.2743 -0.5362  0.4789
 9439SOL    HW129160   5.535   1.717   4.279  0.8230  0.0159  0.3914
 9439SOL    HW229161   5.677   1.676   4.312  0.5135 -0.5219  1.0880
 9440SOL     OW29162   6.992   4.648   5.144 -0.0956 -0.2462 -0.6172
 9440SOL    HW129163   6.998   4.566   5.096 -1.3156 -0.7622  0.0359
 9440SOL    HW229164   6.911   4.689   5.112  1.1721  1.3781 -1.8950
 9441SOL     OW29165   7.533   5.101   5.913 -0.4616 -0.1580 -0.2771
 9441SOL    HW129166   7.621   5.104   5.951 -0.0943 -1.3478 -0.9861
 9441SOL    HW229167   7.485   5.170   5.959  0.7731  0.3667  0.2743
 9442SOL     OW29168   5.517   0.195   0.373  0.1153 -0.2737 -0.5413
 9442SOL    HW129169   5.511   0.110   0.416 -1.9554 -0.2420 -0.6943
 9442SOL    HW229170   5.497   0.258   0.443  0.9727  0.0793 -0.5902
 9443SOL     OW29171   6.818   1.930   2.221  0.2678 -0.3504  0.2046
 9443SOL    HW129172   6.913   1.918   2.229  0.2636 -0.6370 -0.1420
 9443SOL    HW229173   6.805   2.024   2.232  0.6531 -0.2331 -0.2992
 9444SOL     OW29174   1.926   5.742   5.270 -0.5883 -0.5684  0.4902
 9444SOL    HW129175   1.976   5.816   5.304 -3.2681  1.7236 -0.1411
 9444SOL    HW229176   1.960   5.727   5.183  1.1217 -1.2773  1.2442
 9445SOL     OW29177   5.922   3.235   2.254  0.0920  0.2433 -0.3211
 9445SOL    HW129178   6.008   3.248   2.213  0.3098 -0.8803 -0.2403
 9445SOL    HW229179   5.897   3.322   2.285  1.8002  0.3546  0.8490
 9446SOL     OW29180   6.506   4.505   1.465  0.0239  0.3736 -0.0962
 9446SOL    HW129181   6.543   4.550   1.389 -2.3580  1.8856 -0.4589
 9446SOL    HW229182   6.537   4.557   1.540 -1.7530  2.0653 -0.4406
 9447SOL     OW29183   1.699   7.468   1.270 -0.0347  0.6233  0.0823
 9447SOL    HW129184   1.652   7.548   1.293 -2.1599 -0.7757  0.9288
 9447SOL    HW229185   1.714   7.424   1.354 -1.1776 -1.0197 -0.5167
 9448SOL     OW29186   4.127   0.779   2.949 -0.0302 -0.2561 -0.3572
 9448SOL    HW129187   4.049   0.796   3.001  0.1962 -0.6750  0.1356
 9448SOL    HW229188   4.199   0.813   3.002  0.0186  1.4203 -1.4376
 9449SOL     OW29189   4.162   3.999   7.005 -0.0767 -0.2303  0.6038
 9449SOL    HW129190   4.194   4.022   6.918  1.1044 -2.1321  0.4836
 9449SOL    HW229191   4.193   3.910   7.019 -1.0233 -0.2915  2.6164
 9450SOL     OW29192   5.458   3.006   4.534  0.3201  0.9544 -0.1030
 9450SOL    HW129193   5.488   3.071   4.598  1.1037 -0.2297  0.7889
 9450SOL    HW229194   5.363   3.005   4.545  0.2000  2.5917 -0.7964
 9451SOL     OW29195   0.112   4.310   0.089 -0.2730  0.0148  0.1158
 9451SOL    HW129196   0.158   4.378   0.139  0.8511 -0.1073 -0.6829
 9451SOL    HW229197   0.139   4.228   0.129 -0.1014 -0.0354 -0.0944
 9452SOL     OW29198   4.161   3.781   0.835  0.0760  0.2770 -0.2200
 9452SOL    HW129199   4.238   3.782   0.779  0.6386 -1.4213  0.4779
 9452SOL    HW229200   4.165   3.864   0.883 -0.0867  1.4733 -2.1772
 9453SOL     OW29201   3.654   1.128   4.800  0.2987 -0.6346  0.2404
 9453SOL    HW129202   3.596   1.066   4.756 -1.8745  0.3279  1.5457
 9453SOL    HW229203   3.741   1.089   4.794 -0.5440 -2.3895 -1.4225
 9454SOL     OW29204   3.920   2.824   5.109 -0.3397  0.2636 -0.6621
 9454SOL    HW129205   3.958   2.743   5.141  0.2230  0.7888  0.0335
 9454SOL    HW229206   3.991   2.867   5.061 -0.7686  0.1377 -1.4272
 9455SOL     OW29207   0.009   2.742   5.289 -0.6318  0.0026 -0.4107
 9455SOL    HW129208   0.045   2.686   5.220 -2.5177 -0.6484 -0.9437
 9455SOL    HW229209   0.083   2.761   5.346  0.1509 -3.0264 -0.2300
 9456SOL     OW29210   7.389   6.840   4.794 -0.1520 -0.3679  0.3718
 9456SOL    HW129211   7.385   6.764   4.735  0.1546 -0.7413  0.8268
 9456SOL    HW229212   7.481   6.867   4.792 -0.6993  1.6670 -1.8653
 9457SOL     OW29213   2.686   7.766   8.202 -0.5652  0.4419 -0.0365
 9457SOL    HW129214   2.712   7.772   8.294  1.1848 -2.2882 -0.2589
 9457SOL    HW229215   2.744   7.828   8.157  0.0444  0.2469  0.4613
 9458SOL     OW29216   0.346   2.870   5.195  0.1794 -0.2857 -0.0926
 9458SOL    HW129217   0.356   2.939   5.261  1.0744 -0.4982  0.0061
 9458SOL    HW229218   0.435   2.851   5.167 -0.1028 -1.0655 -0.4749
 9459SOL     OW29219   4.205   0.844   5.772 -0.5474 -0.7171 -0.0494
 9459SOL    HW129220   4.292   0.818   5.804 -0.6045  0.8475  1.5451
 9459SOL    HW229221   4.178   0.773   5.714  1.2977 -1.7948  0.3436
 9460SOL     OW29222   5.894   3.484   3.258  0.0304 -0.8857 -0.2203
 9460SOL    HW129223   5.975   3.489   3.208  0.9386  2.4031  1.2742
 9460SOL    HW229224   5.917   3.437   3.337  1.1027  1.5595  1.0182
 9461SOL     OW29225   3.987   4.979   1.030 -0.4373 -0.4260  0.5657
 9461SOL    HW129226   3.966   4.886   1.028  0.0028 -0.5663  1.5440
 9461SOL    HW229227   3.923   5.020   0.971 -0.9480 -1.2849  0.5056
 9462SOL     OW29228   6.045   7.148   5.279  0.2306  0.1298 -0.5959
 9462SOL    HW129229   6.120   7.102   5.241  1.4279  1.1112  0.4742
 9462SOL    HW229230   5.983   7.079   5.300  2.2873 -1.2079  1.6975
 9463SOL     OW29231   1.815   6.057   1.158  0.0131 -0.1884  0.0785
 9463SOL    HW129232   1.903   6.091   1.141 -0.2089  0.2960 -0.1331
 9463SOL    HW229233   1.825   5.962   1.159  0.7062 -0.1158  1.0049
 9464SOL     OW29234   4.699   5.696   3.358  0.7790 -0.3366 -0.5783
 9464SOL    HW129235   4.704   5.610   3.400 -0.2540 -0.0630  0.1452
 9464SOL    HW229236   4.766   5.748   3.402 -0.4658  0.0233  0.9660
 9465SOL     OW29237   7.721   4.767   3.000  0.0496  0.2594 -0.0070
 9465SOL    HW129238   7.785   4.755   3.070  0.8254  2.1351 -0.3285
 9465SOL    HW229239   7.773   4.778   2.921 -0.6328  1.5182 -0.3265
 9466SOL     OW29240   0.784   8.170   4.413 -0.3642 -0.1411 -0.4949
 9466SOL    HW129241   0.729   8.092   4.420 -1.9056  0.8137 -1.4730
 9466SOL    HW229242   0.738   8.227   4.351  0.4054  1.8080  0.6374
 9467SOL     OW29243   5.325   4.113   1.508  0.1950  0.3027  0.1403
 9467SOL    HW129244   5.327   4.168   1.586  0.3743  2.2149 -1.1427
 9467SOL    HW229245   5.386   4.042   1.527 -1.0733 -0.2888  2.3926
 9468SOL     OW29246   1.173   1.660   7.558 -0.2985 -0.1151 -0.7020
 9468SOL    HW129247   1.143   1.649   7.649 -0.8442  0.1233 -0.8490
 9468SOL    HW229248   1.203   1.573   7.533 -0.0942 -0.1724 -0.2756
 9469SOL     OW29249   5.050   5.238   7.573  0.4944  0.3241 -0.0581
 9469SOL    HW129250   4.969   5.286   7.593  0.3814  0.3710 -0.6226
 9469SOL    HW229251   5.120   5.297   7.600  0.3446 -0.1126  1.3558
 9470SOL     OW29252   4.759   2.905   3.677 -0.1478  0.1709 -0.9389
 9470SOL    HW129253   4.791   2.819   3.650 -0.8692 -0.6549  0.6872
 9470SOL    HW229254   4.829   2.941   3.730 -1.2481 -1.0911  1.5455
 9471SOL     OW29255   1.381   3.471   3.730  0.7831 -0.4079  0.1276
 9471SOL    HW129256   1.450   3.535   3.710 -0.2177  0.2214 -1.4384
 9471SOL    HW229257   1.390   3.404   3.662  0.6910 -1.0348  0.7189
 9472SOL     OW29258   2.044   5.770   6.271 -0.1443  0.3876 -0.5550
 9472SOL    HW129259   1.990   5.764   6.349  0.9079  1.0234  0.2482
 9472SOL    HW229260   2.087   5.685   6.264 -0.9051  0.0302 -0.9526
 9473SOL     OW29261   3.222   2.964   4.265 -0.2188  0.4839 -0.1193
 9473SOL    HW129262   3.242   2.926   4.351 -0.0396  2.6042  0.8448
 9473SOL    HW229263   3.304   3.005   4.238 -0.8334  1.6312 -0.3012
 9474SOL     OW29264   0.121   5.377   4.399 -0.0463  0.0472 -0.5652
 9474SOL    HW129265   0.157   5.374   4.488  0.5106  2.0150 -0.6827
 9474SOL    HW229266   0.034   5.337   4.407  0.7931 -1.7230  0.4041
 9475SOL     OW29267   0.170   3.414   0.254  0.3422 -0.3282  0.0365
 9475SOL    HW129268   0.122   3.485   0.213  0.1234 -0.3276  0.2880
 9475SOL    HW229269   0.218   3.455   0.326  0.9409 -0.2830 -0.3821
 9476SOL     OW29270   0.377   0.664   7.746 -0.2333 -0.2513 -0.3267
 9476SOL    HW129271   0.358   0.696   7.658  0.1679  0.6560 -0.0948
 9476SOL    HW229272   0.334   0.727   7.804 -1.6069 -1.5624  0.1355
 9477SOL     OW29273   4.138   0.817   7.167  0.0540 -0.0945  0.0449
 9477SOL    HW129274   4.045   0.796   7.155 -0.3295  1.6705 -0.4196
 9477SOL    HW229275   4.165   0.765   7.243 -1.0538 -1.3548 -0.3935
 9478SOL     OW29276   3.601   5.470   2.255  0.1893  0.2855  0.5840
 9478SOL    HW129277   3.552   5.551   2.264  0.8602  0.6183  1.2729
 9478SOL    HW229278   3.570   5.414   2.327  1.5030  0.8619  1.6302
 9479SOL     OW29279   3.599   7.832   6.450 -0.2722 -0.0056 -0.1004
 9479SOL    HW129280   3.579   7.847   6.357 -0.4799 -1.6598 -0.3587
 9479SOL    HW229281   3.583   7.738   6.462  1.5627 -0.1930  1.1637
 9480SOL     OW29282   6.448   8.068   0.225  0.1548  0.0372  0.6674
 9480SOL    HW129283   6.449   8.003   0.295  0.0257  0.5009  1.1027
 9480SOL    HW229284   6.356   8.073   0.198  0.2662 -0.4507  0.1644
 9481SOL     OW29285   7.686   6.608   6.570 -0.1774 -0.0165 -0.3346
 9481SOL    HW129286   7.695   6.682   6.631  1.5738 -1.5649  1.4518
 9481SOL    HW229287   7.655   6.647   6.489 -1.7186  2.3174  1.2458
 9482SOL     OW29288   0.420   7.773   5.651  0.0948  0.3723  0.1228
 9482SOL    HW129289   0.411   7.728   5.567  2.3456 -1.5090  0.7891
 9482SOL    HW229290   0.336   7.757   5.695 -0.8076  0.6917 -1.3918
 9483SOL     OW29291   6.112   0.980   5.691 -0.3169  0.0945  0.0642
 9483SOL    HW129292   6.133   0.908   5.750  0.6475  1.4297  1.4364
 9483SOL    HW229293   6.024   1.006   5.716  0.2433  0.9262  1.2639
 9484SOL     OW29294   0.492   4.257   3.642  0.0138 -0.0255  0.0528
 9484SOL    HW129295   0.579   4.291   3.621  0.4907 -1.4026 -0.2974
 9484SOL    HW229296   0.494   4.240   3.736 -0.2648  0.9508  0.2528
 9485SOL     OW29297   3.142   7.223   4.241 -0.2181 -0.2175  0.1293
 9485SOL    HW129298   3.064   7.255   4.196  0.6473  2.7133  0.5163
 9485SOL    HW229299   3.208   7.212   4.171  0.1750  1.2231  0.2483
 9486SOL     OW29300   3.083   8.214   3.611 -0.3681 -0.1212 -0.0670
 9486SOL    HW129301   3.004   8.205   3.664 -0.3445 -0.9328 -0.1499
 9486SOL    HW229302   3.060   8.174   3.527  0.2245 -0.6662  0.0212
 9487SOL     OW29303   7.538   2.374   7.945 -0.3061 -0.2428  0.3654
 9487SOL    HW129304   7.590   2.297   7.921  0.7363  0.6867 -0.4466
 9487SOL    HW229305   7.467   2.376   7.880 -1.3603 -1.4779  1.4374
 9488SOL     OW29306   5.913   2.678   8.136 -0.5225  0.3999 -0.2131
 9488SOL    HW129307   6.000   2.715   8.146 -0.6840  0.6030  0.5344
 9488SOL    HW229308   5.909   2.607   8.200  0.6352 -2.6405 -3.2445
 9489SOL     OW29309   0.341   2.737   0.647  0.2367 -0.1641  0.0742
 9489SOL    HW129310   0.429   2.704   0.666  1.4540  2.4080 -0.6287
 9489SOL    HW229311   0.338   2.822   0.690 -1.0188  0.8246 -1.8388
 9490SOL     OW29312   7.799   2.939   6.747  0.6432 -0.5254  0.1916
 9490SOL    HW129313   7.747   3.014   6.776  0.6954  0.0941 -1.2520
 9490SOL    HW229314   7.779   2.871   6.811 -1.7855 -0.2364 -0.1537
 9491SOL     OW29315   1.401   6.616   6.312 -0.1381 -1.2081 -0.4319
 9491SOL    HW129316   1.381   6.679   6.381 -0.8834 -0.5100 -1.2544
 9491SOL    HW229317   1.496   6.610   6.312  0.0797  1.0600 -1.2795
 9492SOL     OW29318   6.690   4.386   3.940 -0.1669 -0.0303  0.5639
 9492SOL    HW129319   6.633   4.429   4.003 -0.6923 -0.5365  0.4456
 9492SOL    HW229320   6.630   4.351   3.874  0.3784  0.6353 -0.3093
 9493SOL     OW29321   0.045   2.707   1.829  0.1613  0.0868  0.0139
 9493SOL    HW129322   0.001   2.682   1.910 -0.0137 -0.6635 -0.3047
 9493SOL    HW229323  -0.025   2.715   1.764  0.2456  1.1638  0.0430
 9494SOL     OW29324   4.694   6.406   2.132  0.6046  0.3170 -0.0678
 9494SOL    HW129325   4.779   6.361   2.132  0.1514 -0.5442  0.3463
 9494SOL    HW229326   4.716   6.496   2.109  1.6424  0.1155  0.0631
 9495SOL     OW29327   7.818   7.445   0.027  0.0684 -0.2820 -0.0227
 9495SOL    HW129328   7.822   7.530   0.070 -2.4742 -1.4295  2.8941
 9495SOL    HW229329   7.737   7.448  -0.023  0.6804 -0.5556 -1.0542
 9496SOL     OW29330   6.684   1.230   3.930  0.4381  0.2288  0.0957
 9496SOL    HW129331   6.682   1.168   3.857  1.6332  1.6562 -1.2363
 9496SOL    HW229332   6.592   1.247   3.950  0.0984 -1.1648 -0.1997
 9497SOL     OW29333   5.257   3.199   1.336  0.2344  0.1374 -0.2075
 9497SOL    HW129334   5.214   3.256   1.400  1.5094  1.5544 -0.5321
 9497SOL    HW229335   5.207   3.118   1.337 -0.8889  0.8137  1.2192
 9498SOL     OW29336   6.715   3.628   7.457  0.2973 -0.6089  0.4014
 9498SOL    HW129337   6.759   3.703   7.495  0.1327 -1.3335  2.0822
 9498SOL    HW229338   6.752   3.552   7.503 -0.2946 -1.4823 -0.5192
 9499SOL     OW29339   4.067   5.345   4.979 -0.3356  0.1440  0.4021
 9499SOL    HW129340   4.098   5.280   5.042 -1.1261 -1.2042 -0.5461
 9499SOL    HW229341   3.980   5.370   5.010 -0.7122 -0.4971 -0.1175
 9500SOL     OW29342   7.965   3.672   2.779 -0.2121  0.0470  0.1050
 9500SOL    HW129343   7.980   3.579   2.761  1.1795  0.3739 -0.5709
 9500SOL    HW229344   8.002   3.685   2.866 -0.9559 -0.1514  0.4551
 9501SOL     OW29345   1.275   3.481   2.576 -0.0927  0.7991 -0.4656
 9501SOL    HW129346   1.285   3.573   2.550 -0.2278  0.3865 -2.0950
 9501SOL    HW229347   1.190   3.455   2.541 -0.7850  0.4613  1.3609
 9502SOL     OW29348   5.879   3.691   2.464 -0.3954  0.4820  0.0703
 9502SOL    HW129349   5.912   3.601   2.468  0.1192  0.4832 -2.5060
 9502SOL    HW229350   5.800   3.690   2.517  1.2631 -0.6559  2.7351
 9503SOL     OW29351   6.961   0.548   6.604  0.0783  0.2329  0.1618
 9503SOL    HW129352   6.936   0.507   6.686  0.2214  0.5237  0.3531
 9503SOL    HW229353   6.965   0.642   6.624  1.8375  0.1618  0.2930
 9504SOL     OW29354   2.464   3.845   1.297 -0.0939 -0.1833 -0.6781
 9504SOL    HW129355   2.542   3.805   1.335  0.2571  0.6190 -0.5362
 9504SOL    HW229356   2.464   3.816   1.206 -0.1249 -0.9086 -0.4556
 9505SOL     OW29357   6.499   0.012   5.929 -0.1323 -0.0359  0.6445
 9505SOL    HW129358   6.498   0.051   6.016  1.6038  0.0607  0.6570
 9505SOL    HW229359   6.591   0.014   5.903 -0.6242  0.0031 -1.2288
 9506SOL     OW29360   5.539   3.930   1.840 -1.0464  0.3174 -0.1311
 9506SOL    HW129361   5.552   3.931   1.745 -0.1430 -0.5499 -0.0392
 9506SOL    HW229362   5.611   3.984   1.874 -0.3388 -0.7571  0.1363
 9507SOL     OW29363   0.564   7.577   3.923 -0.6520  0.1527  0.2815
 9507SOL    HW129364   0.527   7.570   4.011 -2.4832 -0.8051 -0.5080
 9507SOL    HW229365   0.517   7.652   3.884  0.3495  0.7519  0.1895
 9508SOL     OW29366   5.291   4.722   7.439 -0.3824 -0.2585 -0.1406
 9508SOL    HW129367   5.351   4.758   7.374  0.1720 -0.6154  0.1732
 9508SOL    HW229368   5.204   4.748   7.408 -0.4587 -3.1073 -2.8111
 9509SOL     OW29369   4.136   3.081   0.370  0.1075 -0.2093  0.3278
 9509SOL    HW129370   4.126   3.106   0.462  0.3897  0.4645  0.1777
 9509SOL    HW229371   4.228   3.055   0.362 -0.1324 -1.1490  0.4369
 9510SOL     OW29372   0.174   3.540   3.475  0.3045 -0.4359 -0.5406
 9510SOL    HW129373   0.255   3.587   3.453  1.5732 -0.6243  3.0856
 9510SOL    HW229374   0.201   3.475   3.541 -2.5841 -1.4919 -0.2550
 9511SOL     OW29375   2.770   1.399   5.149  0.3780 -0.3123 -0.3318
 9511SOL    HW129376   2.797   1.409   5.057 -0.5939  0.0547 -0.5959
 9511SOL    HW229377   2.690   1.453   5.156  0.2247 -0.6479  0.6289
 9512SOL     OW29378   4.713   5.199   1.420 -0.0955  0.1244 -0.1840
 9512SOL    HW129379   4.712   5.241   1.333  2.1890  0.0289 -0.3346
 9512SOL    HW229380   4.690   5.269   1.480  1.7293  1.1918 -0.6152
 9513SOL     OW29381   3.554   2.271   7.552 -0.3749  0.1955  0.3972
 9513SOL    HW129382   3.469   2.227   7.556  0.1589 -0.9172  0.0854
 9513SOL    HW229383   3.586   2.253   7.463  0.1135  0.7455  0.4560
 9514SOL     OW29384   1.335   3.216   2.124 -0.5514  0.2343  0.2511
 9514SOL    HW129385   1.342   3.127   2.160  0.7294 -0.2133 -0.9891
 9514SOL    HW229386   1.258   3.253   2.166  0.0448 -0.7297  2.3365
 9515SOL     OW29387   7.861   3.200   7.477 -0.2010 -0.2576  0.3007
 9515SOL    HW129388   7.932   3.197   7.540 -0.5150  0.5947  0.7109
 9515SOL    HW229389   7.782   3.181   7.529 -0.3452 -0.5704 -0.0281
 9516SOL     OW29390   5.034   1.165   7.876 -0.0145  0.1114  0.3711
 9516SOL    HW129391   5.125   1.136   7.872  0.3001  0.8637  1.6104
 9516SOL    HW229392   5.035   1.254   7.841 -0.5538 -0.4164 -1.0576
 9517SOL     OW29393   6.886   4.471   1.665  0.2303  0.4178  0.0399
 9517SOL    HW129394   6.935   4.550   1.640 -0.1311  0.5813 -0.1602
 9517SOL    HW229395   6.820   4.502   1.727  0.6066  0.1387  0.5945
 9518SOL     OW29396   2.458   0.195   0.209 -0.0027  0.1449  0.1480
 9518SOL    HW129397   2.432   0.231   0.124 -0.0748  0.0227  0.1177
 9518SOL    HW229398   2.537   0.243   0.232 -0.3795  0.6707  0.3424
 9519SOL     OW29399   4.833   8.140   2.191  0.1805 -0.6272 -0.3988
 9519SOL    HW129400   4.893   8.107   2.123 -1.0254 -0.4297 -1.6073
 9519SOL    HW229401   4.805   8.061   2.238  1.1284 -0.7536 -0.0267
 9520SOL     OW29402   4.471   6.354   6.108 -0.8105  0.1785  0.2213
 9520SOL    HW129403   4.387   6.370   6.065 -0.2776  1.0041 -0.5335
 9520SOL    HW229404   4.523   6.432   6.090  1.1686 -1.5044 -1.8407
 9521SOL     OW29405   6.326   0.562   5.640  0.0054  1.1141 -0.4128
 9521SOL    HW129406   6.284   0.482   5.609  1.8594 -0.4376  0.8655
 9521SOL    HW229407   6.367   0.600   5.562 -0.2940  0.4353 -0.9059
 9522SOL     OW29408   6.017   4.435   2.722  0.5479 -0.2337 -0.6259
 9522SOL    HW129409   5.985   4.519   2.757 -0.8682 -1.2091  0.5244
 9522SOL    HW229410   5.952   4.371   2.750  1.2456 -1.6379 -2.0692
 9523SOL     OW29411   4.811   0.707   5.389 -0.0476  0.2912  0.1522
 9523SOL    HW129412   4.903   0.719   5.365  0.5897 -0.4288  2.0194
 9523SOL    HW229413   4.768   0.787   5.358  1.5190  1.3833  0.6140
 9524SOL     OW29414   4.358   3.661   3.314  0.1224  0.3770  0.5295
 9524SOL    HW129415   4.372   3.661   3.219  1.8361  2.2929  0.7202
 9524SOL    HW229416   4.264   3.673   3.324 -0.0499  0.4273 -0.9309
 9525SOL     OW29417   6.323   0.861   2.814  0.4222  0.2145 -0.3906
 9525SOL    HW129418   6.401   0.820   2.777  0.5749  0.2407 -0.1049
 9525SOL    HW229419   6.281   0.791   2.865  0.7109  0.4208  0.1413
 9526SOL     OW29420   2.505   2.386   5.075 -0.0371 -0.9340  0.8602
 9526SOL    HW129421   2.442   2.328   5.030 -0.4885 -0.2984  0.6503
 9526SOL    HW229422   2.499   2.361   5.167 -3.4988  1.6025  1.5318
 9527SOL     OW29423   3.347   5.937   0.185 -0.0789 -0.8752 -0.5915
 9527SOL    HW129424   3.341   5.909   0.276 -0.1487  0.1786 -0.2618
 9527SOL    HW229425   3.274   5.893   0.141 -1.6732  0.6208  0.4168
 9528SOL     OW29426   0.915   2.070   5.892 -0.3538 -0.1785 -0.1133
 9528SOL    HW129427   0.839   2.104   5.845 -0.9715 -1.8856 -0.4335
 9528SOL    HW229428   0.986   2.131   5.871 -0.9707 -0.0695 -2.0824
 9529SOL     OW29429   3.376   5.454   3.086 -0.5527 -0.4026  0.2053
 9529SOL    HW129430   3.283   5.439   3.068 -0.9759  0.7845  1.2448
 9529SOL    HW229431   3.397   5.534   3.038  0.0561 -0.8981 -0.3663
 9530SOL     OW29432   3.510   3.873   0.365  0.4291  0.3716 -0.1281
 9530SOL    HW129433   3.490   3.813   0.294  0.9028 -0.7602  0.6693
 9530SOL    HW229434   3.564   3.822   0.425 -1.3808  0.6903  1.9204
 9531SOL     OW29435   0.710   5.869   8.069 -0.0545  0.1268  0.3860
 9531SOL    HW129436   0.722   5.953   8.025 -1.1438  0.2293  0.2636
 9531SOL    HW229437   0.689   5.892   8.160 -0.5562  0.0014  0.3051
 9532SOL     OW29438   5.425   2.075   2.108 -0.4376 -0.4378  0.3920
 9532SOL    HW129439   5.393   2.027   2.184 -1.8199  0.3505  0.3447
 9532SOL    HW229440   5.354   2.136   2.086  1.0140  1.2462  0.1274
 9533SOL     OW29441   4.830   7.299   2.229  0.4898 -0.3470  0.5266
 9533SOL    HW129442   4.899   7.233   2.224 -1.2258 -2.1111 -1.5703
 9533SOL    HW229443   4.855   7.364   2.163 -0.3586 -1.5713 -1.0573
 9534SOL     OW29444   6.664   0.365   1.341 -0.1306 -0.6895  0.3300
 9534SOL    HW129445   6.622   0.363   1.427 -0.8346  0.0366  0.0166
 9534SOL    HW229446   6.719   0.287   1.339 -3.1415 -3.0346 -0.0477
 9535SOL     OW29447   1.641   5.617   0.586 -0.3872  0.5025  0.2844
 9535SOL    HW129448   1.594   5.533   0.584  0.1421  0.2118 -0.6166
 9535SOL    HW229449   1.575   5.683   0.565 -0.8682  0.3473  1.2748
 9536SOL     OW29450   3.425   7.985   6.577 -0.3997  0.4144 -0.5879
 9536SOL    HW129451   3.476   8.066   6.575  2.4869 -1.2777 -0.4094
 9536SOL    HW229452   3.466   7.928   6.512 -0.2756 -2.0248  1.4700
 9537SOL     OW29453   6.391   7.467   1.798 -0.3319 -0.3329 -1.0452
 9537SOL    HW129454   6.450   7.508   1.734  0.0842 -0.1259 -0.5422
 9537SOL    HW229455   6.303   7.487   1.766 -0.2458  2.9773  0.3381
 9538SOL     OW29456   7.322   1.437   0.490  0.1566 -0.1582 -0.1080
 9538SOL    HW129457   7.260   1.509   0.503  1.9808  1.5825 -0.4657
 9538SOL    HW229458   7.331   1.431   0.395  2.3547  1.3865 -0.0843
 9539SOL     OW29459   5.701   1.332   5.729  0.3128  0.2839 -0.0788
 9539SOL    HW129460   5.607   1.327   5.708  0.3853 -0.8127 -0.1919
 9539SOL    HW229461   5.741   1.371   5.652  0.0828 -0.2596 -0.4798
 9540SOL     OW29462   1.397   7.026   5.101  0.2743  0.1200 -0.5998
 9540SOL    HW129463   1.328   7.052   5.040  0.1929 -0.5064 -0.7801
 9540SOL    HW229464   1.393   6.930   5.102 -0.8137  0.1242  1.6229
 9541SOL     OW29465   3.344   4.384   6.819 -0.4069 -0.1453 -0.4314
 9541SOL    HW129466   3.293   4.399   6.899  1.1004  0.3056  0.4852
 9541SOL    HW229467   3.289   4.420   6.749 -0.9541  1.1666  0.6288
 9542SOL     OW29468   7.772   0.671   5.036 -0.5821 -0.6052 -0.0876
 9542SOL    HW129469   7.755   0.673   5.130 -1.0731 -0.5333 -0.1709
 9542SOL    HW229470   7.704   0.728   4.999 -0.4195 -0.6701 -0.4873
 9543SOL     OW29471   3.568   0.419   2.577  0.3668  0.0128 -0.2915
 9543SOL    HW129472   3.525   0.355   2.521 -0.3100  0.3602 -0.1852
 9543SOL    HW229473   3.531   0.403   2.664  0.5710  0.2155 -0.1661
 9544SOL     OW29474   5.247   2.543   1.629  0.2453 -0.2967  0.2428
 9544SOL    HW129475   5.153   2.562   1.623  0.2499 -0.4921 -0.7129
 9544SOL    HW229476   5.253   2.449   1.610  0.6646 -0.2125 -0.0601
 9545SOL     OW29477   2.543   3.488   1.440  0.0148 -0.3597  0.1492
 9545SOL    HW129478   2.538   3.549   1.513  1.2606 -1.3998  1.1671
 9545SOL    HW229479   2.587   3.411   1.477 -0.2551 -1.3124 -1.4408
 9546SOL     OW29480   6.900   2.008   2.902 -0.5104  0.1563 -0.0211
 9546SOL    HW129481   6.860   1.929   2.937  0.6596 -1.2191 -1.6556
 9546SOL    HW229482   6.943   2.049   2.977  0.5726 -1.8357  0.4906
 9547SOL     OW29483   0.839   4.569   3.093  0.2528  0.1008 -0.1729
 9547SOL    HW129484   0.875   4.634   3.032 -1.4076  0.4056 -0.8884
 9547SOL    HW229485   0.883   4.487   3.069  1.5280  0.7134 -0.0201
 9548SOL     OW29486   2.417   6.181   3.642  0.1220 -0.1748  0.0141
 9548SOL    HW129487   2.394   6.101   3.690  1.7357 -0.1549  0.8896
 9548SOL    HW229488   2.506   6.201   3.671  0.5938  0.6861 -1.9038
 9549SOL     OW29489   3.724   0.750   0.918  0.2275 -0.2040  0.4648
 9549SOL    HW129490   3.755   0.830   0.959  0.3984  0.4948 -0.9472
 9549SOL    HW229491   3.736   0.766   0.824  1.1879 -2.2561  0.1797
 9550SOL     OW29492   4.337   3.417   5.995 -0.1673 -0.2100 -0.3531
 9550SOL    HW129493   4.296   3.414   5.909 -0.6980  1.8279 -0.2131
 9550SOL    HW229494   4.289   3.353   6.047  0.0839 -1.3705 -1.5094
 9551SOL     OW29495   7.425   2.549   5.389  0.6621 -0.1584 -0.4461
 9551SOL    HW129496   7.431   2.645   5.393  0.7045 -0.1409 -0.9157
 9551SOL    HW229497   7.387   2.531   5.303 -0.3953 -0.5215  0.0756
 9552SOL     OW29498   3.635   6.476   0.202 -0.0448  0.6568 -0.7657
 9552SOL    HW129499   3.639   6.568   0.175  0.6041  0.8081 -0.1875
 9552SOL    HW229500   3.548   6.465   0.239  0.5000  1.5783  0.9308
 9553SOL     OW29501   6.447   3.402   1.816 -0.1615 -0.6447  0.2035
 9553SOL    HW129502   6.353   3.389   1.799 -0.6598  1.9389  0.6703
 9553SOL    HW229503   6.485   3.412   1.729 -0.3605 -1.2642  0.0336
 9554SOL     OW29504   2.705   6.205   6.611 -0.0078  0.1339  0.8848
 9554SOL    HW129505   2.750   6.180   6.691  1.1256 -0.2693  0.1553
 9554SOL    HW229506   2.631   6.144   6.604  2.7929 -3.4355 -0.9612
 9555SOL     OW29507   2.735   0.716   3.513 -0.6561  0.0411 -0.3431
 9555SOL    HW129508   2.751   0.649   3.579 -0.4845  1.0798  0.6914
 9555SOL    HW229509   2.776   0.681   3.434 -1.5943 -1.6066 -0.1470
 9556SOL     OW29510   6.079   1.649   2.899 -0.1507  0.3944  0.7407
 9556SOL    HW129511   6.030   1.625   2.821 -0.2223 -1.0627  1.2157
 9556SOL    HW229512   6.053   1.585   2.965 -0.0280  1.5335  1.9527
 9557SOL     OW29513   1.775   2.300   1.814 -0.3194 -0.0440  0.0871
 9557SOL    HW129514   1.830   2.227   1.843  0.7318  0.3820 -0.7202
 9557SOL    HW229515   1.725   2.325   1.891  0.6267 -0.4701  0.8685
 9558SOL     OW29516   4.310   0.283   7.533  0.0692  0.0245 -0.0801
 9558SOL    HW129517   4.383   0.249   7.481  0.5214 -1.6268  1.5037
 9558SOL    HW229518   4.241   0.218   7.523 -0.2239  0.2381  0.5108
 9559SOL     OW29519   5.464   1.907   3.320 -0.2562 -0.0337  0.0720
 9559SOL    HW129520   5.370   1.909   3.305 -0.3212  0.8721  0.5062
 9559SOL    HW229521   5.487   1.997   3.343  0.7435 -0.2035 -0.1799
 9560SOL     OW29522   4.544   0.429   5.979  0.3694 -0.2785 -0.3701
 9560SOL    HW129523   4.473   0.365   5.967 -1.8490  1.9318  0.0005
 9560SOL    HW229524   4.565   0.424   6.072 -0.7206  0.3765 -0.0714
 9561SOL     OW29525   2.197   6.730   0.994 -0.0499 -0.4695  0.6089
 9561SOL    HW129526   2.194   6.778   0.911  0.4485 -0.1438  0.7742
 9561SOL    HW229527   2.136   6.657   0.982 -2.8887  1.6191  1.2806
 9562SOL     OW29528   8.004   8.158   0.727  0.2116 -0.3660  0.2344
 9562SOL    HW129529   7.937   8.209   0.682  0.9339  0.3186 -0.0786
 9562SOL    HW229530   7.980   8.163   0.819  1.2765  2.1268  0.4514
 9563SOL     OW29531   8.212   1.811   3.979  0.4944  1.2256 -0.1250
 9563SOL    HW129532   8.230   1.870   3.907 -0.6883 -0.7656 -2.1660
 9563SOL    HW229533   8.145   1.751   3.946 -0.1404  0.2210  2.6440
 9564SOL     OW29534   3.385   8.009   0.075 -0.3810 -0.1530 -0.7216
 9564SOL    HW129535   3.313   7.980   0.131 -1.2061  1.4725 -0.8717
 9564SOL    HW229536   3.400   7.937   0.014  0.8451 -2.1836  1.7973
 9565SOL     OW29537   1.286   2.882   5.668 -0.2786  0.0915 -0.9064
 9565SOL    HW129538   1.267   2.976   5.660  1.2778  0.3721 -1.6831
 9565SOL    HW229539   1.323   2.873   5.756 -0.1232  0.2619 -0.9534
 9566SOL     OW29540   2.274   5.223   5.290  0.1033 -0.0323  0.0404
 9566SOL    HW129541   2.345   5.211   5.353  0.2841  0.9993  0.0477
 9566SOL    HW229542   2.217   5.288   5.331  0.3507  0.8337 -0.9536
 9567SOL     OW29543   6.892   6.943   8.015  0.0303  0.0722 -0.4026
 9567SOL    HW129544   6.845   6.974   7.938 -2.5145  0.1275  1.0656
 9567SOL    HW229545   6.896   7.020   8.072  3.0747  0.4133 -0.9133
 9568SOL     OW29546   4.304   7.636   2.179 -0.3182 -0.6437  0.1902
 9568SOL    HW129547   4.352   7.718   2.194  0.3043 -1.1377  1.0626
 9568SOL    HW229548   4.266   7.615   2.265  0.5308 -1.8672  0.2968
 9569SOL     OW29549   6.338   3.241   3.657  0.5852  0.1068 -0.2102
 9569SOL    HW129550   6.375   3.264   3.742  0.0607  0.1261  0.0179
 9569SOL    HW229551   6.323   3.325   3.613 -0.3443  0.1744  0.2011
 9570SOL     OW29552   0.695   3.547   8.141 -0.4079  0.1357 -0.0661
 9570SOL    HW129553   0.790   3.534   8.143 -0.3481  0.5922  1.8422
 9570SOL    HW229554   0.674   3.558   8.049  1.1569 -1.5806 -0.6897
 9571SOL     OW29555   5.580   2.957   7.577  0.2664 -0.0556  0.3481
 9571SOL    HW129556   5.505   2.938   7.633 -0.4470  2.2697  0.3168
 9571SOL    HW229557   5.547   2.950   7.488 -0.0946  1.4095  0.3379
 9572SOL     OW29558   4.978   0.528   0.767  0.5884  0.1077 -0.3345
 9572SOL    HW129559   4.993   0.615   0.731  2.1581 -0.2994 -0.7172
 9572SOL    HW229560   5.060   0.505   0.810 -0.1598 -0.7628  0.6822
 9573SOL     OW29561   2.141   3.684   2.626  0.5828 -0.0657  0.5214
 9573SOL    HW129562   2.105   3.762   2.584  1.4347 -0.9171 -1.9538
 9573SOL    HW229563   2.148   3.708   2.718 -0.8182  2.1442  0.1236
 9574SOL     OW29564   5.456   1.536   5.861  0.5748  0.2585 -0.1079
 9574SOL    HW129565   5.496   1.511   5.945 -0.7709 -1.5239  0.0604
 9574SOL    HW229566   5.482   1.627   5.848  1.3107  0.3878  1.9498
 9575SOL     OW29567   0.100   5.964   4.488  0.0420 -0.5010  0.2756
 9575SOL    HW129568   0.187   5.995   4.463 -0.2993  0.3428  0.0873
 9575SOL    HW229569   0.116   5.885   4.540  0.9760  0.2358  1.1488
 9576SOL     OW29570   6.780   6.842   1.210  0.0919 -0.1233  0.0396
 9576SOL    HW129571   6.851   6.898   1.180  0.1639 -0.9448 -1.3640
 9576SOL    HW229572   6.810   6.809   1.295  0.8891  0.4264 -0.0201
 9577SOL     OW29573   5.369   4.234   6.600 -0.5567 -0.0920  0.1135
 9577SOL    HW129574   5.399   4.163   6.543  1.8022  0.7619  0.1675
 9577SOL    HW229575   5.423   4.309   6.574 -1.0583  0.9284  1.9055
 9578SOL     OW29576   7.999   0.442   5.232 -0.4374 -0.4450  0.0312
 9578SOL    HW129577   8.043   0.365   5.270 -0.6793 -1.3780 -1.4798
 9578SOL    HW229578   8.070   0.495   5.197 -0.2797 -0.0535  0.9238
 9579SOL     OW29579   2.021   4.817   4.603 -0.4693 -0.1309  0.2394
 9579SOL    HW129580   2.028   4.859   4.517 -0.7631 -1.0026 -0.2265
 9579SOL    HW229581   1.947   4.861   4.644 -0.4641  0.1470 -0.0393
 9580SOL     OW29582   6.297   2.799   1.929 -0.1088 -0.5090 -0.0683
 9580SOL    HW129583   6.230   2.740   1.965 -1.0298 -0.3356 -1.4039
 9580SOL    HW229584   6.254   2.885   1.927 -0.4449 -0.6739 -2.3602
 9581SOL     OW29585   2.220   2.305   1.051  0.1379 -0.0026 -0.2448
 9581SOL    HW129586   2.266   2.221   1.043 -0.8451 -0.5977  0.2396
 9581SOL    HW229587   2.277   2.367   1.005  0.6790 -1.0046 -0.9724
 9582SOL     OW29588   0.309   2.847   1.515  0.2410  0.7517  0.4368
 9582SOL    HW129589   0.252   2.801   1.577  1.6928  1.1057  2.1175
 9582SOL    HW229590   0.379   2.784   1.495  0.3698  1.0262 -0.0057
 9583SOL     OW29591   6.674   2.902   5.234 -0.1894 -0.6874 -0.3611
 9583SOL    HW129592   6.696   2.813   5.207 -0.9290 -0.2395 -2.6492
 9583SOL    HW229593   6.746   2.955   5.201  0.3851 -0.4304  1.2312
 9584SOL     OW29594   3.913   8.168   1.122  0.2174  0.0833  0.0891
 9584SOL    HW129595   4.006   8.193   1.121 -0.0770  1.2693  0.6126
 9584SOL    HW229596   3.882   8.188   1.034  0.2052  0.7245  0.2351
 9585SOL     OW29597   7.726   4.299   0.016 -0.0456 -0.5633 -0.0723
 9585SOL    HW129598   7.741   4.234  -0.053 -0.7489 -1.1314  0.2941
 9585SOL    HW229599   7.755   4.255   0.096  1.0569  0.2066 -0.0312
 9586SOL     OW29600   3.089   4.146   6.801  0.0750 -0.5957  0.1517
 9586SOL    HW129601   3.164   4.141   6.861 -0.3002 -0.8736  0.6126
 9586SOL    HW229602   3.077   4.239   6.786 -0.4254 -0.4497  1.3091
 9587SOL     OW29603   3.667   1.489   6.746 -0.4684  0.4544 -0.4024
 9587SOL    HW129604   3.719   1.548   6.801  0.3704 -0.1639 -0.5001
 9587SOL    HW229605   3.686   1.516   6.656 -0.7419  0.5716 -0.4257
 9588SOL     OW29606   1.621   5.766   5.855 -0.0254  0.0946 -0.5224
 9588SOL    HW129607   1.557   5.718   5.907  0.1519 -0.8965 -1.2066
 9588SOL    HW229608   1.623   5.854   5.894  0.4074 -0.7318  1.4108
 9589SOL     OW29609   7.193   1.932   6.968  0.3833  0.5890 -0.5078
 9589SOL    HW129610   7.133   1.959   6.899 -0.3090 -0.4841 -0.3501
 9589SOL    HW229611   7.268   1.991   6.960  1.3318 -0.8275 -3.5866
 9590SOL     OW29612   2.820   4.314   6.212 -0.6063 -0.0535 -0.0488
 9590SOL    HW129613   2.859   4.401   6.222  0.9818 -0.7335  0.0344
 9590SOL    HW229614   2.896   4.255   6.208 -1.6544 -1.4341 -0.0374
 9591SOL     OW29615   0.407   2.786   2.054 -0.2896 -0.3897  0.0773
 9591SOL    HW129616   0.443   2.699   2.035  1.6622  0.3124  0.3664
 9591SOL    HW229617   0.483   2.839   2.078 -1.4011  1.4919 -0.3697
 9592SOL     OW29618   4.384   0.202   5.959 -0.2183  0.1994 -0.4843
 9592SOL    HW129619   4.380   0.200   5.863  2.1090 -0.9031 -0.6349
 9592SOL    HW229620   4.387   0.110   5.984 -2.3240  0.4311  0.7945
 9593SOL     OW29621   1.211   5.836   1.799  0.2068  0.0101  0.1591
 9593SOL    HW129622   1.229   5.831   1.705 -3.1600  1.3623 -0.6954
 9593SOL    HW229623   1.197   5.746   1.826 -1.0784 -0.2276 -1.2069
 9594SOL     OW29624   6.274   7.578   1.516 -0.7471 -0.3009  0.4160
 9594SOL    HW129625   6.235   7.664   1.500  0.8690  0.4201  0.1946
 9594SOL    HW229626   6.209   7.533   1.571 -1.9345  0.7861 -0.0389
 9595SOL     OW29627   6.878   2.035   1.959 -0.0002 -0.0942  0.1832
 9595SOL    HW129628   6.870   1.989   2.042 -1.3727  1.1321  0.7707
 9595SOL    HW229629   6.802   2.093   1.956 -0.2151 -0.3999 -2.1280
 9596SOL     OW29630   0.934   5.633   3.808  0.9459  0.0222  0.3077
 9596SOL    HW129631   0.851   5.651   3.764  0.4028  0.5228  1.4729
 9596SOL    HW229632   0.912   5.568   3.875  1.4412  0.3066  0.7612
 9597SOL     OW29633   0.505   1.306   0.487 -0.7839 -0.2162  0.0740
 9597SOL    HW129634   0.463   1.225   0.516 -0.2966  0.4835  3.0581
 9597SOL    HW229635   0.475   1.372   0.550 -0.4747  1.7729 -1.7600
 9598SOL     OW29636   3.296   3.547   2.317 -0.0447 -0.6162  0.2051
 9598SOL    HW129637   3.390   3.558   2.312  0.1095 -2.1799 -2.9440
 9598SOL    HW229638   3.283   3.477   2.380  0.8981 -0.4400  0.6065
 9599SOL     OW29639   1.839   7.199   4.757 -0.3362 -0.1095  0.0519
 9599SOL    HW129640   1.796   7.188   4.672 -0.7691  0.5219  0.1831
 9599SOL    HW229641   1.849   7.293   4.767  1.0978 -0.2469  0.0284
 9600SOL     OW29642   8.210   1.308   6.459 -0.0617  0.1774 -0.1635
 9600SOL    HW129643   8.202   1.378   6.524  1.0196  1.0030 -0.8684
 9600SOL    HW229644   8.297   1.322   6.420  0.4969 -2.0192  0.1833
 9601SOL     OW29645   0.475   0.441   7.153 -0.4621  0.0213  0.3905
 9601SOL    HW129646   0.480   0.498   7.230  0.0864  0.4537  0.0357
 9601SOL    HW229647   0.419   0.488   7.092 -1.0718 -0.4180  0.5896
 9602SOL     OW29648   6.604   4.654   4.491 -0.0841  0.1391 -0.1959
 9602SOL    HW129649   6.685   4.693   4.523 -0.0172 -0.2986  0.1771
 9602SOL    HW229650   6.541   4.727   4.489 -0.4208 -0.0267  2.0617
 9603SOL     OW29651   1.613   3.446   0.215 -0.0666  0.1229 -0.0336
 9603SOL    HW129652   1.698   3.465   0.175  0.8244 -1.2238  1.0892
 9603SOL    HW229653   1.611   3.502   0.293  0.0301 -0.2110  0.2118
 9604SOL     OW29654   8.067   5.201   6.809  0.3062  0.2231 -0.5856
 9604SOL    HW129655   8.073   5.111   6.840  0.2844  0.6424  0.7012
 9604SOL    HW229656   7.990   5.237   6.853  0.0043  0.7253 -1.4918
 9605SOL     OW29657   5.328   1.592   3.159  0.6841 -0.0842 -0.6352
 9605SOL    HW129658   5.292   1.661   3.104  0.1769  0.4430  0.3385
 9605SOL    HW229659   5.266   1.519   3.151  2.3607 -1.3876 -3.4927
 9606SOL     OW29660   3.423   7.606   6.194  0.2654 -0.6303 -0.1060
 9606SOL    HW129661   3.386   7.689   6.165 -1.0452 -1.2351 -0.2660
 9606SOL    HW229662   3.502   7.595   6.142  0.0571  0.1764 -0.6080
 9607SOL     OW29663   1.373   0.142   4.386  0.2304 -0.3789  0.0734
 9607SOL    HW129664   1.381   0.056   4.346 -0.6828 -1.5946  2.3546
 9607SOL    HW229665   1.310   0.188   4.330 -0.7826 -1.8985 -0.0839
 9608SOL     OW29666   7.771   5.064   5.032  0.4385 -0.0754  0.1512
 9608SOL    HW129667   7.824   5.037   5.107  0.2836  0.7997  0.5999
 9608SOL    HW229668   7.821   5.135   4.992 -1.3295  2.3354  1.9002
 9609SOL     OW29669   4.070   7.451   3.782  0.3132 -0.2997 -0.4165
 9609SOL    HW129670   4.000   7.474   3.721  1.8023 -0.0478 -2.1121
 9609SOL    HW229671   4.080   7.528   3.838 -2.3525 -1.2234  1.5288
 9610SOL     OW29672   3.076   4.320   7.401  0.3179  0.2664 -0.3857
 9610SOL    HW129673   3.030   4.250   7.448  0.2702 -0.2173 -1.1485
 9610SOL    HW229674   3.044   4.314   7.311  0.3925  1.2040 -0.4796
 9611SOL     OW29675   4.534   1.701   6.543 -0.8345 -0.2150 -0.2097
 9611SOL    HW129676   4.515   1.610   6.566 -2.1712 -0.5987 -2.4692
 9611SOL    HW229677   4.516   1.705   6.448 -0.6623  2.3523 -0.1809
 9612SOL     OW29678   7.966   5.900   2.754 -0.1964 -0.5121 -0.5912
 9612SOL    HW129679   8.002   5.863   2.673 -0.7487 -1.4758 -0.4062
 9612SOL    HW229680   7.949   5.992   2.732 -0.4868 -0.7932 -1.6158
 9613SOL     OW29681   7.297   7.939   3.307 -0.1448 -0.1344  0.2239
 9613SOL    HW129682   7.324   7.861   3.355  0.0472  0.7801  1.6738
 9613SOL    HW229683   7.378   7.978   3.275  0.0643  0.9881  1.9899
 9614SOL     OW29684   7.636   6.868   5.568  0.3636  0.2615 -0.3426
 9614SOL    HW129685   7.700   6.834   5.506  0.0180  0.9221 -1.0689
 9614SOL    HW229686   7.555   6.822   5.546  0.6865 -1.0094  0.9521
 9615SOL     OW29687   0.750   5.272   2.702  0.0695  0.2509 -0.2611
 9615SOL    HW129688   0.728   5.364   2.710 -1.0730 -0.0168 -0.1618
 9615SOL    HW229689   0.806   5.253   2.778 -1.5449  0.3448  1.0005
 9616SOL     OW29690   4.171   7.110   8.012  0.0437  0.5833  0.4356
 9616SOL    HW129691   4.203   7.139   7.926  0.2872  0.1371  0.3697
 9616SOL    HW229692   4.198   7.178   8.073  1.5246  0.0227  0.4524
 9617SOL     OW29693   1.179   2.215   7.016  0.1125  0.3442  0.1376
 9617SOL    HW129694   1.184   2.120   7.022 -0.3739  0.2510 -0.7739
 9617SOL    HW229695   1.209   2.246   7.101 -1.3455 -0.6702  1.0594
 9618SOL     OW29696   4.041   2.745   8.178 -0.5231  0.4605  0.0226
 9618SOL    HW129697   4.006   2.658   8.160  0.7034  0.0715 -0.6175
 9618SOL    HW229698   4.058   2.745   8.272  1.2195 -0.7104 -0.2413
 9619SOL     OW29699   5.493   3.073   2.654 -0.4606  0.5170 -0.4492
 9619SOL    HW129700   5.550   3.141   2.617  0.0655  0.5705  0.4462
 9619SOL    HW229701   5.410   3.117   2.668 -0.2468  0.8679 -0.2643
 9620SOL     OW29702   3.520   3.043   3.509  0.1501 -0.1317 -0.3615
 9620SOL    HW129703   3.522   3.017   3.417 -0.5017  2.1758 -1.1178
 9620SOL    HW229704   3.595   2.999   3.549  1.9376  0.6903 -2.5773
 9621SOL     OW29705   0.781   2.470   2.721 -0.1087  0.0281 -0.4935
 9621SOL    HW129706   0.712   2.405   2.730 -0.6412  0.4325 -1.4898
 9621SOL    HW229707   0.734   2.554   2.722  0.2883  0.2801 -1.8246
 9622SOL     OW29708   2.370   6.345   7.992  1.0821  0.6532  0.3460
 9622SOL    HW129709   2.305   6.276   7.979  0.8518  0.5854  1.7324
 9622SOL    HW229710   2.454   6.303   7.973  1.1156 -0.5518  2.7774
 9623SOL     OW29711   1.154   6.671   7.362  0.1327 -0.2197  0.0840
 9623SOL    HW129712   1.236   6.651   7.408 -1.0273 -0.8147  1.9985
 9623SOL    HW229713   1.093   6.604   7.393 -1.1412  0.2944 -1.2148
 9624SOL     OW29714   2.195   3.887   1.685 -0.3427 -0.1589 -0.2907
 9624SOL    HW129715   2.147   3.860   1.607  0.4333  0.2691 -0.9240
 9624SOL    HW229716   2.287   3.888   1.658  0.0187 -0.7835  0.8483
 9625SOL     OW29717   5.469   7.851   7.449  0.1644 -0.9312  0.5888
 9625SOL    HW129718   5.430   7.812   7.371 -0.0920 -1.0053  0.7514
 9625SOL    HW229719   5.468   7.780   7.514 -1.6198 -0.2735  1.3340
 9626SOL     OW29720   5.870   5.367   2.500 -0.2287  0.0623 -0.5649
 9626SOL    HW129721   5.915   5.414   2.431 -1.3707  2.4965  0.2411
 9626SOL    HW229722   5.785   5.344   2.462 -0.0285 -0.5558 -0.6513
 9627SOL     OW29723   3.443   1.160   1.040  0.6222  0.0472  0.1422
 9627SOL    HW129724   3.379   1.225   1.010  0.9208  0.0661 -0.4775
 9627SOL    HW229725   3.393   1.099   1.093 -0.0443 -0.3268 -0.8988
 9628SOL     OW29726   4.074   3.809   5.364 -0.5324  0.4379  0.4431
 9628SOL    HW129727   4.147   3.779   5.311 -1.1925 -1.1647  0.3944
 9628SOL    HW229728   3.996   3.787   5.314 -1.1728 -1.0757  1.9886
 9629SOL     OW29729   2.253   7.696   6.221 -0.0831 -0.0367  0.2057
 9629SOL    HW129730   2.237   7.697   6.316  0.9066  0.1837  0.3836
 9629SOL    HW229731   2.335   7.647   6.211  0.7542  1.4347 -0.3721
 9630SOL     OW29732   4.609   4.346   6.338  0.1345  0.0623 -0.6174
 9630SOL    HW129733   4.525   4.317   6.374  0.5808 -0.4981 -0.0112
 9630SOL    HW229734   4.640   4.273   6.285  1.0547 -0.4248  0.5621
 9631SOL     OW29735   1.247   5.263   5.501  0.2067  0.5622 -0.5150
 9631SOL    HW129736   1.159   5.232   5.524  0.4343  0.4551  0.2622
 9631SOL    HW229737   1.267   5.220   5.418  1.0117 -2.4776  1.0969
 9632SOL     OW29738   6.207   1.323   1.823 -0.3759  0.3274  0.1373
 9632SOL    HW129739   6.293   1.365   1.819 -1.3026  2.3649  0.2741
 9632SOL    HW229740   6.148   1.393   1.851 -2.0289 -1.1092  0.3626
 9633SOL     OW29741   4.965   7.959   7.834  0.3717  0.3094  0.6261
 9633SOL    HW129742   4.895   8.014   7.869  0.2084  0.6885 -0.2549
 9633SOL    HW229743   4.978   7.890   7.899 -2.1190 -0.8737 -0.0190
 9634SOL     OW29744   4.116   4.698   6.305 -0.3075 -0.2119  0.0730
 9634SOL    HW129745   4.072   4.780   6.323  3.3064  2.5150 -2.0053
 9634SOL    HW229746   4.086   4.673   6.217  0.2623  0.2550 -0.2702
 9635SOL     OW29747   1.288   6.618   4.279  0.1927 -0.1043  0.2840
 9635SOL    HW129748   1.202   6.658   4.278 -0.0038 -0.4996  0.7294
 9635SOL    HW229749   1.270   6.524   4.289  0.6614 -0.2343 -0.0484
 9636SOL     OW29750   6.841   3.828   2.633  0.2011  0.2617  0.4406
 9636SOL    HW129751   6.890   3.837   2.551 -2.7102 -1.6468 -1.7270
 9636SOL    HW229752   6.760   3.784   2.607 -1.0540 -0.0754  4.3435
 9637SOL     OW29753   3.510   4.577   5.008 -0.3215 -0.2283  0.4971
 9637SOL    HW129754   3.517   4.541   4.920  2.0366  1.6936 -0.2151
 9637SOL    HW229755   3.578   4.532   5.058  0.9718  1.3675  0.2491
 9638SOL     OW29756   8.109   6.508   2.734  0.2950  0.2757 -0.1599
 9638SOL    HW129757   8.099   6.414   2.749 -0.2497  0.4054  0.2938
 9638SOL    HW229758   8.057   6.525   2.655 -0.8960  0.4663  0.6486
 9639SOL     OW29759   3.426   4.645   0.181 -0.0429 -0.6060  0.0480
 9639SOL    HW129760   3.496   4.585   0.155  1.1889  0.7495  0.0704
 9639SOL    HW229761   3.405   4.694   0.102  0.1324  0.0510  0.4022
 9640SOL     OW29762   7.700   2.633   0.117 -0.1530 -0.0227 -0.1925
 9640SOL    HW129763   7.638   2.609   0.048 -0.8846  1.0994  0.0582
 9640SOL    HW229764   7.664   2.713   0.155 -0.9910 -1.7425  3.0089
 9641SOL     OW29765   3.498   3.845   7.333  0.5747  0.0089 -0.3237
 9641SOL    HW129766   3.491   3.928   7.287  2.1241  0.6805  0.5839
 9641SOL    HW229767   3.546   3.787   7.273  0.5993  0.1605 -0.4499
 9642SOL     OW29768   5.734   4.452   5.527  0.6166 -0.3219 -0.0376
 9642SOL    HW129769   5.727   4.452   5.622  0.5027  2.1730  0.0208
 9642SOL    HW229770   5.669   4.388   5.498 -0.5611  0.1039  1.5112
 9643SOL     OW29771   7.784   7.061   2.884  0.2819  0.6836 -0.2509
 9643SOL    HW129772   7.735   7.053   2.802 -1.9750 -0.4985  1.0811
 9643SOL    HW229773   7.866   7.102   2.860 -0.5645  0.9578 -2.9894
 9644SOL     OW29774   7.747   4.054   2.956 -0.2562 -0.5110 -0.7712
 9644SOL    HW129775   7.753   4.001   2.876  0.9219 -1.8537  0.1734
 9644SOL    HW229776   7.790   4.002   3.023 -1.9404  0.2197  0.9690
 9645SOL     OW29777   3.612   6.971   4.614  0.0394 -0.5492 -0.0412
 9645SOL    HW129778   3.610   6.892   4.668 -0.3335 -1.5323 -1.4528
 9645SOL    HW229779   3.528   7.014   4.631  1.2254  0.9301  2.6466
 9646SOL     OW29780   5.172   0.095   3.482 -0.0866  0.2715 -0.0123
 9646SOL    HW129781   5.119   0.150   3.424 -0.7925 -0.4237 -0.0338
 9646SOL    HW229782   5.255   0.143   3.491 -0.0033  0.4365 -1.5005
 9647SOL     OW29783   0.049   3.964   3.027  0.3613 -1.0458  0.6249
 9647SOL    HW129784   0.086   3.905   3.093  0.5083 -1.0472  0.5437
 9647SOL    HW229785   0.052   3.913   2.946  1.6913 -0.4954  0.2877
 9648SOL     OW29786   0.355   1.952   2.477 -0.0328  0.1043  0.2592
 9648SOL    HW129787   0.386   1.865   2.504 -0.8498  0.4011  2.3948
 9648SOL    HW229788   0.368   1.955   2.383 -0.6097 -2.6015  0.0246
 9649SOL     OW29789   7.897   4.003   7.865 -0.6592  0.7015  0.0629
 9649SOL    HW129790   7.892   3.917   7.824  2.3268  0.3833  0.1933
 9649SOL    HW229791   7.955   4.054   7.808  0.4135  1.4801  1.7730
 9650SOL     OW29792   0.141   5.751   0.872 -0.7292  0.2135 -0.1697
 9650SOL    HW129793   0.084   5.787   0.803 -1.3290  2.8101  1.5423
 9650SOL    HW229794   0.081   5.730   0.944  0.1767  0.1167  0.5724
 9651SOL     OW29795   5.000   7.744   0.391 -0.1976  0.4438 -0.3212
 9651SOL    HW129796   5.031   7.655   0.411 -1.3172  0.4583  1.7589
 9651SOL    HW229797   4.916   7.732   0.348 -1.5064  0.4329  2.0721
 9652SOL     OW29798   7.577   7.586   0.226 -0.0369 -0.2154 -0.6145
 9652SOL    HW129799   7.508   7.528   0.259  2.4293 -2.6138  0.7768
 9652SOL    HW229800   7.540   7.674   0.232 -3.0680 -1.3788 -0.3689
 9653SOL     OW29801   3.812   6.737   1.517 -0.4160  0.2381  0.4343
 9653SOL    HW129802   3.829   6.646   1.543 -0.5212  0.2288  0.4704
 9653SOL    HW229803   3.780   6.731   1.427 -0.9519  0.1943  0.6259
 9654SOL     OW29804   1.960   5.826   4.394  0.4741  0.5985 -0.0531
 9654SOL    HW129805   1.976   5.752   4.335  0.0734  0.7378 -0.3431
 9654SOL    HW229806   1.912   5.787   4.467 -0.8539  0.7693 -0.7926
 9655SOL     OW29807   5.555   7.073   3.972 -0.4494 -0.1366 -0.4093
 9655SOL    HW129808   5.525   7.072   3.881 -2.7119  1.9808  0.2095
 9655SOL    HW229809   5.540   6.984   4.004 -0.5683 -0.6423 -1.8086
 9656SOL     OW29810   7.400   2.889   2.644 -0.0627  0.2141  0.0047
 9656SOL    HW129811   7.391   2.850   2.730 -0.8627  0.9405  0.2734
 9656SOL    HW229812   7.332   2.847   2.591  1.4458 -1.4017 -0.7598
 9657SOL     OW29813   5.067   3.548   4.238 -0.4273 -0.3184  0.1068
 9657SOL    HW129814   5.081   3.642   4.225 -3.1580 -0.0120 -1.2563
 9657SOL    HW229815   5.034   3.517   4.154 -0.9502 -2.2203  0.9691
 9658SOL     OW29816   6.418   0.532   8.026  0.2633 -0.0180 -0.3882
 9658SOL    HW129817   6.494   0.580   8.057 -0.4705 -0.7487  2.9628
 9658SOL    HW229818   6.343   0.580   8.062 -0.7729 -0.5538 -1.7346
 9659SOL     OW29819   2.220   1.917   4.329  0.2883 -0.2202 -0.4757
 9659SOL    HW129820   2.197   1.842   4.385 -1.1696  0.3282 -0.3033
 9659SOL    HW229821   2.193   1.891   4.241  1.6356 -0.6737 -0.7731
 9660SOL     OW29822   3.449   7.314   6.547  0.7117  0.1229  0.2928
 9660SOL    HW129823   3.463   7.247   6.480  1.3696  1.6410 -1.1725
 9660SOL    HW229824   3.403   7.269   6.617 -0.3502 -1.4671 -1.3381
 9661SOL     OW29825   2.811   3.988   4.309 -0.4693  0.3851 -0.1524
 9661SOL    HW129826   2.894   3.973   4.355 -0.1699  1.3760 -0.3465
 9661SOL    HW229827   2.838   4.017   4.221 -0.9959  1.9482  0.1677
 9662SOL     OW29828   8.039   4.587   6.188  0.4223  0.2451 -0.4506
 9662SOL    HW129829   8.124   4.546   6.174 -1.0969 -2.8074 -1.8634
 9662SOL    HW229830   8.008   4.609   6.100 -0.9292 -0.3409 -0.1538
 9663SOL     OW29831   1.936   2.331   4.555 -0.4101 -0.0934  0.0355
 9663SOL    HW129832   2.005   2.269   4.534 -1.2585 -0.4013 -2.1227
 9663SOL    HW229833   1.981   2.414   4.571  0.6798 -1.0362  2.2322
 9664SOL     OW29834   3.491   1.988   0.252  0.5100  0.5226  0.0608
 9664SOL    HW129835   3.461   2.031   0.172  0.7326 -0.8542 -0.7881
 9664SOL    HW229836   3.493   2.058   0.317  0.5335  1.7145 -1.1789
 9665SOL     OW29837   4.131   7.528   0.085 -0.2108  0.2029  0.1816
 9665SOL    HW129838   4.103   7.502   0.173  0.4828  1.5470  0.8246
 9665SOL    HW229839   4.218   7.489   0.075  0.0494  0.7080  0.4224
 9666SOL     OW29840   2.368   5.454   0.752  0.2200  0.8792 -0.0703
 9666SOL    HW129841   2.412   5.538   0.750  0.1488  0.9056 -0.7424
 9666SOL    HW229842   2.329   5.445   0.665 -1.0403  0.8306  0.4723
 9667SOL     OW29843   5.009   2.833   7.850 -0.2980 -0.5756  0.6915
 9667SOL    HW129844   4.979   2.879   7.772  0.4668 -1.6901 -0.2912
 9667SOL    HW229845   4.949   2.861   7.919 -0.7987  0.6750 -0.2117
 9668SOL     OW29846   7.894   5.296   4.969 -0.1784 -0.0235  0.4834
 9668SOL    HW129847   7.968   5.306   5.029 -1.3990 -1.6891  2.3902
 9668SOL    HW229848   7.830   5.361   4.998 -0.4803 -0.3313  0.5193
 9669SOL     OW29849   5.753   3.477   7.394 -0.0821  0.8921  0.2589
 9669SOL    HW129850   5.680   3.466   7.333 -0.3731 -1.0621  0.8990
 9669SOL    HW229851   5.723   3.436   7.475  0.9247  1.9943  1.2307
 9670SOL     OW29852   6.847   3.907   6.622 -0.6077 -0.6634  0.1584
 9670SOL    HW129853   6.851   3.993   6.580  0.9898 -0.5135  0.5487
 9670SOL    HW229854   6.769   3.865   6.585 -0.6796  0.4507 -1.0070
 9671SOL     OW29855   5.631   3.552   5.606  0.0366 -0.1869  0.0704
 9671SOL    HW129856   5.636   3.462   5.576 -0.9758 -0.3501  0.3479
 9671SOL    HW229857   5.542   3.561   5.641 -0.2721  1.2225 -0.9541
 9672SOL     OW29858   7.346   7.932   3.746  0.6402  0.3550 -0.0645
 9672SOL    HW129859   7.274   7.937   3.809  1.3121 -1.1140  0.8804
 9672SOL    HW229860   7.378   8.022   3.739 -1.2377  1.0400 -0.4968
 9673SOL     OW29861   2.496   7.633   4.033 -0.1978  0.2358  0.1702
 9673SOL    HW129862   2.413   7.663   3.995 -0.9998 -0.3301  1.4165
 9673SOL    HW229863   2.541   7.713   4.059 -1.0373  0.4937  0.8714
 9674SOL     OW29864   3.273   5.611   4.349  0.3927 -0.0927  0.0823
 9674SOL    HW129865   3.299   5.632   4.259  1.1028 -0.4527  0.1936
 9674SOL    HW229866   3.348   5.638   4.402 -0.3003  0.7800  0.6568
 9675SOL     OW29867   1.185   2.352   3.977 -0.2162 -0.1634  0.4571
 9675SOL    HW129868   1.164   2.261   3.995 -0.6361 -0.1308  0.1500
 9675SOL    HW229869   1.173   2.362   3.883 -0.4267  0.2692  0.5239
 9676SOL     OW29870   5.281   5.140   6.507 -0.2290  0.6667  0.3401
 9676SOL    HW129871   5.303   5.233   6.512 -0.8671  0.7714  1.4465
 9676SOL    HW229872   5.185   5.138   6.504 -0.2298  0.0305  0.5340
 9677SOL     OW29873   5.520   6.906   4.852  0.0635 -0.4560 -0.1066
 9677SOL    HW129874   5.518   7.001   4.861 -1.4173 -0.5881  1.3485
 9677SOL    HW229875   5.592   6.878   4.909 -0.0930 -0.2715  0.1836
 9678SOL     OW29876   3.542   3.402   0.885 -0.5696 -0.0012  0.6006
 9678SOL    HW129877   3.495   3.469   0.834  0.3207 -1.6321 -2.6421
 9678SOL    HW229878   3.492   3.322   0.870 -0.3476 -0.5484  2.5552
 9679SOL     OW29879   0.327   0.152   2.115 -0.7296  0.1738 -0.4818
 9679SOL    HW129880   0.403   0.189   2.071 -1.4476  2.2743 -0.0607
 9679SOL    HW229881   0.344   0.057   2.116  2.1320  0.5990  0.1026
 9680SOL     OW29882   5.719   1.593   3.981  0.2822  0.3854  0.3275
 9680SOL    HW129883   5.733   1.499   3.979  0.9554  0.4661 -1.9786
 9680SOL    HW229884   5.759   1.622   4.064  3.3543 -0.9553 -0.5327
 9681SOL     OW29885   6.600   6.383   5.002  0.1579  0.4666  0.4079
 9681SOL    HW129886   6.605   6.329   5.082  0.6672 -1.7271 -1.0044
 9681SOL    HW229887   6.675   6.442   5.009  0.5942 -0.1527  1.2750
 9682SOL     OW29888   8.066   3.313   8.015  0.1517 -0.4701  0.2645
 9682SOL    HW129889   8.130   3.265   7.963 -0.2142 -2.1746  1.2738
 9682SOL    HW229890   7.982   3.273   7.992  0.0721 -1.9697  2.7509
 9683SOL     OW29891   3.048   7.429   0.893  0.3438 -0.0997 -0.3383
 9683SOL    HW129892   3.125   7.376   0.914  0.4297  0.3508  0.5617
 9683SOL    HW229893   3.073   7.479   0.815  1.1449  0.3940  0.2197
 9684SOL     OW29894   5.425   7.178   5.191  0.0331  0.3585  0.2087
 9684SOL    HW129895   5.421   7.087   5.220  0.9470  0.4132  0.5388
 9684SOL    HW229896   5.486   7.178   5.117 -0.2031  0.6542  0.0107
 9685SOL     OW29897   1.737   6.920   6.725  0.0178  0.1355 -0.3834
 9685SOL    HW129898   1.648   6.907   6.757 -0.3821 -0.1021 -1.5687
 9685SOL    HW229899   1.789   6.854   6.771 -0.3378  0.5102  0.5874
 9686SOL     OW29900   1.573   3.159   3.698  0.0345  0.1845 -0.2328
 9686SOL    HW129901   1.621   3.191   3.774 -0.1842 -1.0347  0.4354
 9686SOL    HW229902   1.637   3.106   3.650  0.6144  2.1018 -1.7309
 9687SOL     OW29903   6.762   7.489   5.884 -0.1771 -0.3938  0.8094
 9687SOL    HW129904   6.739   7.400   5.912  1.5981 -0.9015  0.7920
 9687SOL    HW229905   6.820   7.521   5.953 -0.1254  0.4409  0.3909
 9688SOL     OW29906   5.930   2.530   5.289  0.1808 -0.7748 -0.3533
 9688SOL    HW129907   5.891   2.460   5.341  0.7953 -1.2523 -0.5244
 9688SOL    HW229908   5.859   2.594   5.279  0.0884 -0.5925  1.1832
 9689SOL     OW29909   5.567   4.758   4.965 -0.0250 -0.1874  0.2588
 9689SOL    HW129910   5.605   4.822   4.906 -0.2431 -0.2067  0.0963
 9689SOL    HW229911   5.637   4.736   5.026 -0.2523  1.0166  0.9829
 9690SOL     OW29912   4.219   2.240   3.199  0.4382 -0.3509 -0.3651
 9690SOL    HW129913   4.298   2.227   3.252 -0.1311  1.1136  0.9621
 9690SOL    HW229914   4.218   2.334   3.181 -0.8255 -0.3939 -0.6212
 9691SOL     OW29915   0.921   6.897   3.833  0.4112 -0.4260  0.6725
 9691SOL    HW129916   0.839   6.849   3.846  0.4330 -0.4304  0.8004
 9691SOL    HW229917   0.895   6.988   3.827  0.2274 -0.5481 -0.8900
 9692SOL     OW29918   3.814   6.454   4.968  0.1849  0.6615  0.1556
 9692SOL    HW129919   3.820   6.364   4.999  1.6939  1.0373  1.0919
 9692SOL    HW229920   3.780   6.503   5.042 -1.3859  0.7694 -0.6082
 9693SOL     OW29921   7.876   3.180   0.542  0.7151 -0.3704 -0.4164
 9693SOL    HW129922   7.946   3.245   0.536  1.4206 -1.0463  0.3170
 9693SOL    HW229923   7.857   3.157   0.451  1.7917 -0.5314 -0.6076
 9694SOL     OW29924   4.657   6.599   6.150  0.2279  0.3353  0.0652
 9694SOL    HW129925   4.710   6.563   6.221 -1.3933 -1.6853  0.3419
 9694SOL    HW229926   4.718   6.652   6.099  1.7266  0.8200  2.2172
 9695SOL     OW29927   3.294   3.507   3.146 -0.2721  0.2153  0.0361
 9695SOL    HW129928   3.384   3.479   3.127 -0.2985 -0.4322  0.8315
 9695SOL    HW229929   3.240   3.454   3.088 -0.1354  0.9590 -0.8121
 9696SOL     OW29930   6.366   6.938   0.704  0.1578  0.3463 -0.1027
 9696SOL    HW129931   6.403   6.972   0.623  1.0973 -0.6443 -0.1079
 9696SOL    HW229932   6.436   6.886   0.742 -0.3188  0.6932  1.2900
 9697SOL     OW29933   7.358   7.632   2.303 -0.2716  0.1588  0.3764
 9697SOL    HW129934   7.432   7.634   2.364 -0.5938  0.5524  0.7656
 9697SOL    HW229935   7.332   7.724   2.294 -0.1657  0.1172 -0.4428
 9698SOL     OW29936   5.511   5.998   4.310 -0.7573  0.0285 -0.2454
 9698SOL    HW129937   5.440   6.047   4.268 -0.9727 -0.5590 -0.5762
 9698SOL    HW229938   5.476   5.973   4.395 -0.2305  1.4403  0.4209
 9699SOL     OW29939   6.973   7.211   7.583 -0.0191  0.4255  0.4430
 9699SOL    HW129940   7.007   7.295   7.614  1.9076  0.1325 -0.6773
 9699SOL    HW229941   7.011   7.201   7.495 -2.3180 -0.4259 -0.5536
 9700SOL     OW29942   6.266   7.921   8.006 -0.0350  0.6278 -0.4339
 9700SOL    HW129943   6.227   7.892   7.923 -0.2349 -0.4727  0.0301
 9700SOL    HW229944   6.198   7.907   8.071  0.1453  1.4315 -0.0664
 9701SOL     OW29945   0.982   3.829   5.321  0.4727 -0.6415 -0.5545
 9701SOL    HW129946   1.060   3.803   5.371  0.8431 -1.6660 -1.6199
 9701SOL    HW229947   0.911   3.824   5.384  1.1855 -0.1873  0.3106
 9702SOL     OW29948   5.924   7.914   1.230 -0.3939 -0.1171  0.1442
 9702SOL    HW129949   5.994   7.960   1.277  1.6733 -0.9253 -1.9662
 9702SOL    HW229950   5.918   7.829   1.274  1.6197 -0.9266 -1.0154
 9703SOL     OW29951   5.629   1.868   6.621  0.7684  0.5874 -0.1904
 9703SOL    HW129952   5.660   1.929   6.688  2.1054  2.9668 -2.7549
 9703SOL    HW229953   5.543   1.901   6.597  0.0358 -0.6104  0.6700
 9704SOL     OW29954   5.520   0.925   1.274 -0.0808  0.2782 -0.3640
 9704SOL    HW129955   5.597   0.981   1.269  2.2386 -2.6120  0.3018
 9704SOL    HW229956   5.521   0.889   1.363 -1.2202 -1.0926 -0.8494
 9705SOL     OW29957   1.144   0.772   2.499  0.1467  0.3634 -1.1684
 9705SOL    HW129958   1.074   0.827   2.534 -0.1254 -2.0781  2.6560
 9705SOL    HW229959   1.222   0.797   2.550 -0.2349 -3.2462  1.5445
 9706SOL     OW29960   6.249   0.574   0.223  0.4612  0.5074 -0.3335
 9706SOL    HW129961   6.264   0.480   0.230  0.1690  0.5799  3.3562
 9706SOL    HW229962   6.156   0.582   0.202 -0.0330 -0.1100  1.4533
 9707SOL     OW29963   4.528   0.676   6.612  0.4950  0.3065  0.0126
 9707SOL    HW129964   4.596   0.740   6.591  1.4011  0.2046  2.3675
 9707SOL    HW229965   4.453   0.729   6.639  0.2432  0.3931 -0.8383
 9708SOL     OW29966   3.378   1.591   0.204  0.3848 -0.5011  0.9206
 9708SOL    HW129967   3.344   1.681   0.200  1.9689  0.1173 -1.5139
 9708SOL    HW229968   3.459   1.599   0.255  0.2682 -0.6553  1.1300
 9709SOL     OW29969   2.247   7.983   3.069  0.0177  0.5872  0.4825
 9709SOL    HW129970   2.255   8.071   3.032 -0.4933  0.6857  0.5963
 9709SOL    HW229971   2.281   7.925   3.001  0.5815  0.8910  0.5024
 9710SOL     OW29972   3.797   5.412   5.019  0.1832 -0.1743  0.4871
 9710SOL    HW129973   3.730   5.392   5.085 -0.1935  0.1575  0.2085
 9710SOL    HW229974   3.760   5.380   4.937 -0.3005  1.3633  0.0819
 9711SOL     OW29975   3.899   0.225   1.202  0.7211 -0.4265  0.0711
 9711SOL    HW129976   3.891   0.134   1.174 -0.3969  0.0660 -1.3300
 9711SOL    HW229977   3.809   0.255   1.212  1.0039  1.0518 -1.3754
 9712SOL     OW29978   7.730   1.278   3.095 -0.1701  0.0895 -0.3838
 9712SOL    HW129979   7.749   1.369   3.072  0.3365  0.5895  1.8493
 9712SOL    HW229980   7.814   1.233   3.087 -0.0808  0.1744  0.0611
 9713SOL     OW29981   2.259   3.185   7.392 -0.3324 -0.1242  0.7879
 9713SOL    HW129982   2.196   3.117   7.416  0.2080 -0.2651  1.8807
 9713SOL    HW229983   2.216   3.234   7.322 -2.3495  0.7442  2.5070
 9714SOL     OW29984   0.870   1.123   6.305 -0.8094 -0.2967 -0.2059
 9714SOL    HW129985   0.945   1.127   6.365 -0.8188  1.8776 -0.2729
 9714SOL    HW229986   0.905   1.084   6.225 -0.3184 -1.3613  0.4970
 9715SOL     OW29987   3.133   5.242   4.711  0.0939 -0.4815  0.1555
 9715SOL    HW129988   3.157   5.182   4.641 -2.6185 -1.6794  0.0985
 9715SOL    HW229989   3.073   5.304   4.669 -1.3073 -1.0109  1.2894
 9716SOL     OW29990   1.826   7.873   6.577 -0.2254 -0.5218 -0.3016
 9716SOL    HW129991   1.862   7.807   6.518  0.9631  0.0296 -0.2245
 9716SOL    HW229992   1.899   7.896   6.635 -1.0251 -0.1701  0.5935
 9717SOL     OW29993   3.396   6.387   8.087  0.3053 -0.0522 -0.1375
 9717SOL    HW129994   3.471   6.345   8.129  0.5941 -0.3593 -0.9388
 9717SOL    HW229995   3.320   6.347   8.129  0.5408  1.5976  2.0055
 9718SOL     OW29996   7.200   2.885   2.254  0.2551 -0.5869  0.2475
 9718SOL    HW129997   7.204   2.899   2.160 -0.4254  0.7975  0.3884
 9718SOL    HW229998   7.225   2.793   2.267 -0.2629 -0.9686 -1.3226
 9719SOL     OW29999   5.073   7.709   1.794  0.9605  0.3214  0.5291
 9719SOL    HW130000   5.076   7.648   1.721  1.2774  0.5926  0.3129
 9719SOL    HW230001   5.007   7.774   1.769  0.9801  0.3449  0.5379
 9720SOL     OW30002   1.950   7.018   1.587 -0.0587  0.4591  0.3796
 9720SOL    HW130003   1.865   6.974   1.599  0.6877 -1.2829 -0.2969
 9720SOL    HW230004   2.008   6.975   1.650  0.8075  0.1521 -0.6070
 9721SOL     OW30005   3.677   7.362   6.287 -0.1068  0.7391  0.7345
 9721SOL    HW130006   3.629   7.283   6.262  1.4736 -0.4017  1.1794
 9721SOL    HW230007   3.640   7.386   6.372  0.9028 -0.8670  1.6777
 9722SOL     OW30008   2.027   3.499   3.765  0.3634 -0.2702 -0.6044
 9722SOL    HW130009   2.071   3.557   3.702  1.0715 -1.0136 -0.8126
 9722SOL    HW230010   2.097   3.467   3.821 -0.3447  0.8570  0.9966
 9723SOL     OW30011   3.008   3.590   7.225 -0.0509  0.2176 -0.2430
 9723SOL    HW130012   2.923   3.546   7.232 -0.0734  0.5359  5.0676
 9723SOL    HW230013   2.997   3.649   7.150 -3.6112 -1.3913 -1.2237
 9724SOL     OW30014   0.401   7.561   0.429  0.2376 -0.3115  0.0743
 9724SOL    HW130015   0.480   7.572   0.375 -0.2645  0.7144 -0.4822
 9724SOL    HW230016   0.351   7.642   0.415 -1.5435 -1.4734 -0.6249
 9725SOL     OW30017   5.556   4.274   5.427 -0.5421  0.5301  0.1485
 9725SOL    HW130018   5.522   4.195   5.470 -0.8441 -0.0816 -1.1768
 9725SOL    HW230019   5.478   4.320   5.396 -0.3145  0.8312  0.0193
 9726SOL     OW30020   0.332   5.540   0.395  0.0185  0.1210 -0.4078
 9726SOL    HW130021   0.248   5.521   0.436  0.4466  0.1778  0.5355
 9726SOL    HW230022   0.391   5.474   0.431  0.2235 -0.3776 -1.6247
 9727SOL     OW30023   4.113   2.293   0.718 -0.3502 -0.3832 -0.1711
 9727SOL    HW130024   4.101   2.209   0.675  0.8088 -0.0222 -1.2591
 9727SOL    HW230025   4.187   2.333   0.672 -1.2300  1.4620 -0.0464
 9728SOL     OW30026   4.759   8.019   3.105  0.1640  0.1212 -0.6813
 9728SOL    HW130027   4.709   7.947   3.143 -0.1262  1.1018  0.8720
 9728SOL    HW230028   4.705   8.096   3.119  0.2901  0.6230 -2.6751
 9729SOL     OW30029   0.556   6.698   4.443  0.3066 -0.0813  0.1066
 9729SOL    HW130030   0.484   6.635   4.441  1.0191 -0.9023 -1.5553
 9729SOL    HW230031   0.525   6.771   4.388  1.7477 -1.7070 -3.1192
 9730SOL     OW30032   4.033   2.670   1.518  0.1473  0.6578  0.3637
 9730SOL    HW130033   4.048   2.711   1.432 -5.3724  2.0265 -0.3350
 9730SOL    HW230034   3.966   2.604   1.502  1.0226 -1.1523  3.3124
 9731SOL     OW30035   5.949   7.519   7.382  0.2095  0.7509  0.5014
 9731SOL    HW130036   5.948   7.424   7.368 -3.0436  0.3775  2.2615
 9731SOL    HW230037   5.951   7.529   7.478 -3.5551  2.2226  0.5774
 9732SOL     OW30038   0.135   7.189   2.062 -0.0689  0.1930 -0.4304
 9732SOL    HW130039   0.177   7.205   1.977  0.0011 -1.1690 -0.6678
 9732SOL    HW230040   0.089   7.106   2.051  1.0224 -0.6931  1.2404
 9733SOL     OW30041   8.205   0.791   1.678 -0.3231  0.2150 -0.2800
 9733SOL    HW130042   8.282   0.844   1.703  0.3167 -0.4914 -0.7169
 9733SOL    HW230043   8.242   0.707   1.651 -1.4192 -1.0602  1.9153
 9734SOL     OW30044   5.930   1.939   5.252  0.0123 -1.0151  0.7750
 9734SOL    HW130045   5.954   1.993   5.327  0.1695 -0.5535  0.3967
 9734SOL    HW230046   5.939   1.997   5.176 -1.1547 -1.1778  0.5028
 9735SOL     OW30047   0.402   2.533   5.135 -0.1277 -0.8527 -0.2002
 9735SOL    HW130048   0.318   2.488   5.139 -0.9196  0.5744  0.0362
 9735SOL    HW230049   0.443   2.516   5.220 -0.1304 -1.6007 -0.3398
 9736SOL     OW30050   5.965   4.824   6.580 -0.0625  0.0776  0.1865
 9736SOL    HW130051   5.870   4.810   6.583  0.0861 -0.9367  0.5399
 9736SOL    HW230052   5.998   4.751   6.528  0.5406  0.3828  0.1377
 9737SOL     OW30053   4.235   2.181   2.078 -0.6350  0.0731  0.0103
 9737SOL    HW130054   4.322   2.166   2.041 -0.0633  1.6320  0.6181
 9737SOL    HW230055   4.221   2.108   2.137  0.8343  0.4385  0.8687
 9738SOL     OW30056   8.070   4.421   4.482  0.4396  0.4136 -0.3750
 9738SOL    HW130057   8.155   4.389   4.453  0.7431 -0.1898  1.0538
 9738SOL    HW230058   8.089   4.505   4.524  0.2557  0.5126 -0.4893
 9739SOL     OW30059   8.021   5.306   0.317  0.1533  0.0800 -0.1019
 9739SOL    HW130060   8.074   5.384   0.299  0.9572 -0.2648  0.6936
 9739SOL    HW230061   7.932   5.332   0.293  0.0834  1.8447  1.7757
 9740SOL     OW30062   2.886   1.832   6.644 -0.0553  0.5145  0.2347
 9740SOL    HW130063   2.824   1.904   6.647  0.9573  1.5022 -1.1396
 9740SOL    HW230064   2.892   1.801   6.735 -1.1208  1.6240  0.7040
 9741SOL     OW30065   2.694   3.670   4.285  0.2077  0.1084 -0.8742
 9741SOL    HW130066   2.681   3.608   4.357  1.4873  0.1497 -0.5894
 9741SOL    HW230067   2.634   3.742   4.304  1.4557  0.7509  0.9103
 9742SOL     OW30068   6.456   8.157   6.454  0.2945  0.0190 -0.3279
 9742SOL    HW130069   6.377   8.182   6.407 -0.6403 -1.5315  0.3492
 9742SOL    HW230070   6.474   8.068   6.425  0.1870 -0.6604  1.5445
 9743SOL     OW30071   5.032   2.046   7.213  0.1032  0.4344 -0.0628
 9743SOL    HW130072   4.956   2.009   7.257  0.8815 -1.0550  0.0955
 9743SOL    HW230073   5.017   2.029   7.120  0.3617 -0.1104 -0.0082
 9744SOL     OW30074   4.083   0.844   0.989  0.3331  0.1464  0.1393
 9744SOL    HW130075   4.149   0.781   1.016  0.3891  0.2076  0.1440
 9744SOL    HW230076   4.099   0.856   0.895  0.1575 -0.0442  0.0835
 9745SOL     OW30077   1.845   5.788   3.202 -0.1277  0.2614  0.4617
 9745SOL    HW130078   1.895   5.759   3.278 -0.6712 -0.0984  0.6909
 9745SOL    HW230079   1.806   5.871   3.230  2.5208  1.9920 -0.6588
 9746SOL     OW30080   7.078   5.087   5.838 -0.1729  0.5550  0.1704
 9746SOL    HW130081   7.081   5.173   5.879 -0.5428  1.3358 -1.3605
 9746SOL    HW230082   7.165   5.074   5.800 -0.5453  0.8951 -0.8214
 9747SOL     OW30083   5.255   3.331   4.335 -0.6528 -0.2203 -0.3429
 9747SOL    HW130084   5.220   3.415   4.308  0.4327  0.0913 -0.8312
 9747SOL    HW230085   5.210   3.267   4.280 -0.6441  0.1489 -0.7818
 9748SOL     OW30086   2.056   7.774   7.066 -0.3155  0.4205 -0.0648
 9748SOL    HW130087   2.014   7.835   7.127 -1.0642  0.3595 -0.5048
 9748SOL    HW230088   2.054   7.689   7.111  0.2199  0.6028  0.3146
 9749SOL     OW30089   6.051   0.243   2.359 -0.2060 -0.2714  0.2928
 9749SOL    HW130090   5.996   0.205   2.427 -0.0036 -0.0277  0.5945
 9749SOL    HW230091   5.997   0.238   2.280 -0.3623 -0.7478  0.4236
 9750SOL     OW30092   1.447   3.480   2.113 -0.4690 -0.1279 -0.4245
 9750SOL    HW130093   1.452   3.511   2.022 -1.5869  0.2101 -0.3910
 9750SOL    HW230094   1.395   3.400   2.108 -1.4368  0.4551  0.0319
 9751SOL     OW30095   5.685   0.139   2.941 -0.2820  0.0925  0.3263
 9751SOL    HW130096   5.743   0.173   2.873 -0.7913 -0.2995 -0.3198
 9751SOL    HW230097   5.740   0.079   2.991 -0.2125 -0.5992 -0.5421
 9752SOL     OW30098   1.315   6.641   4.617  0.1178 -0.4418  0.1402
 9752SOL    HW130099   1.347   6.557   4.651 -2.3118 -0.6349  2.3643
 9752SOL    HW230100   1.240   6.617   4.563 -2.7418  0.2015  3.4359
 9753SOL     OW30101   2.310   6.370   4.033  0.1192  0.1014 -0.0657
 9753SOL    HW130102   2.226   6.332   4.057 -0.2626 -0.6521 -2.3320
 9753SOL    HW230103   2.374   6.303   4.058 -0.0194  0.3084  0.8750
 9754SOL     OW30104   5.243   1.255   0.552 -0.0799 -0.0117 -0.0090
 9754SOL    HW130105   5.312   1.189   0.546  0.0534  0.0509  0.6794
 9754SOL    HW230106   5.242   1.280   0.645 -0.1871  0.8869 -0.2421
 9755SOL     OW30107   4.566   5.995   2.420  1.2054  0.2187  0.3062
 9755SOL    HW130108   4.551   6.089   2.414 -0.2127  0.0729  1.3575
 9755SOL    HW230109   4.561   5.975   2.513 -2.4277 -1.4652 -0.1189
 9756SOL     OW30110   4.128   5.769   3.664  0.0851  0.5688 -0.1844
 9756SOL    HW130111   4.073   5.845   3.648 -1.1940 -0.6452 -2.0425
 9756SOL    HW230112   4.077   5.695   3.631  2.5729 -0.7144 -1.5291
 9757SOL     OW30113   3.051   1.159   0.985  0.1740 -0.2170  0.4818
 9757SOL    HW130114   3.047   1.070   1.019 -0.8685 -0.1374  0.6310
 9757SOL    HW230115   3.009   1.154   0.899 -2.9378  0.6407  1.7950
 9758SOL     OW30116   2.177   6.890   0.769  0.3583 -0.4905 -0.4662
 9758SOL    HW130117   2.098   6.939   0.744 -0.8143 -1.5810  0.8997
 9758SOL    HW230118   2.157   6.799   0.747  1.5555 -0.6910 -0.7920
 9759SOL     OW30119   1.195   7.126   1.191  0.6559  0.4592  0.7270
 9759SOL    HW130120   1.249   7.163   1.121 -1.6698  0.5829 -1.1496
 9759SOL    HW230121   1.121   7.186   1.197 -0.0510 -0.5107  2.1074
 9760SOL     OW30122   6.329   5.316   5.458  0.1863  0.1018  0.2471
 9760SOL    HW130123   6.383   5.322   5.379 -0.9088  1.7269 -0.4395
 9760SOL    HW230124   6.380   5.358   5.527  0.3131  0.5101 -0.0953
 9761SOL     OW30125   7.429   1.065   1.599  0.5719  0.1229  0.4952
 9761SOL    HW130126   7.418   1.017   1.681  1.8078  0.2094  0.7285
 9761SOL    HW230127   7.445   1.156   1.626 -1.4270  0.6495  0.0680
 9762SOL     OW30128   0.233   6.902   1.881  0.1971 -0.4953  0.0988
 9762SOL    HW130129   0.256   6.862   1.796 -0.6038  0.6193 -0.6630
 9762SOL    HW230130   0.318   6.916   1.924  0.6937 -0.1400 -0.9572
 9763SOL     OW30131   1.370   0.091   3.402 -0.0528 -0.2587 -0.5467
 9763SOL    HW130132   1.304   0.134   3.456 -0.6968  0.2877 -1.7332
 9763SOL    HW230133   1.339   0.001   3.393  0.3986 -0.5277  0.5152
 9764SOL     OW30134   5.073   3.363   5.116  0.1391 -0.7637 -0.4389
 9764SOL    HW130135   5.166   3.351   5.096  0.4679 -1.8365  1.4859
 9764SOL    HW230136   5.061   3.323   5.202 -1.9256  0.1840 -0.2085
 9765SOL     OW30137   4.885   0.611   6.147  0.0945  0.4899 -0.0306
 9765SOL    HW130138   4.908   0.529   6.190  0.4373 -0.0985 -1.3115
 9765SOL    HW230139   4.934   0.678   6.195 -0.0710 -0.0609  0.9267
 9766SOL     OW30140   2.314   6.119   2.867  0.0137 -0.2260  0.0079
 9766SOL    HW130141   2.375   6.181   2.828 -0.2670  0.2824  0.3661
 9766SOL    HW230142   2.261   6.172   2.927 -0.2493 -0.8035  0.2943
 9767SOL     OW30143   1.242   3.485   6.293  0.5106  0.4950  0.2209
 9767SOL    HW130144   1.337   3.500   6.292  0.2888  2.2147  1.1413
 9767SOL    HW230145   1.205   3.565   6.256 -0.6094  0.0028  0.2457
 9768SOL     OW30146   4.349   7.439   3.902  0.2945  0.1254  0.8733
 9768SOL    HW130147   4.283   7.508   3.894  1.1705  0.7571 -3.0373
 9768SOL    HW230148   4.432   7.482   3.883  1.1971 -1.5482  0.8172
 9769SOL     OW30149   5.967   2.364   4.093  0.6328  0.1620 -0.0568
 9769SOL    HW130150   5.990   2.278   4.057 -0.3804  0.2039 -0.8219
 9769SOL    HW230151   6.047   2.392   4.139  0.9802 -1.1884  0.2290
 9770SOL     OW30152   0.162   0.202   5.491  0.5356  0.5142 -0.0104
 9770SOL    HW130153   0.237   0.191   5.432  2.1818  2.7956  1.4791
 9770SOL    HW230154   0.163   0.124   5.546  2.2991  0.7842  0.3999
 9771SOL     OW30155   4.209   3.379   6.682 -0.5115 -0.1770  0.0148
 9771SOL    HW130156   4.116   3.361   6.669 -1.4624  3.0319  1.3898
 9771SOL    HW230157   4.229   3.448   6.619  0.5299  0.2309  0.7681
 9772SOL     OW30158   1.195   5.413   0.758 -0.4794  0.7954 -0.2406
 9772SOL    HW130159   1.172   5.502   0.735 -0.8201  0.5070 -1.0298
 9772SOL    HW230160   1.206   5.368   0.675  2.8888  0.8679  0.0333
 9773SOL     OW30161   1.410   3.665   2.332 -0.0067 -0.5830  0.5073
 9773SOL    HW130162   1.319   3.694   2.335  0.1561 -0.0382  0.3091
 9773SOL    HW230163   1.412   3.598   2.264  0.3206  1.5663 -1.7242
 9774SOL     OW30164   1.508   7.596   4.685 -0.1906  0.7202 -0.3818
 9774SOL    HW130165   1.542   7.584   4.773 -1.4869 -1.2936 -0.0913
 9774SOL    HW230166   1.430   7.650   4.696 -0.7919 -0.1609 -0.1423
 9775SOL     OW30167   0.005   3.426   1.429 -0.6474  0.2215 -0.2984
 9775SOL    HW130168  -0.059   3.466   1.370 -1.4897  0.8395  0.9796
 9775SOL    HW230169  -0.046   3.368   1.486 -0.1020  0.6991  0.7217
 9776SOL     OW30170   5.134   2.520   2.995 -0.1281 -0.0441 -0.0697
 9776SOL    HW130171   5.210   2.468   3.021 -0.4429 -0.3065  0.3206
 9776SOL    HW230172   5.172   2.599   2.956  0.3562 -0.8871 -1.3652
 9777SOL     OW30173   3.293   6.018   2.450 -0.6473  0.6069 -0.4529
 9777SOL    HW130174   3.312   5.930   2.484 -0.7815  0.3544 -1.0210
 9777SOL    HW230175   3.361   6.073   2.487 -0.5319  0.2543 -0.1302
 9778SOL     OW30176   7.403   0.398   3.960 -0.7289  0.1339 -0.9702
 9778SOL    HW130177   7.456   0.336   3.909 -0.7255 -0.5961 -0.1110
 9778SOL    HW230178   7.465   0.466   3.985 -0.6137  0.2269 -1.4942
 9779SOL     OW30179   4.807   5.605   2.037  0.0192 -0.0996  0.5099
 9779SOL    HW130180   4.739   5.566   2.093 -0.0126  1.1606  1.4098
 9779SOL    HW230181   4.880   5.544   2.042 -0.5727 -0.8222  0.6006
 9780SOL     OW30182   5.510   2.242   1.300 -0.2298  0.3438 -0.3352
 9780SOL    HW130183   5.486   2.151   1.317 -1.2090  0.8385  1.0863
 9780SOL    HW230184   5.465   2.265   1.219 -1.2776  0.0171  0.1393
 9781SOL     OW30185   1.440   2.699   8.142  0.1424 -0.1588 -0.1338
 9781SOL    HW130186   1.419   2.606   8.131 -2.1561  0.4517 -1.8737
 9781SOL    HW230187   1.477   2.725   8.057  1.6174  0.3474  0.6369
 9782SOL     OW30188   7.122   1.062   8.197  0.1133  0.2691  0.0519
 9782SOL    HW130189   7.193   1.010   8.234  0.8158  0.7228 -0.6509
 9782SOL    HW230190   7.097   1.016   8.117 -0.0649  0.3641  0.0513
 9783SOL     OW30191   3.901   2.750   2.334  0.4674 -0.3373 -0.1169
 9783SOL    HW130192   3.945   2.667   2.316  1.0615 -0.5960  2.1847
 9783SOL    HW230193   3.820   2.724   2.378  0.3702  0.2781  0.0664
 9784SOL     OW30194   6.690   3.466   2.243  0.4184 -0.3212 -0.8345
 9784SOL    HW130195   6.744   3.388   2.229  0.7721  0.2028 -2.6559
 9784SOL    HW230196   6.744   3.538   2.210  0.0831  0.7234  0.7893
 9785SOL     OW30197   4.832   4.008   3.272  0.1958 -0.0991  0.0763
 9785SOL    HW130198   4.762   3.979   3.331  0.3045 -0.8243 -0.1425
 9785SOL    HW230199   4.827   4.104   3.274  0.6557 -0.0695  1.8111
 9786SOL     OW30200   4.697   5.754   6.269  0.0117  0.1205 -0.6218
 9786SOL    HW130201   4.609   5.760   6.232  0.5495  1.2760 -1.8002
 9786SOL    HW230202   4.684   5.763   6.364 -1.1386  0.1684 -0.7682
 9787SOL     OW30203   6.085   4.085   0.499  0.1861  1.0446  0.2178
 9787SOL    HW130204   6.003   4.038   0.516 -0.1116  1.0304 -1.0774
 9787SOL    HW230205   6.127   4.092   0.584  0.0527 -1.1821  0.5296
 9788SOL     OW30206   2.886   1.237   7.494  0.0619  0.3682 -0.2515
 9788SOL    HW130207   2.963   1.275   7.537 -0.0454  0.4040 -0.0870
 9788SOL    HW230208   2.812   1.289   7.527 -0.2067 -0.5992  0.7373
 9789SOL     OW30209   6.020   1.210   6.587 -0.1665 -0.2323 -0.6344
 9789SOL    HW130210   5.925   1.205   6.573 -0.1616 -0.3908 -0.6116
 9789SOL    HW230211   6.033   1.294   6.630 -0.5116 -1.0381  1.1087
 9790SOL     OW30212   5.039   1.871   1.468  0.2157 -0.0744 -0.3533
 9790SOL    HW130213   5.027   1.859   1.373 -3.1739 -0.9416  0.0770
 9790SOL    HW230214   5.086   1.793   1.496  0.0367 -0.4735 -1.1327
 9791SOL     OW30215   5.880   0.248   4.382 -0.0907 -0.1320 -0.2168
 9791SOL    HW130216   5.851   0.321   4.328  0.5338 -1.0924 -1.9338
 9791SOL    HW230217   5.863   0.170   4.328  0.3965 -1.1478  1.0510
 9792SOL     OW30218   4.519   2.238   5.280 -0.2298 -0.4076  0.1548
 9792SOL    HW130219   4.595   2.182   5.264 -1.5315 -1.9193 -1.0419
 9792SOL    HW230220   4.510   2.290   5.200 -2.8009 -3.2180 -1.6136
 9793SOL     OW30221   0.504   0.117   0.313 -0.3278 -0.0479 -0.4277
 9793SOL    HW130222   0.525   0.048   0.250 -0.0358  0.6450 -1.1102
 9793SOL    HW230223   0.582   0.172   0.315 -0.1444 -0.3347  0.9306
 9794SOL     OW30224   7.736   3.032   5.341  0.3374  0.1188 -0.2328
 9794SOL    HW130225   7.706   3.074   5.422 -0.4220 -0.2333 -0.3264
 9794SOL    HW230226   7.789   3.100   5.298  0.5713  0.3821  0.4479
 9795SOL     OW30227   4.934   5.180   7.049 -0.5336 -0.6028  0.1224
 9795SOL    HW130228   5.024   5.165   7.078 -0.2094  0.6966 -0.1467
 9795SOL    HW230229   4.880   5.144   7.120  0.2117 -0.2294  0.9021
 9796SOL     OW30230   7.807   5.217   2.391  0.0947 -0.0840  0.2677
 9796SOL    HW130231   7.746   5.287   2.369 -0.0315  0.7514  2.9633
 9796SOL    HW230232   7.820   5.170   2.308 -0.6662  2.4163 -1.3928
 9797SOL     OW30233   7.113   3.656   3.994 -0.2773 -0.2257 -0.2897
 9797SOL    HW130234   7.169   3.628   4.067 -0.1304 -0.1761 -0.3836
 9797SOL    HW230235   7.045   3.708   4.036  0.6907  1.1359 -0.3466
 9798SOL     OW30236   7.425   2.289   5.104  0.2803  0.2018 -0.0918
 9798SOL    HW130237   7.357   2.252   5.048 -0.3662 -0.7896  1.2933
 9798SOL    HW230238   7.413   2.384   5.098 -0.3764  0.0738 -0.8739
 9799SOL     OW30239   6.478   3.792   0.046  0.5368  0.2032 -0.1535
 9799SOL    HW130240   6.528   3.870   0.070 -2.1235  1.3596  2.2773
 9799SOL    HW230241   6.401   3.794   0.104 -1.8328 -1.9252 -2.9077
 9800SOL     OW30242   0.026   6.805   3.932 -0.5200  0.1627  0.4159
 9800SOL    HW130243  -0.015   6.881   3.889  0.3801  0.1342 -0.5411
 9800SOL    HW230244   0.051   6.837   4.018 -0.6877  0.7858  0.2413
 9801SOL     OW30245   7.848   6.025   0.446  0.1016  0.1423  0.1077
 9801SOL    HW130246   7.826   5.948   0.498  0.5631  0.0849  0.2194
 9801SOL    HW230247   7.942   6.019   0.432 -0.0844 -0.0962 -1.1441
 9802SOL     OW30248   1.205   2.805   4.874  0.2382  0.0282  0.0719
 9802SOL    HW130249   1.269   2.811   4.803 -0.4611  0.5425 -0.5260
 9802SOL    HW230250   1.136   2.867   4.850 -0.2048 -0.0864  1.0005
 9803SOL     OW30251   7.202   2.035   7.459 -0.2872  0.2982 -0.2422
 9803SOL    HW130252   7.236   2.042   7.549  1.0552 -1.4494 -0.5671
 9803SOL    HW230253   7.170   2.123   7.439  0.0012  0.9011  1.6966
 9804SOL     OW30254   6.630   2.914   2.476 -0.1692  0.8265  0.3700
 9804SOL    HW130255   6.707   2.889   2.527 -0.8161 -0.6088  0.7029
 9804SOL    HW230256   6.593   2.989   2.524  0.0543  0.4317  1.1888
 9805SOL     OW30257   6.045   2.547   3.133  0.3720  0.3877  0.5432
 9805SOL    HW130258   6.044   2.474   3.071 -0.9573  1.6570 -1.0384
 9805SOL    HW230259   5.967   2.533   3.187 -0.7915  1.3513 -0.7739
 9806SOL     OW30260   6.592   4.692   2.410 -0.4334 -0.3957 -0.2421
 9806SOL    HW130261   6.588   4.752   2.485 -1.1933 -0.5150 -0.1829
 9806SOL    HW230262   6.649   4.622   2.440 -0.4308 -0.2549  0.0940
 9807SOL     OW30263   1.857   1.191   4.306 -0.2446  0.5935 -0.3257
 9807SOL    HW130264   1.827   1.196   4.215 -1.1144  0.4768 -0.0539
 9807SOL    HW230265   1.820   1.109   4.338 -1.1756  1.3471  0.5666
 9808SOL     OW30266   2.333   3.734   0.534  0.0868 -0.4014 -0.2607
 9808SOL    HW130267   2.421   3.697   0.536  0.4992  0.5644  0.1332
 9808SOL    HW230268   2.343   3.822   0.570 -0.8030  0.2051 -1.4099
 9809SOL     OW30269   1.872   2.577   2.052 -0.0091 -0.1017 -0.7094
 9809SOL    HW130270   1.861   2.661   2.098 -1.5118  0.0983 -1.3770
 9809SOL    HW230271   1.961   2.550   2.074  0.2581  1.3086  0.1168
 9810SOL     OW30272   6.470   4.718   0.729 -0.2898  0.0685  0.0431
 9810SOL    HW130273   6.527   4.643   0.710  0.4313  0.6547 -0.1647
 9810SOL    HW230274   6.529   4.782   0.770 -1.1456  0.0647  1.3280
 9811SOL     OW30275   0.643   3.431   0.498  0.1272 -0.1279  0.3095
 9811SOL    HW130276   0.623   3.491   0.426 -1.9515 -0.6531  0.3652
 9811SOL    HW230277   0.606   3.347   0.469 -0.7209 -0.3500  1.9519
 9812SOL     OW30278   4.337   4.926   3.271  0.1805  0.3813  0.0972
 9812SOL    HW130279   4.333   4.876   3.190 -0.2938 -0.1470  0.4394
 9812SOL    HW230280   4.249   4.918   3.308  0.8530 -0.8683  1.5369
 9813SOL     OW30281   1.975   3.405   1.199  0.4058  0.1559  0.8491
 9813SOL    HW130282   1.935   3.322   1.173 -2.0692  0.8432  2.1670
 9813SOL    HW230283   2.008   3.442   1.117  1.5025 -2.0451  0.2320
 9814SOL     OW30284   7.526   1.315   7.361 -0.5679  0.7244  0.4820
 9814SOL    HW130285   7.453   1.372   7.334 -0.6389 -0.1663 -1.3402
 9814SOL    HW230286   7.576   1.300   7.280  1.2674  0.7528  1.5549
 9815SOL     OW30287   1.097   5.244   6.333 -0.2724 -0.2316  0.6834
 9815SOL    HW130288   1.042   5.211   6.404 -0.8552 -0.1736  0.2719
 9815SOL    HW230289   1.067   5.196   6.255 -0.5113  0.6058  0.2430
 9816SOL     OW30290   8.086   6.045   6.801  0.0855  0.3370 -0.3163
 9816SOL    HW130291   8.006   6.012   6.840  0.2231  0.2015 -0.1468
 9816SOL    HW230292   8.064   6.059   6.708  0.8273 -2.9791 -1.1163
 9817SOL     OW30293   4.039   0.044   3.063 -0.2651  0.3653  0.4323
 9817SOL    HW130294   4.027  -0.011   2.986  0.8598  0.7602 -0.0564
 9817SOL    HW230295   3.980   0.008   3.129 -1.0446 -0.1484 -0.5279
 9818SOL     OW30296   6.193   4.383   2.045 -0.0422  0.0218 -0.3214
 9818SOL    HW130297   6.122   4.376   1.981  0.0521 -1.2056 -0.3178
 9818SOL    HW230298   6.153   4.422   2.123 -0.4529  0.3207 -0.6817
 9819SOL     OW30299   1.045   6.623   3.704  0.4211  0.4137  0.0313
 9819SOL    HW130300   0.971   6.653   3.652  0.2201 -0.9497 -0.5146
 9819SOL    HW230301   1.044   6.528   3.694 -1.2652 -0.2929  4.6554
 9820SOL     OW30302   6.709   6.063   7.472  0.4412 -0.6289  0.2897
 9820SOL    HW130303   6.695   5.979   7.430 -1.4335 -1.7031  2.7756
 9820SOL    HW230304   6.803   6.064   7.494  0.3731 -2.3597  0.7710
 9821SOL     OW30305   7.930   7.429   2.161  0.0138 -0.1857 -0.4130
 9821SOL    HW130306   7.878   7.507   2.176  0.1037  0.1648 -1.8115
 9821SOL    HW230307   7.934   7.420   2.065  0.3049 -1.6901 -0.2914
 9822SOL     OW30308   1.139   0.675   0.135  0.3494  0.1692 -0.4175
 9822SOL    HW130309   1.120   0.602   0.076  0.1269 -0.0184 -0.1168
 9822SOL    HW230310   1.073   0.740   0.114  0.4475  0.2204 -0.5728
 9823SOL     OW30311   7.698   1.397   0.786 -0.3331 -0.0048 -0.1009
 9823SOL    HW130312   7.653   1.314   0.799 -0.8881  0.0085 -1.7255
 9823SOL    HW230313   7.668   1.427   0.700  2.6075  0.1187 -1.1692
 9824SOL     OW30314   2.407   7.590   1.161  1.1914 -0.1365  0.0443
 9824SOL    HW130315   2.467   7.530   1.117  1.4117  0.3028 -0.2655
 9824SOL    HW230316   2.434   7.589   1.252  0.6551 -1.1513  0.2122
 9825SOL     OW30317   0.136   2.284   3.415 -0.1055  0.0248  0.2965
 9825SOL    HW130318   0.042   2.301   3.406 -0.3827 -2.0032 -1.6026
 9825SOL    HW230319   0.148   2.197   3.377  2.3195 -0.4989  1.9947
 9826SOL     OW30320   1.318   2.082   1.686 -0.3058 -0.0703  0.3591
 9826SOL    HW130321   1.374   2.014   1.648  1.7266  2.2924 -1.1903
 9826SOL    HW230322   1.238   2.079   1.633  0.3223 -0.3875 -0.6021
 9827SOL     OW30323   7.609   7.366   2.033 -0.1148 -0.4329  0.0919
 9827SOL    HW130324   7.582   7.343   2.122 -0.9976 -0.4644 -0.1737
 9827SOL    HW230325   7.603   7.461   2.029 -1.1678 -0.5072 -0.2658
 9828SOL     OW30326   0.841   3.029   2.066  0.1810  0.1598 -0.0215
 9828SOL    HW130327   0.869   3.059   2.152  2.4562  0.4801 -0.8051
 9828SOL    HW230328   0.906   2.963   2.042 -2.1399 -2.2237 -0.2464
 9829SOL     OW30329   6.302   4.110   0.340 -0.4093 -0.2592  0.0754
 9829SOL    HW130330   6.373   4.058   0.378 -0.1929  0.4578  0.6743
 9829SOL    HW230331   6.230   4.100   0.402 -1.6683 -2.8216 -1.6193
 9830SOL     OW30332   8.107   4.940   6.844  0.9438 -0.2135  0.1088
 9830SOL    HW130333   8.134   4.952   6.753  3.4951 -1.1084  0.6598
 9830SOL    HW230334   8.062   4.856   6.845 -0.1243  0.3375 -0.4974
 9831SOL     OW30335   5.816   3.076   7.398 -0.4825 -0.1100 -0.3999
 9831SOL    HW130336   5.737   3.129   7.402 -0.7645 -0.5729  0.6395
 9831SOL    HW230337   5.866   3.103   7.475 -0.8579 -1.6611  0.4262
 9832SOL     OW30338   6.692   6.044   5.316  0.4041 -0.2456  0.3728
 9832SOL    HW130339   6.717   5.989   5.242  0.1030 -0.6498  0.5698
 9832SOL    HW230340   6.656   5.984   5.381 -0.5768  0.2573  0.3176
 9833SOL     OW30341   2.228   4.752   7.908  0.2443  0.3260  0.0015
 9833SOL    HW130342   2.199   4.756   7.999  1.3200  1.7025  0.3247
 9833SOL    HW230343   2.229   4.843   7.880  1.3555  0.0533 -0.9054
 9834SOL     OW30344   3.060   1.668   4.823  0.1966 -0.1115 -0.5050
 9834SOL    HW130345   3.035   1.730   4.755  0.1938  1.0016  0.4863
 9834SOL    HW230346   3.006   1.691   4.898  0.9681 -0.6166  0.2201
 9835SOL     OW30347   7.364   7.860   6.831  0.0343 -0.0345  0.0254
 9835SOL    HW130348   7.325   7.887   6.748 -1.0166 -0.7652  0.2561
 9835SOL    HW230349   7.296   7.879   6.896 -0.4959 -2.5099  0.2913
 9836SOL     OW30350   3.918   3.348   6.245  0.3184  0.6056 -0.2263
 9836SOL    HW130351   4.005   3.330   6.280  0.0429 -0.2671  0.0235
 9836SOL    HW230352   3.864   3.366   6.322  0.0052 -0.0464 -0.2871
 9837SOL     OW30353   4.326   1.425   0.685  0.3869 -0.3489 -0.0565
 9837SOL    HW130354   4.305   1.506   0.733  0.9600  0.5385 -1.2355
 9837SOL    HW230355   4.241   1.391   0.657  0.1936  0.4722 -0.5056
 9838SOL     OW30356   3.998   6.634   7.788  0.3231 -0.5918  0.6681
 9838SOL    HW130357   3.954   6.549   7.784  1.2327 -1.0524 -2.9685
 9838SOL    HW230358   3.961   6.684   7.715  1.3775  1.3414  1.3713
 9839SOL     OW30359   7.863   4.990   4.195  0.0735  0.1135  0.4847
 9839SOL    HW130360   7.852   4.906   4.151  0.6021  0.5493 -0.5293
 9839SOL    HW230361   7.920   4.972   4.269  0.2201 -0.4206  0.2440
 9840SOL     OW30362   2.656   4.109   5.283  0.8149 -0.3986  0.0893
 9840SOL    HW130363   2.587   4.174   5.268  0.8040 -0.6844 -1.2613
 9840SOL    HW230364   2.612   4.024   5.274  0.8476 -0.6197  1.7546
 9841SOL     OW30365   2.977   0.570   7.255 -0.0211 -0.1896  0.2105
 9841SOL    HW130366   3.070   0.594   7.253  1.0577 -3.6951  0.5293
 9841SOL    HW230367   2.947   0.593   7.342  0.8532  0.0798  0.4461
 9842SOL     OW30368   1.988   2.721   1.195 -0.0960 -0.0184 -0.0254
 9842SOL    HW130369   1.950   2.638   1.166 -0.0041 -0.4096  0.9358
 9842SOL    HW230370   2.025   2.702   1.281  1.0585  0.7039 -0.3411
 9843SOL     OW30371   4.747   6.291   0.241 -0.0379  0.3355  0.3954
 9843SOL    HW130372   4.689   6.224   0.203  1.4785 -0.2506 -0.9706
 9843SOL    HW230373   4.731   6.369   0.188 -0.2629  0.4549  0.6358
 9844SOL     OW30374   7.762   5.119   1.820  0.1638 -0.5705 -0.3423
 9844SOL    HW130375   7.777   5.032   1.783 -0.0444 -0.5806 -0.4010
 9844SOL    HW230376   7.847   5.143   1.859  0.0274 -1.0991  0.3056
 9845SOL     OW30377   1.372   0.178   0.128 -0.4434  0.2438 -0.1915
 9845SOL    HW130378   1.389   0.252   0.187  1.5186 -1.5595  1.7054
 9845SOL    HW230379   1.361   0.217   0.042 -0.8944  2.8233  0.9499
 9846SOL     OW30380   0.890   7.416   3.022  0.2678  0.1046 -0.6848
 9846SOL    HW130381   0.872   7.362   3.099 -0.2410 -1.1590 -1.6670
 9846SOL    HW230382   0.969   7.379   2.983 -0.3844 -0.2964 -1.6646
 9847SOL     OW30383   0.595   7.073   2.287  0.7816  0.3542  0.5772
 9847SOL    HW130384   0.686   7.042   2.281  1.0901  1.4116 -0.7033
 9847SOL    HW230385   0.592   7.149   2.229 -0.2538  1.9619  2.5824
 9848SOL     OW30386   3.735   7.056   5.377 -0.2767 -0.1658 -0.1661
 9848SOL    HW130387   3.807   7.094   5.328  0.0052  0.1575  0.4776
 9848SOL    HW230388   3.676   7.130   5.395 -0.8624 -0.4600 -0.8414
 9849SOL     OW30389   3.331   2.469   7.353  0.8322 -0.7630  0.0256
 9849SOL    HW130390   3.410   2.516   7.381 -1.1597  2.6676  0.4644
 9849SOL    HW230391   3.320   2.400   7.418  2.4407 -0.1237  1.0334
 9850SOL     OW30392   1.853   2.644   1.753  0.2567 -0.7883 -0.7930
 9850SOL    HW130393   1.885   2.573   1.699  0.2644 -0.7000 -0.9048
 9850SOL    HW230394   1.865   2.613   1.843  0.5226 -0.8138 -0.8362
 9851SOL     OW30395   7.081   0.670   3.133  0.0537  0.1058  0.1542
 9851SOL    HW130396   7.009   0.731   3.149 -0.7590  0.0415 -2.6690
 9851SOL    HW230397   7.051   0.617   3.059  1.9766 -1.6845  0.5706
 9852SOL     OW30398   7.966   1.239   4.906  0.2777 -0.1558  0.2860
 9852SOL    HW130399   7.906   1.175   4.945 -0.5206  0.9085  0.8468
 9852SOL    HW230400   7.947   1.236   4.812  1.6113 -2.1162  0.0251
 9853SOL     OW30401   3.515   3.316   8.197  0.5816  0.0961 -0.2045
 9853SOL    HW130402   3.593   3.310   8.141  1.2678  0.3463  0.6967
 9853SOL    HW230403   3.546   3.358   8.276 -0.6101  0.6989 -0.0387
 9854SOL     OW30404   4.425   4.447   3.096  0.5137  0.4111  0.1445
 9854SOL    HW130405   4.453   4.534   3.067  0.9393  0.7572  1.5194
 9854SOL    HW230406   4.330   4.449   3.090  0.5974  0.3719 -1.4390
 9855SOL     OW30407   1.011   1.836   1.915  0.1883  0.3653  0.2774
 9855SOL    HW130408   1.021   1.744   1.941  1.3997  0.1899 -0.7125
 9855SOL    HW230409   1.086   1.853   1.858  0.1070  2.0451  0.6218
 9856SOL     OW30410   2.278   6.513   3.661  0.3833 -0.0318 -0.5485
 9856SOL    HW130411   2.237   6.455   3.596 -0.4823  0.9701 -0.9117
 9856SOL    HW230412   2.372   6.501   3.647  0.2639 -2.0386 -0.0017
 9857SOL     OW30413   4.291   6.121   3.582  0.1944  0.4517 -0.3051
 9857SOL    HW130414   4.317   6.094   3.493 -1.1718  0.9107 -0.8734
 9857SOL    HW230415   4.201   6.089   3.591  0.4528  0.0704  1.0824
 9858SOL     OW30416   0.617   2.506   4.713 -0.2937  0.4847  0.5653
 9858SOL    HW130417   0.524   2.502   4.692 -0.3045  0.7604  0.5536
 9858SOL    HW230418   0.661   2.468   4.637 -0.3144  1.7963 -0.1321
 9859SOL     OW30419   0.813   6.971   3.196 -0.0840 -0.2604  0.1916
 9859SOL    HW130420   0.868   7.004   3.125  2.1548 -2.6004  0.6926
 9859SOL    HW230421   0.754   6.909   3.155 -0.1768 -0.1288  0.1231
 9860SOL     OW30422   2.331   7.904   7.418 -0.0736  0.0600 -0.8954
 9860SOL    HW130423   2.247   7.933   7.380 -0.1251  0.1501 -0.7113
 9860SOL    HW230424   2.387   7.982   7.416  0.6617 -0.4658 -2.8171
 9861SOL     OW30425   6.080   0.215   6.417 -0.6498  0.4773  0.4038
 9861SOL    HW130426   6.153   0.276   6.424 -1.2041  1.3212 -0.9391
 9861SOL    HW230427   6.051   0.203   6.507 -1.1756  2.9957  0.6376
 9862SOL     OW30428   6.126   6.221   8.184 -0.5420 -0.4100  0.1254
 9862SOL    HW130429   6.043   6.260   8.211 -0.2686 -0.1251  0.5636
 9862SOL    HW230430   6.123   6.224   8.088  0.0505  2.0129  0.0972
 9863SOL     OW30431   7.790   3.123   0.293  0.2097  0.4996  0.4308
 9863SOL    HW130432   7.705   3.151   0.260  0.5690 -0.3249 -1.2897
 9863SOL    HW230433   7.825   3.066   0.225  1.3724 -0.6376  1.9157
 9864SOL     OW30434   5.997   3.332   6.897  0.0021 -0.0639  0.2535
 9864SOL    HW130435   6.035   3.315   6.811  0.2351  1.5914 -0.0107
 9864SOL    HW230436   6.045   3.407   6.930 -1.4830  0.6431  0.9203
 9865SOL     OW30437   0.257   5.404   5.782  0.2885 -0.1693  0.3041
 9865SOL    HW130438   0.351   5.418   5.784  0.1030  1.2623  0.1268
 9865SOL    HW230439   0.226   5.459   5.710 -0.5222 -1.7515 -0.6161
 9866SOL     OW30440   4.294   1.138   6.500 -0.0774 -0.0225 -0.0846
 9866SOL    HW130441   4.363   1.101   6.445 -0.9540  0.0243 -1.2490
 9866SOL    HW230442   4.282   1.074   6.570  1.5980  0.2815  0.5419
 9867SOL     OW30443   2.307   3.245   5.032  0.0964 -0.3876  0.3334
 9867SOL    HW130444   2.400   3.234   5.054  0.7493  0.7156 -1.6177
 9867SOL    HW230445   2.277   3.157   5.009  0.2638 -0.9778  2.2166
 9868SOL     OW30446   0.704   6.411   2.664  0.1511 -0.2648 -0.1870
 9868SOL    HW130447   0.682   6.359   2.587  1.3615 -0.4428 -0.4415
 9868SOL    HW230448   0.621   6.425   2.709 -0.5795 -0.1007 -1.5571
 9869SOL     OW30449   7.666   2.542   3.054 -0.2031 -0.4364  0.4476
 9869SOL    HW130450   7.634   2.571   3.139 -0.1349 -0.0929  0.3578
 9869SOL    HW230451   7.672   2.622   3.002 -1.0585 -0.7436 -0.1526
 9870SOL     OW30452   2.347   7.603   2.740  0.4947 -0.5046 -0.1344
 9870SOL    HW130453   2.356   7.512   2.710  0.2745 -0.9905  1.2136
 9870SOL    HW230454   2.253   7.612   2.759  0.8265 -0.6653  1.7249
 9871SOL     OW30455   5.922   1.523   6.057 -0.3061  0.4035  0.6459
 9871SOL    HW130456   5.873   1.599   6.089 -1.3749 -0.2018  0.5161
 9871SOL    HW230457   6.014   1.546   6.069 -0.6383  0.9332  2.4172
 9872SOL     OW30458   5.623   5.288   5.925 -0.5862 -0.1244  0.7280
 9872SOL    HW130459   5.673   5.304   5.845  1.0215  0.0454  1.7302
 9872SOL    HW230460   5.598   5.196   5.921  1.9153 -0.8987  1.2914
 9873SOL     OW30461   5.724   2.456   2.420 -0.5002 -0.0640 -0.4286
 9873SOL    HW130462   5.705   2.375   2.372  1.0694  0.6729 -2.4376
 9873SOL    HW230463   5.773   2.509   2.358  0.3000  1.6127  1.5400
 9874SOL     OW30464   5.855   3.732   3.622 -0.1122  0.5794 -0.1287
 9874SOL    HW130465   5.866   3.815   3.576 -2.8088  1.1363  0.0241
 9874SOL    HW230466   5.800   3.680   3.563 -1.0611  0.1396  1.0970
 9875SOL     OW30467   7.136   1.840   2.968 -0.6604 -0.2561 -0.4292
 9875SOL    HW130468   7.101   1.810   3.051  0.0630  0.2006  0.0608
 9875SOL    HW230469   7.156   1.933   2.983  1.5767 -0.6902 -0.3558
 9876SOL     OW30470   7.484   2.569   2.062 -0.0568 -0.2547  0.2319
 9876SOL    HW130471   7.547   2.499   2.050  0.1941  0.1453 -0.8610
 9876SOL    HW230472   7.520   2.643   2.014 -0.7471  0.3644  0.6344
 9877SOL     OW30473   6.121   2.574   3.816 -0.2207 -0.2228  0.3910
 9877SOL    HW130474   6.210   2.576   3.780 -0.6007 -0.6414 -0.5865
 9877SOL    HW230475   6.118   2.650   3.875  0.2034  0.9315 -0.9887
 9878SOL     OW30476   2.860   3.351   3.629 -0.3790 -0.2532  0.3166
 9878SOL    HW130477   2.862   3.388   3.717 -2.2470 -0.9662  0.7041
 9878SOL    HW230478   2.791   3.401   3.584  0.8359  0.3974 -0.9116
 9879SOL     OW30479   1.435   6.346   3.941 -0.2891  0.0580 -0.0526
 9879SOL    HW130480   1.395   6.432   3.932 -0.1057  0.1672  0.1674
 9879SOL    HW230481   1.480   6.332   3.857 -2.2359 -0.8367 -1.0205
 9880SOL     OW30482   0.596   4.535   2.808 -0.0048 -0.1431  0.7385
 9880SOL    HW130483   0.518   4.517   2.755 -0.1907  1.0887  0.5759
 9880SOL    HW230484   0.590   4.473   2.881 -0.7000 -0.6216  0.2835
 9881SOL     OW30485   1.384   1.441   3.056 -0.3288 -0.0200  0.4825
 9881SOL    HW130486   1.464   1.443   3.109 -0.5053 -0.7949  0.7907
 9881SOL    HW230487   1.343   1.527   3.072 -0.0482  0.0068  1.0904
 9882SOL     OW30488   6.963   2.402   6.254 -0.0515  0.4689  0.3418
 9882SOL    HW130489   6.915   2.470   6.303  0.1636  0.6505  0.3005
 9882SOL    HW230490   7.008   2.450   6.185 -1.4156  0.0778 -0.8833
 9883SOL     OW30491   0.602   8.197   0.058  0.2957  0.4026 -0.0623
 9883SOL    HW130492   0.631   8.106   0.060  1.1183  0.6611  0.8166
 9883SOL    HW230493   0.508   8.192   0.041  0.1880 -0.6480  0.6926
 9884SOL     OW30494   3.714   3.617   1.351  0.3500 -0.5000  0.3486
 9884SOL    HW130495   3.670   3.576   1.276 -1.6943 -0.7729  1.6130
 9884SOL    HW230496   3.752   3.698   1.315  1.0580 -1.5394 -1.3504
 9885SOL     OW30497   1.660   1.728   5.248  0.1264 -0.3866 -0.7625
 9885SOL    HW130498   1.602   1.654   5.263 -0.6429  0.4578  0.6132
 9885SOL    HW230499   1.604   1.806   5.254  1.2620  0.4217  0.1299
 9886SOL     OW30500   4.456   0.555   1.398 -0.1251 -0.2185  0.3714
 9886SOL    HW130501   4.520   0.570   1.467 -0.0134  2.1561 -0.1516
 9886SOL    HW230502   4.439   0.643   1.362 -0.5055 -1.2997 -2.3146
 9887SOL     OW30503   8.167   7.252   6.339  0.0616 -0.1402  0.0345
 9887SOL    HW130504   8.252   7.288   6.363 -0.0092 -0.1439  0.3008
 9887SOL    HW230505   8.152   7.281   6.249 -0.1899  0.8837  0.3862
 9888SOL     OW30506   2.313   5.465   1.667 -0.0675 -0.0346  0.3334
 9888SOL    HW130507   2.257   5.416   1.726  0.8360 -0.7674  0.5958
 9888SOL    HW230508   2.270   5.458   1.582 -1.7599  1.6169  0.9726
 9889SOL     OW30509   5.313   5.828   2.762 -0.2448  0.2263  0.2892
 9889SOL    HW130510   5.389   5.811   2.818 -0.1305  0.7240  0.2897
 9889SOL    HW230511   5.250   5.869   2.820 -1.3991 -2.1335  0.8494
 9890SOL     OW30512   7.028   4.526   7.679  0.0321 -0.2135 -0.2503
 9890SOL    HW130513   7.073   4.524   7.594 -1.9934 -1.2613 -1.3736
 9890SOL    HW230514   7.004   4.435   7.696  0.2670  0.0070  1.3982
 9891SOL     OW30515   5.057   0.807   5.308 -0.4796 -0.2810 -0.0128
 9891SOL    HW130516   5.115   0.882   5.322 -2.7504  1.5272  0.2760
 9891SOL    HW230517   5.085   0.743   5.373 -0.3874  1.5408  1.8527
 9892SOL     OW30518   7.003   3.494   6.849 -0.3256  0.2353  0.8982
 9892SOL    HW130519   6.988   3.555   6.922  1.7575 -0.1233  1.7136
 9892SOL    HW230520   6.995   3.407   6.888 -0.1621  0.0296  0.4780
 9893SOL     OW30521   3.849   2.879   6.973 -0.4478  0.2540  0.0511
 9893SOL    HW130522   3.791   2.909   7.043  1.2860  1.8452  0.8719
 9893SOL    HW230523   3.935   2.871   7.015  0.2984 -0.3963 -1.5268
 9894SOL     OW30524   2.772   1.312   2.082  0.0704  0.0710 -0.5707
 9894SOL    HW130525   2.749   1.368   2.157  1.1500  2.4184 -1.8724
 9894SOL    HW230526   2.696   1.320   2.023  0.5191  0.8114 -1.0714
 9895SOL     OW30527   0.048   1.973   2.716  0.4765  0.3787  0.2466
 9895SOL    HW130528  -0.004   2.038   2.669  0.2871  0.2004  0.2050
 9895SOL    HW230529   0.106   1.936   2.650 -0.1659 -0.2553  0.0266
 9896SOL     OW30530   5.702   5.127   1.927 -0.0345 -0.2843  0.0225
 9896SOL    HW130531   5.732   5.118   2.018 -0.2763  0.4293  0.1786
 9896SOL    HW230532   5.782   5.129   1.875  0.0928 -1.2127  0.1621
 9897SOL     OW30533   5.579   7.155   1.152  0.5722 -0.5976  0.5377
 9897SOL    HW130534   5.630   7.078   1.177  1.4999 -0.3884 -0.6087
 9897SOL    HW230535   5.494   7.119   1.125  1.1885 -1.3086 -0.5390
 9898SOL     OW30536   3.448   1.994   7.759  0.4166 -0.5333 -0.3184
 9898SOL    HW130537   3.422   1.931   7.691  0.7856 -1.1891  0.1412
 9898SOL    HW230538   3.368   2.043   7.778  0.5037  0.3080 -1.8833
 9899SOL     OW30539   6.508   5.965   2.378 -0.3602  0.0624 -0.0015
 9899SOL    HW130540   6.549   6.032   2.433 -0.0990 -1.1359  1.3298
 9899SOL    HW230541   6.452   6.014   2.319 -1.1524  1.4092  1.7646
 9900SOL     OW30542   8.130   7.982   6.197 -0.3964 -0.1778 -0.6081
 9900SOL    HW130543   8.103   7.991   6.289  2.0086  1.0864  0.0546
 9900SOL    HW230544   8.053   8.010   6.147 -1.1963  0.7532  1.0450
 9901SOL     OW30545   6.033   3.071   7.200  0.0790 -0.0445  0.5473
 9901SOL    HW130546   5.945   3.064   7.236 -0.1566  0.9825  0.2058
 9901SOL    HW230547   6.021   3.113   7.115  0.7431 -1.3651 -0.2363
 9902SOL     OW30548   6.569   6.361   3.095  0.2098  0.4154 -0.2909
 9902SOL    HW130549   6.507   6.300   3.055 -0.2329  0.6107  0.0885
 9902SOL    HW230550   6.627   6.388   3.023 -0.3337  0.4697 -0.7117
 9903SOL     OW30551   2.977   3.674   1.483 -0.0750 -0.1553 -0.2028
 9903SOL    HW130552   3.055   3.673   1.428  0.8774 -2.6562  1.0057
 9903SOL    HW230553   2.935   3.589   1.465 -0.2363 -0.6312  2.1356
 9904SOL     OW30554   2.279   2.123   8.140  0.0480 -0.7453  0.0078
 9904SOL    HW130555   2.198   2.073   8.127  0.2551 -1.1684  0.3113
 9904SOL    HW230556   2.329   2.070   8.202  1.3403 -1.4348 -1.5484
 9905SOL     OW30557   5.884   2.058   0.571 -0.2484  0.0617  0.4450
 9905SOL    HW130558   5.831   2.040   0.649 -1.3754  0.9451 -0.0902
 9905SOL    HW230559   5.967   2.013   0.588 -0.9334 -0.8401  1.5838
 9906SOL     OW30560   7.379   3.010   0.973  0.4351 -0.0495 -0.2415
 9906SOL    HW130561   7.371   3.089   1.027  2.6551 -0.0564  0.1583
 9906SOL    HW230562   7.307   3.018   0.909 -0.0827  1.7043  0.5014
 9907SOL     OW30563   1.544   4.896   8.172 -0.1073 -0.4762  0.5748
 9907SOL    HW130564   1.499   4.975   8.143 -0.6807 -1.4209 -1.3350
 9907SOL    HW230565   1.574   4.916   8.260  0.3377  2.0970 -0.0735
 9908SOL     OW30566   2.307   4.778   2.755 -0.8882 -0.1812 -0.1599
 9908SOL    HW130567   2.390   4.748   2.790  1.0494  2.4659 -2.1332
 9908SOL    HW230568   2.295   4.866   2.790 -0.8010  1.0079 -2.8440
 9909SOL     OW30569   0.561   5.995   1.821 -0.0538  0.1043  0.2251
 9909SOL    HW130570   0.546   6.087   1.843  0.3021  0.1809  0.1623
 9909SOL    HW230571   0.504   5.946   1.880 -0.9168  0.3988 -0.3512
 9910SOL     OW30572   2.992   0.141   3.199 -0.1094  0.1847  0.0730
 9910SOL    HW130573   2.978   0.156   3.105  0.5617 -1.4184 -0.3084
 9910SOL    HW230574   3.086   0.150   3.211  0.0305 -1.3282  0.2524
 9911SOL     OW30575   7.326   3.478   4.785 -0.1866  0.0900  0.3517
 9911SOL    HW130576   7.250   3.523   4.822 -0.3267  1.7643 -1.7133
 9911SOL    HW230577   7.396   3.493   4.848 -0.8706  1.1159  0.9060
 9912SOL     OW30578   5.100   7.131   3.097 -0.2520  0.3679 -0.1712
 9912SOL    HW130579   5.128   7.207   3.148  2.1003 -0.6889  0.2658
 9912SOL    HW230580   5.024   7.097   3.144  0.1862  1.0279  1.0793
 9913SOL     OW30581   0.766   2.510   1.580  0.0010  0.1210  0.1905
 9913SOL    HW130582   0.709   2.584   1.559 -1.3601 -0.9055  0.0906
 9913SOL    HW230583   0.803   2.484   1.495  0.5358  0.7090  0.2354
 9914SOL     OW30584   5.269   4.752   1.908  0.5199  0.2816  0.3369
 9914SOL    HW130585   5.315   4.824   1.950  0.2617  0.1071  0.9271
 9914SOL    HW230586   5.335   4.682   1.901  0.4245  0.1221  0.9485
 9915SOL     OW30587   7.217   1.450   5.164 -0.0795  0.8034 -0.0685
 9915SOL    HW130588   7.199   1.356   5.162 -0.3753  0.7859  1.4822
 9915SOL    HW230589   7.170   1.481   5.242  1.4664  1.9034  0.4662
 9916SOL     OW30590   8.104   0.382   0.875  0.6336 -0.2738  0.1299
 9916SOL    HW130591   8.091   0.384   0.970 -0.2538 -1.0857  0.0339
 9916SOL    HW230592   8.047   0.451   0.841 -0.4186 -1.1668  0.0476
 9917SOL     OW30593   1.510   2.351   6.063 -1.0309  0.1548 -0.0516
 9917SOL    HW130594   1.576   2.345   5.995 -1.4457 -1.6034 -0.3650
 9917SOL    HW230595   1.554   2.320   6.142 -1.4267 -1.0023 -0.2573
 9918SOL     OW30596   6.000   0.012   7.170  0.0542  0.8733 -0.0916
 9918SOL    HW130597   6.025   0.018   7.262 -0.7836  1.6962  0.1006
 9918SOL    HW230598   6.021   0.099   7.134 -0.4079  0.8405 -0.4596
 9919SOL     OW30599   7.782   2.564   5.569  1.1285 -0.1156 -0.5306
 9919SOL    HW130600   7.729   2.524   5.501  0.0656 -2.0771  1.3058
 9919SOL    HW230601   7.775   2.658   5.554 -1.6054 -0.3796 -1.3117
 9920SOL     OW30602   6.054   5.266   7.627  0.2092  0.1569  0.1582
 9920SOL    HW130603   6.017   5.194   7.678  1.1611  0.0754  0.7586
 9920SOL    HW230604   6.026   5.248   7.537 -2.7830  1.1158  0.7984
 9921SOL     OW30605   5.317   4.200   1.121 -0.2886  0.2270 -0.1018
 9921SOL    HW130606   5.240   4.223   1.069 -0.7887 -0.2133  0.4195
 9921SOL    HW230607   5.292   4.118   1.165  0.6846 -0.2147 -0.3481
 9922SOL     OW30608   1.634   2.825   5.716  0.1137 -0.0919  0.2582
 9922SOL    HW130609   1.585   2.839   5.797 -1.9683 -0.3143 -0.9102
 9922SOL    HW230610   1.665   2.912   5.691  0.1264  0.0858  0.8691
 9923SOL     OW30611   5.558   1.461   3.561 -0.0257  0.0287  0.1198
 9923SOL    HW130612   5.606   1.440   3.641  1.8537  0.3017 -0.8919
 9923SOL    HW230613   5.589   1.548   3.537 -1.3570  0.3904 -0.3521
 9924SOL     OW30614   4.051   0.861   6.422 -0.0472 -0.2121 -0.3589
 9924SOL    HW130615   4.019   0.921   6.489 -0.5792 -0.8515 -0.0342
 9924SOL    HW230616   4.092   0.790   6.471 -1.2595 -1.1497 -0.6718
 9925SOL     OW30617   6.028   2.583   1.667 -0.3918  0.5378  0.6682
 9925SOL    HW130618   5.995   2.656   1.719 -0.2302 -0.6135  2.4841
 9925SOL    HW230619   5.972   2.509   1.690 -0.8304  0.1514 -1.4589
 9926SOL     OW30620   1.669   4.158   2.837 -0.0815  0.0946  0.3372
 9926SOL    HW130621   1.700   4.077   2.795 -1.1241  0.2640 -0.8035
 9926SOL    HW230622   1.688   4.227   2.774  1.6070  0.9376  1.6576
 9927SOL     OW30623   4.232   0.722   6.901  0.2078 -0.2170 -0.1440
 9927SOL    HW130624   4.194   0.739   6.988  0.4254 -0.1052 -0.0706
 9927SOL    HW230625   4.317   0.682   6.920  0.3819  0.0753 -0.3041
 9928SOL     OW30626   0.218   4.066   3.263  0.1217  0.1082  0.3483
 9928SOL    HW130627   0.198   3.984   3.308  2.3816 -0.1718  0.9563
 9928SOL    HW230628   0.135   4.114   3.264 -0.5832 -1.0203  2.4079
 9929SOL     OW30629   0.466   1.408   6.914  0.1695 -0.7001 -0.9290
 9929SOL    HW130630   0.438   1.498   6.903 -1.0243 -0.9135  0.1391
 9929SOL    HW230631   0.404   1.370   6.976  2.1326 -1.5183  0.6893
 9930SOL     OW30632   6.060   1.782   7.630  0.2360 -0.1767 -0.5520
 9930SOL    HW130633   6.039   1.696   7.593 -1.2768  0.8310 -2.1647
 9930SOL    HW230634   6.007   1.787   7.709  0.2538 -0.6963 -0.5007
 9931SOL     OW30635   7.101   1.573   7.986 -0.1975 -0.0200  0.5392
 9931SOL    HW130636   7.017   1.598   7.949 -0.5107 -0.5080  0.9133
 9931SOL    HW230637   7.149   1.656   7.995  0.0957  0.0665 -1.4337
 9932SOL     OW30638   5.847   5.019   2.988  0.4226 -0.4189 -0.4634
 9932SOL    HW130639   5.856   4.928   2.961 -0.1677 -0.9971  1.1691
 9932SOL    HW230640   5.935   5.055   2.980  1.1809 -1.7913  1.0191
 9933SOL     OW30641   5.046   3.824   5.893  0.3871  0.1031 -0.3896
 9933SOL    HW130642   4.981   3.875   5.942  0.4151 -0.9860  0.8369
 9933SOL    HW230643   5.041   3.736   5.931  1.4753 -0.3949 -1.3485
 9934SOL     OW30644   0.748   2.579   4.341 -0.0601 -0.0697  0.5533
 9934SOL    HW130645   0.683   2.510   4.330 -0.3423  0.0921  1.1371
 9934SOL    HW230646   0.768   2.608   4.252 -0.0182 -0.8213  0.3107
 9935SOL     OW30647   2.400   4.611   0.772 -0.2674 -0.8798 -0.3020
 9935SOL    HW130648   2.402   4.519   0.745 -1.4217 -0.6873 -1.1364
 9935SOL    HW230649   2.473   4.652   0.725  1.2572 -1.6447  1.2918
 9936SOL     OW30650   0.097   3.151   3.980 -0.4292 -0.4216  0.3917
 9936SOL    HW130651   0.082   3.242   3.956 -1.0402 -0.5714  0.2011
 9936SOL    HW230652   0.190   3.148   4.004 -0.7624  0.6058  1.9683
 9937SOL     OW30653   7.877   5.209   1.026 -0.2685 -0.1201  0.0983
 9937SOL    HW130654   7.830   5.207   0.942 -2.3178 -1.4292  1.1850
 9937SOL    HW230655   7.948   5.271   1.012 -0.5079 -0.3096 -2.6146
 9938SOL     OW30656   1.508   5.053   2.337 -0.3598  0.2160  0.0460
 9938SOL    HW130657   1.442   4.990   2.310 -0.5938  0.3015  0.4142
 9938SOL    HW230658   1.552   5.011   2.412 -2.0487  1.4190  1.8139
 9939SOL     OW30659   6.359   6.721   5.202 -0.6545  0.0607  0.1741
 9939SOL    HW130660   6.281   6.667   5.192 -0.0941 -0.7063 -0.2235
 9939SOL    HW230661   6.394   6.728   5.113  0.3233 -0.5454  0.4909
 9940SOL     OW30662   1.433   3.192   0.938  0.0678 -0.3362  0.2139
 9940SOL    HW130663   1.521   3.155   0.938 -0.3406 -1.3973  1.7572
 9940SOL    HW230664   1.386   3.142   0.870  0.1965 -0.9810  0.5863
 9941SOL     OW30665   3.929   1.187   1.962  0.0328 -0.1236 -0.3975
 9941SOL    HW130666   3.988   1.130   2.011 -0.0965 -1.2764 -1.5310
 9941SOL    HW230667   3.889   1.244   2.028  1.8940  0.2289  0.4676
 9942SOL     OW30668   2.733   4.140   4.519  0.3907  0.1578  0.3631
 9942SOL    HW130669   2.748   4.075   4.450 -1.4376  1.0464 -0.9561
 9942SOL    HW230670   2.693   4.090   4.590 -0.7929 -0.2479 -0.5507
 9943SOL     OW30671   1.192   4.862   4.633 -0.1324 -0.4992  0.4133
 9943SOL    HW130672   1.102   4.887   4.655 -0.1736 -1.3073  1.2375
 9943SOL    HW230673   1.209   4.785   4.688  1.0738 -0.3293  0.2972
 9944SOL     OW30674   6.867   4.055   8.149  0.4084 -0.5936  0.0440
 9944SOL    HW130675   6.961   4.064   8.160  0.5877 -1.9638 -0.2631
 9944SOL    HW230676   6.851   4.084   8.059  0.4855 -0.0360  0.2085
 9945SOL     OW30677   6.879   8.138   5.168 -0.7250  0.1724 -0.0667
 9945SOL    HW130678   6.908   8.187   5.091 -1.5033 -0.9829 -1.1264
 9945SOL    HW230679   6.958   8.128   5.221 -0.2323  1.1885 -0.5851
 9946SOL     OW30680   2.717   4.196   5.010 -0.0554  0.9450  0.3472
 9946SOL    HW130681   2.655   4.269   5.003  0.0904  1.2216  1.6427
 9946SOL    HW230682   2.699   4.157   5.096 -1.5226 -1.8829 -1.1237
 9947SOL     OW30683   6.525   1.652   7.926  0.6170 -0.0146  0.4698
 9947SOL    HW130684   6.496   1.612   8.008  2.1855  0.2092  1.1797
 9947SOL    HW230685   6.581   1.586   7.885 -0.0164 -0.0596 -0.3526
 9948SOL     OW30686   3.413   6.800   5.460 -0.5172 -0.8165  0.5170
 9948SOL    HW130687   3.362   6.880   5.474 -1.8327 -1.4240 -0.5695
 9948SOL    HW230688   3.363   6.751   5.395  0.0424 -2.7249  1.4576
 9949SOL     OW30689   7.303   6.314   6.875  0.0275 -0.2621 -0.1204
 9949SOL    HW130690   7.211   6.340   6.882  0.0148  1.2032 -3.6317
 9949SOL    HW230691   7.352   6.393   6.896  0.4553 -0.6333  0.2985
 9950SOL     OW30692   6.298   5.914   4.600  0.1003 -0.5153  0.5258
 9950SOL    HW130693   6.359   5.887   4.669  1.2562 -1.0381 -0.6575
 9950SOL    HW230694   6.213   5.914   4.643  0.8652 -0.1205  2.1385
 9951SOL     OW30695   8.180   5.874   3.007 -0.7786 -0.1202  1.1921
 9951SOL    HW130696   8.272   5.849   3.011 -0.8660 -0.4046  1.5008
 9951SOL    HW230697   8.159   5.874   2.914 -0.6210 -0.6302  1.1549
 9952SOL     OW30698   0.455   7.352   1.252 -0.0459 -0.0799  0.5885
 9952SOL    HW130699   0.381   7.296   1.277  0.5405 -0.0451  2.5353
 9952SOL    HW230700   0.485   7.315   1.169 -1.6862 -0.6452  0.2184
 9953SOL     OW30701   4.436   8.075   2.448  0.2568  0.5223 -0.1185
 9953SOL    HW130702   4.492   8.119   2.512 -0.8288 -0.0772  1.2759
 9953SOL    HW230703   4.468   8.107   2.363  1.1163  2.0573  0.7402
 9954SOL     OW30704   5.666   0.442   1.958  0.6487 -0.7221 -0.2356
 9954SOL    HW130705   5.650   0.520   2.011 -0.1401 -2.3056  2.0647
 9954SOL    HW230706   5.758   0.448   1.932  0.7878  0.6262  0.4990
 9955SOL     OW30707   1.200   1.997   6.000 -1.0263  0.2405  0.0576
 9955SOL    HW130708   1.170   1.971   5.912 -1.0833  1.8877 -0.4380
 9955SOL    HW230709   1.138   1.955   6.059 -1.9903  0.4394 -0.7836
 9956SOL     OW30710   1.666   7.240   5.062 -0.2206  0.6080 -0.5799
 9956SOL    HW130711   1.646   7.167   5.003 -3.1320  0.0352  0.8879
 9956SOL    HW230712   1.603   7.308   5.038  0.8251  1.7138 -0.2997
 9957SOL     OW30713   4.905   4.659   1.472 -0.0759  0.9930 -0.0076
 9957SOL    HW130714   4.819   4.668   1.513 -0.8799  1.7959 -1.7454
 9957SOL    HW230715   4.896   4.585   1.413  0.5420  0.8581  0.0642
 9958SOL     OW30716   3.762   7.749   4.767 -0.7035  0.3893 -0.1561
 9958SOL    HW130717   3.767   7.653   4.768 -1.0258  0.3740  0.3357
 9958SOL    HW230718   3.675   7.769   4.733 -0.0832  0.5412 -1.7163
 9959SOL     OW30719   1.904   3.679   5.661  0.4093 -0.7492  0.1665
 9959SOL    HW130720   1.867   3.704   5.577  0.7520 -0.9805 -0.0553
 9959SOL    HW230721   1.984   3.631   5.639 -0.8834 -3.2188  0.5218
 9960SOL     OW30722   7.178   6.709   4.434  0.4026  0.5905 -0.7170
 9960SOL    HW130723   7.218   6.700   4.348  1.2184  0.9400 -0.3877
 9960SOL    HW230724   7.252   6.713   4.495 -0.1368 -1.9300  0.2604
 9961SOL     OW30725   5.808   6.978   2.079  0.0218 -0.1465  0.3099
 9961SOL    HW130726   5.761   6.908   2.124  0.6862 -0.4067  0.6126
 9961SOL    HW230727   5.865   7.016   2.146  0.9561 -0.4826 -0.2654
 9962SOL     OW30728   2.835   4.612   7.728  0.4465 -0.1777 -1.1535
 9962SOL    HW130729   2.833   4.706   7.711 -1.8806 -0.3753 -2.4617
 9962SOL    HW230730   2.927   4.589   7.726  1.0792  2.0635 -0.7802
 9963SOL     OW30731   8.132   5.980   3.271  0.0758  0.5018  0.5462
 9963SOL    HW130732   8.045   5.943   3.283  1.4735 -2.8555  1.4145
 9963SOL    HW230733   8.136   6.000   3.177 -1.3441 -0.0746  0.3302
 9964SOL     OW30734   6.940   1.769   5.924 -0.3171  0.3648 -0.7482
 9964SOL    HW130735   6.917   1.677   5.911 -0.6299  0.2302  0.5692
 9964SOL    HW230736   7.029   1.777   5.888  0.5855 -0.9999  0.9869
 9965SOL     OW30737   1.797   3.780   5.227  0.4445 -0.0462  0.6981
 9965SOL    HW130738   1.877   3.801   5.276  1.0014  0.3573 -0.3474
 9965SOL    HW230739   1.819   3.801   5.136 -0.5940 -0.6820  0.2871
 9966SOL     OW30740   5.411   6.054   6.389 -0.3134 -0.0243 -0.0528
 9966SOL    HW130741   5.350   6.001   6.441 -0.7233  0.5282  0.0297
 9966SOL    HW230742   5.354   6.105   6.331  0.0974  0.0978 -0.3462
 9967SOL     OW30743   4.779   3.280   5.046  0.8473 -0.2932 -0.1939
 9967SOL    HW130744   4.719   3.332   4.992 -0.4772 -0.4492  1.0543
 9967SOL    HW230745   4.850   3.340   5.068  0.2107  0.4797 -0.1908
 9968SOL     OW30746   8.021   4.617   3.832 -0.7208  0.1513 -0.1369
 9968SOL    HW130747   7.985   4.531   3.812  1.5814 -0.8348 -0.3959
 9968SOL    HW230748   8.089   4.600   3.898  0.3318  1.6277 -0.7731
 9969SOL     OW30749   3.961   6.780   4.583  0.1482  0.5489  0.6937
 9969SOL    HW130750   3.893   6.749   4.643 -1.1108  0.7588 -0.5692
 9969SOL    HW230751   3.997   6.700   4.544 -0.2202  0.4857  0.4802
 9970SOL     OW30752   1.671   3.528   3.441 -0.1909  0.2433  0.2916
 9970SOL    HW130753   1.608   3.478   3.389  0.7605 -0.7815  0.0935
 9970SOL    HW230754   1.623   3.551   3.520 -0.4175 -1.7699  0.7987
 9971SOL     OW30755   4.324   1.639   2.300 -0.7180  0.1473 -0.2478
 9971SOL    HW130756   4.356   1.550   2.313 -1.3623 -0.2670 -1.2972
 9971SOL    HW230757   4.377   1.674   2.229  1.0175  1.4294  1.5775
 9972SOL     OW30758   5.556   3.119   3.573  0.1271  0.0200 -0.0514
 9972SOL    HW130759   5.608   3.131   3.653 -0.4191  0.6226  0.2343
 9972SOL    HW230760   5.605   3.165   3.505  1.1156 -1.3631 -0.3102
 9973SOL     OW30761   0.062   3.326   7.050  0.1268 -0.5571  0.5825
 9973SOL    HW130762   0.139   3.269   7.055  0.6485  0.2089  2.1595
 9973SOL    HW230763   0.096   3.410   7.017 -0.0985 -0.3399  0.8921
 9974SOL     OW30764   4.153   7.214   1.060  0.3770 -0.3100 -0.0481
 9974SOL    HW130765   4.180   7.261   1.138 -0.7643 -0.6753  0.5992
 9974SOL    HW230766   4.105   7.138   1.093  0.4351 -0.8300 -1.0982
 9975SOL     OW30767   7.779   4.586   0.060 -0.0799  0.1051 -0.3173
 9975SOL    HW130768   7.794   4.560   0.151 -2.2288 -1.0590 -0.2353
 9975SOL    HW230769   7.773   4.503   0.013 -0.7782  0.6563 -1.2064
 9976SOL     OW30770   4.563   4.720   2.245 -0.5247 -0.5226  0.8012
 9976SOL    HW130771   4.517   4.803   2.232  0.6206 -0.0462 -0.4315
 9976SOL    HW230772   4.631   4.741   2.310  0.2790 -0.2602 -0.1000
 9977SOL     OW30773   3.844   5.510   4.012 -0.4045 -0.2991  0.0649
 9977SOL    HW130774   3.908   5.531   3.944 -0.3328  1.3954  0.6042
 9977SOL    HW230775   3.761   5.499   3.965 -0.3692  0.9376 -0.3183
 9978SOL     OW30776   6.563   0.289   2.462  0.1323  0.2103  0.9240
 9978SOL    HW130777   6.472   0.288   2.492 -0.6169 -3.3104 -0.8624
 9978SOL    HW230778   6.562   0.346   2.385 -0.8832 -0.6524  0.2670
 9979SOL     OW30779   7.858   0.490   3.607 -0.4489  0.2220  1.2047
 9979SOL    HW130780   7.839   0.403   3.641  2.6895 -0.1210  2.4874
 9979SOL    HW230781   7.879   0.476   3.515  1.7541 -0.7909  1.7811
 9980SOL     OW30782   1.984   1.582   3.890  0.7191  0.1965 -0.7183
 9980SOL    HW130783   1.901   1.536   3.906  0.8242  0.3740  0.4213
 9980SOL    HW230784   2.019   1.541   3.810 -0.1682 -0.2985 -0.8649
 9981SOL     OW30785   2.665   4.989   7.011 -0.5285 -0.6610 -0.0073
 9981SOL    HW130786   2.615   5.070   7.000  0.6861  0.2083  0.6525
 9981SOL    HW230787   2.644   4.937   6.933  0.1264  1.0860 -1.4093
 9982SOL     OW30788   5.244   0.913   4.997  0.2271 -0.0031  0.0645
 9982SOL    HW130789   5.173   0.850   4.982 -0.9915  1.5820 -1.1318
 9982SOL    HW230790   5.254   0.914   5.093  2.1379 -3.8785  0.1166
 9983SOL     OW30791   6.272   5.447   0.137  0.3549  0.1711  0.2272
 9983SOL    HW130792   6.289   5.397   0.217  1.7206  0.3848  0.0998
 9983SOL    HW230793   6.182   5.426   0.114 -1.3789  2.8676  3.7630
 9984SOL     OW30794   1.244   0.967   4.090 -0.3480  0.2130 -0.5125
 9984SOL    HW130795   1.208   0.886   4.054 -1.3774  0.6525 -0.5123
 9984SOL    HW230796   1.235   0.957   4.185 -0.3176  0.2577 -0.5049
 9985SOL     OW30797   0.990   0.197   2.734  0.7906  0.1141  0.4562
 9985SOL    HW130798   1.021   0.109   2.711 -2.9690 -1.2526 -0.1218
 9985SOL    HW230799   1.037   0.218   2.814  3.2914 -1.4918 -0.4493
 9986SOL     OW30800   6.718   5.934   5.022 -0.1035 -0.4590 -0.2477
 9986SOL    HW130801   6.746   5.863   5.079 -1.5287 -1.3510 -0.6018
 9986SOL    HW230802   6.690   5.890   4.941  1.2728  0.7132 -1.4160
 9987SOL     OW30803   0.713   2.862   4.383  0.3757 -0.1104  0.2215
 9987SOL    HW130804   0.633   2.913   4.375  0.7469  0.3494 -0.5786
 9987SOL    HW230805   0.684   2.771   4.383 -0.2631  0.0684  1.3795
 9988SOL     OW30806   7.557   3.748   4.511 -0.6670  0.4046 -0.5187
 9988SOL    HW130807   7.548   3.815   4.579  0.4510  0.0378  0.0272
 9988SOL    HW230808   7.467   3.721   4.492 -1.0833  1.4399 -0.1366
 9989SOL     OW30809   0.030   1.855   7.106  0.7689  0.3793  0.1111
 9989SOL    HW130810   0.024   1.947   7.078  0.0310  0.8246  1.5916
 9989SOL    HW230811   0.057   1.808   7.028 -0.0356  1.6971 -1.0171
 9990SOL     OW30812   2.566   5.263   4.353  0.7953  0.0197  0.0363
 9990SOL    HW130813   2.472   5.277   4.341  0.6311 -1.2664 -0.2565
 9990SOL    HW230814   2.600   5.350   4.377 -0.2145  0.8321 -1.3601
 9991SOL     OW30815   4.287   2.114   5.383 -0.0150  0.2060 -0.5116
 9991SOL    HW130816   4.379   2.141   5.376 -0.2202  0.7189 -1.3856
 9991SOL    HW230817   4.238   2.191   5.357 -0.7153  0.0400  0.2830
 9992SOL     OW30818   2.691   7.628   6.077  0.1224  0.3059  0.1220
 9992SOL    HW130819   2.646   7.690   6.021  1.1778  1.4903  0.5387
 9992SOL    HW230820   2.784   7.636   6.053  0.1638 -2.4570 -1.1168
 9993SOL     OW30821   1.564   0.526   1.022 -0.3489  0.3662 -0.0519
 9993SOL    HW130822   1.546   0.581   1.098 -2.2118 -0.7719  0.4041
 9993SOL    HW230823   1.576   0.439   1.058  1.9153  0.2954 -0.8240
 9994SOL     OW30824   7.438   5.504   4.367  0.4307 -0.2853  0.6421
 9994SOL    HW130825   7.397   5.554   4.437 -2.5796 -0.3084 -0.9199
 9994SOL    HW230826   7.395   5.419   4.370  0.5753 -0.4472 -0.8861
 9995SOL     OW30827   0.649   6.652   3.274 -0.0823 -0.0674  0.6311
 9995SOL    HW130828   0.576   6.603   3.237 -0.8477  1.1288  0.5210
 9995SOL    HW230829   0.609   6.717   3.330  0.9454  0.1138  1.1794
 9996SOL     OW30830   0.437   4.664   0.452 -0.1030 -0.4223  0.3808
 9996SOL    HW130831   0.400   4.610   0.522 -0.9266  0.6757  0.8131
 9996SOL    HW230832   0.532   4.655   0.463 -0.2094  0.0925  1.9365
 9997SOL     OW30833   7.679   2.522   2.755  0.2503 -0.6297 -0.3065
 9997SOL    HW130834   7.588   2.496   2.744  0.0542 -0.0245 -0.1802
 9997SOL    HW230835   7.693   2.520   2.850  0.6107 -1.4946 -0.3677
 9998SOL     OW30836   0.778   2.755   7.614  0.0311 -0.3165  0.8158
 9998SOL    HW130837   0.865   2.741   7.652  0.4624 -0.9125 -0.3216
 9998SOL    HW230838   0.719   2.704   7.669  0.6603 -1.3088  0.5834
 9999SOL     OW30839   6.323   3.663   6.464  0.3297 -0.5942 -0.1997
 9999SOL    HW130840   6.393   3.621   6.414  0.2765 -2.4666  1.1877
 9999SOL    HW230841   6.356   3.669   6.553 -1.4473 -2.1583  0.6491
10000SOL     OW30842   7.878   2.789   5.220  0.2384  0.0346  0.8888
10000SOL    HW130843   7.806   2.845   5.191 -1.0489 -2.5512 -1.3613
10000SOL    HW230844   7.871   2.790   5.315 -0.9910  2.0156  0.8615
10001SOL     OW30845   8.128   7.680   4.516 -0.1574 -0.0025 -0.5332
10001SOL    HW130846   8.172   7.761   4.490  0.9367 -0.1178  0.8198
10001SOL    HW230847   8.081   7.652   4.438  0.0478  1.5419 -1.2436
10002SOL     OW30848   6.826   6.205   2.764  0.1069 -0.5833 -0.6066
10002SOL    HW130849   6.790   6.286   2.800  1.4702  0.3736 -1.3132
10002SOL    HW230850   6.867   6.162   2.839  1.2545  0.4515 -0.6097
10003SOL     OW30851   2.379   3.499   1.230 -0.1161 -0.1654  0.1909
10003SOL    HW130852   2.426   3.489   1.312 -0.6574 -0.1952  0.5007
10003SOL    HW230853   2.290   3.522   1.255  0.0988  1.4454 -0.4257
10004SOL     OW30854   4.675   2.635   1.999 -0.7361  0.3353  0.5234
10004SOL    HW130855   4.742   2.577   1.965  0.1604  2.5081 -1.7676
10004SOL    HW230856   4.605   2.632   1.933 -1.5159  0.4495  1.3194
10005SOL     OW30857   0.092   0.103   7.783  0.3189 -0.0967 -0.2156
10005SOL    HW130858   0.058   0.190   7.763  0.0115  0.3359  1.9626
10005SOL    HW230859   0.187   0.116   7.792  0.1137  0.3943  1.6612
10006SOL     OW30860   4.030   5.955   0.160 -0.6220  0.0032  0.2405
10006SOL    HW130861   4.122   5.954   0.133 -0.9199  0.4875 -0.8689
10006SOL    HW230862   4.031   5.989   0.249  0.2164  0.7015 -0.0256
10007SOL     OW30863   4.840   4.899   2.678 -1.3097  0.1390  0.1894
10007SOL    HW130864   4.931   4.905   2.707 -1.0834  4.0168 -0.7937
10007SOL    HW230865   4.788   4.914   2.758 -1.0961 -1.0339  0.5637
10008SOL     OW30866   5.294   7.474   7.330 -0.5087  0.4929  0.2478
10008SOL    HW130867   5.324   7.408   7.268 -0.3107 -1.2315  2.0528
10008SOL    HW230868   5.237   7.426   7.390 -1.0205  2.1524  1.1532
10009SOL     OW30869   3.700   6.848   3.072  0.2719 -0.2159  0.8468
10009SOL    HW130870   3.640   6.774   3.068 -0.9927  0.8394 -1.3239
10009SOL    HW230871   3.723   6.866   2.981  3.7647 -0.4130  1.5495
10010SOL     OW30872   1.584   0.237   1.751  0.1111  0.0848  0.1691
10010SOL    HW130873   1.564   0.311   1.694 -3.1057 -1.5950 -1.1472
10010SOL    HW230874   1.536   0.255   1.832 -0.5108 -0.4370 -0.0775
10011SOL     OW30875   6.611   3.957   0.674  0.3128  0.6297  0.0887
10011SOL    HW130876   6.567   3.914   0.748 -1.1445 -1.8725 -2.0524
10011SOL    HW230877   6.631   3.885   0.614  2.0721  2.4736 -1.6840
10012SOL     OW30878   7.814   5.870   4.068 -0.5701  0.6246  0.2706
10012SOL    HW130879   7.788   5.870   3.976 -1.1769 -0.0234  0.4306
10012SOL    HW230880   7.807   5.778   4.094  0.0848  0.7289  0.8279
10013SOL     OW30881   5.948   2.838   0.968  0.1783  0.6507  0.1952
10013SOL    HW130882   6.044   2.835   0.966  0.1640  0.2231 -0.0497
10013SOL    HW230883   5.924   2.782   1.042  0.1206  0.9432  0.4012
10014SOL     OW30884   4.890   5.347   3.236 -0.6613  0.0145 -0.0554
10014SOL    HW130885   4.801   5.313   3.232 -1.8705  2.7766  0.6195
10014SOL    HW230886   4.882   5.428   3.287  1.6708  1.9780 -2.5318
10015SOL     OW30887   3.878   2.335   6.536  0.3922  0.1159 -0.2196
10015SOL    HW130888   3.805   2.352   6.477 -0.4247  1.5464  1.1097
10015SOL    HW230889   3.850   2.260   6.588  0.2571  0.0867 -0.3345
10016SOL     OW30890   8.062   6.281   6.962 -0.6604 -0.3395 -0.4686
10016SOL    HW130891   8.024   6.319   6.882  0.8150 -2.1486 -2.1289
10016SOL    HW230892   8.063   6.187   6.946 -0.3833 -0.7711  1.7691
10017SOL     OW30893   2.733   3.530   3.228  0.0188 -0.0238 -0.3505
10017SOL    HW130894   2.773   3.607   3.189  2.2422 -1.4175 -0.9560
10017SOL    HW230895   2.703   3.478   3.154 -2.2193  0.5620  0.0735
10018SOL     OW30896   4.580   7.243   3.887 -0.1009 -0.0426 -0.5138
10018SOL    HW130897   4.539   7.215   3.805  1.0725  1.2493 -1.5851
10018SOL    HW230898   4.514   7.300   3.928 -0.7355 -0.7801 -0.4800
10019SOL     OW30899   7.621   7.036   2.443 -0.2224 -0.3143 -0.0497
10019SOL    HW130900   7.626   7.025   2.538 -1.5563 -0.5277  0.0150
10019SOL    HW230901   7.563   6.966   2.413 -1.2324  0.7811 -0.7949
10020SOL     OW30902   7.494   5.536   6.678  0.2846  0.1052 -0.3706
10020SOL    HW130903   7.563   5.549   6.743  0.5676  0.9753 -0.8309
10020SOL    HW230904   7.414   5.525   6.730  0.5118  0.7560  0.1348
10021SOL     OW30905   4.759   6.992   6.836 -0.2157  0.2573  0.1179
10021SOL    HW130906   4.679   6.967   6.789  0.3322 -0.9919 -0.2001
10021SOL    HW230907   4.728   7.027   6.919 -1.0906 -0.3915  0.0819
10022SOL     OW30908   2.835   4.622   7.139  0.2502 -0.1192 -0.3779
10022SOL    HW130909   2.794   4.553   7.088  0.5400 -0.9862  0.5150
10022SOL    HW230910   2.807   4.605   7.229  0.5660  0.7505 -0.1049
10023SOL     OW30911   2.126   2.553   2.119 -0.0534  0.2183  0.2688
10023SOL    HW130912   2.184   2.622   2.089  0.6524 -1.5672 -2.8665
10023SOL    HW230913   2.151   2.540   2.211  1.6135  2.2573  0.1879
10024SOL     OW30914   1.176   8.144   6.420 -0.6683 -0.1856  0.1341
10024SOL    HW130915   1.209   8.234   6.422  0.1154 -0.4551 -0.2261
10024SOL    HW230916   1.104   8.147   6.357 -0.7138  0.2090  0.1976
10025SOL     OW30917   1.344   7.858   1.360 -0.1981 -0.2404 -0.5105
10025SOL    HW130918   1.307   7.861   1.272 -1.5562  0.6138  0.0629
10025SOL    HW230919   1.379   7.945   1.374 -0.9926 -0.0246  0.2003
10026SOL     OW30920   3.595   6.942   7.125 -0.4184  0.1009  0.1826
10026SOL    HW130921   3.618   6.945   7.032 -0.3308 -0.3051  0.1916
10026SOL    HW230922   3.678   6.924   7.169 -0.6352 -0.7271  0.2638
10027SOL     OW30923   2.836   1.090   0.150  0.2904  0.7639  0.5452
10027SOL    HW130924   2.781   1.136   0.088 -3.2544 -1.1397  1.9852
10027SOL    HW230925   2.852   1.153   0.220  1.6734  1.9187 -0.7376
10028SOL     OW30926   6.563   6.093   1.999  0.0313  0.4118 -0.0964
10028SOL    HW130927   6.584   6.137   2.081 -1.0917  0.7572  0.0104
10028SOL    HW230928   6.494   6.147   1.959 -2.8641 -2.2378  0.9721
10029SOL     OW30929   6.045   4.458   6.797 -0.0884  0.5241 -0.1798
10029SOL    HW130930   6.035   4.399   6.722  0.3760  0.5514 -0.2652
10029SOL    HW230931   5.956   4.472   6.828 -0.1381 -1.1614  0.5670
10030SOL     OW30932   3.665   3.375   5.383  0.4961 -0.0561  0.1570
10030SOL    HW130933   3.713   3.331   5.453 -0.3790  1.0124  1.4869
10030SOL    HW230934   3.607   3.308   5.348  2.6222 -1.2642 -1.2250
10031SOL     OW30935   0.159   3.221   0.456 -0.3702 -0.4853 -0.2780
10031SOL    HW130936   0.252   3.236   0.476 -0.3255 -0.6091 -0.3878
10031SOL    HW230937   0.142   3.273   0.378 -0.0508 -1.4724 -1.0358
10032SOL     OW30938   5.031   6.069   4.369  0.1590 -0.1792  0.1352
10032SOL    HW130939   5.058   6.033   4.454  1.6969  0.6812  0.0347
10032SOL    HW230940   5.113   6.091   4.325 -0.6668  1.1819 -0.7871
10033SOL     OW30941   6.785   4.422   4.287 -0.1640 -0.2997  0.0955
10033SOL    HW130942   6.710   4.383   4.242  0.5575  1.3302 -2.7497
10033SOL    HW230943   6.776   4.516   4.272  1.6370  0.0596  1.0170
10034SOL     OW30944   4.724   6.104   0.557 -0.3919 -0.3355  0.4003
10034SOL    HW130945   4.688   6.084   0.471  1.6857  1.9752 -1.1417
10034SOL    HW230946   4.790   6.036   0.571 -0.0344 -0.1513 -0.3276
10035SOL     OW30947   7.142   6.276   2.482 -1.1105 -0.3744  0.1109
10035SOL    HW130948   7.180   6.188   2.481 -0.4251 -0.0835 -0.2516
10035SOL    HW230949   7.148   6.304   2.573 -0.1028 -0.1946  0.0028
10036SOL     OW30950   1.448   2.628   5.420 -0.5759 -0.0058 -0.7966
10036SOL    HW130951   1.370   2.681   5.400 -0.3683  0.2663 -0.8983
10036SOL    HW230952   1.455   2.568   5.346  0.0592  0.8486 -1.4544
10037SOL     OW30953   0.315   7.254   3.133 -0.1935  0.1347  0.0376
10037SOL    HW130954   0.268   7.183   3.088  0.0655  0.9186 -1.5591
10037SOL    HW230955   0.283   7.334   3.091  0.1975  0.9055  1.1667
10038SOL     OW30956   5.091   3.652   5.155 -0.6455 -0.4098 -0.4685
10038SOL    HW130957   5.168   3.646   5.212 -0.2842 -0.3110 -0.9492
10038SOL    HW230958   5.068   3.561   5.136 -0.4726 -0.4339 -0.5630
10039SOL     OW30959   7.008   1.675   5.573  0.2028  0.1621 -0.4549
10039SOL    HW130960   7.040   1.752   5.525  1.3180  0.7688  1.1993
10039SOL    HW230961   7.051   1.680   5.658 -0.8643 -1.5040  0.2226
10040SOL     OW30962   6.227   4.636   7.448 -0.1622 -0.4903  0.5238
10040SOL    HW130963   6.315   4.633   7.410  0.3117 -0.5458  1.5856
10040SOL    HW230964   6.196   4.724   7.429  0.5922 -0.0792  1.1389
10041SOL     OW30965   6.590   4.446   3.633 -0.2148  0.5756  0.4992
10041SOL    HW130966   6.512   4.410   3.676 -0.0122  2.4131  2.5640
10041SOL    HW230967   6.615   4.520   3.688  2.3053  0.7598 -0.7891
10042SOL     OW30968   1.085   6.440   4.811 -0.8263  0.3350  0.1623
10042SOL    HW130969   1.116   6.453   4.722 -1.1073 -1.3302 -0.2097
10042SOL    HW230970   1.129   6.360   4.840 -1.9031  0.0164  0.9636
10043SOL     OW30971   4.436   3.776   7.720  0.3312 -0.5236  0.0828
10043SOL    HW130972   4.454   3.856   7.671 -0.1725  0.4310  1.3957
10043SOL    HW230973   4.501   3.777   7.790  0.5803 -1.4884 -0.1254
10044SOL     OW30974   4.736   3.907   1.386  0.2431  0.5696 -0.2648
10044SOL    HW130975   4.714   3.995   1.418  1.7918  0.6378  0.7672
10044SOL    HW230976   4.832   3.907   1.382  0.2692 -1.0759 -0.2342
10045SOL     OW30977   6.938   0.973   1.149  0.6218  0.0477 -0.3269
10045SOL    HW130978   6.961   0.884   1.121  0.5693  0.4404 -1.6677
10045SOL    HW230979   6.916   0.964   1.242  1.1666 -1.2389 -0.3058
10046SOL     OW30980   2.659   7.152   6.228  0.1387 -0.2684  0.0360
10046SOL    HW130981   2.736   7.163   6.284  0.5179  0.1446 -0.5476
10046SOL    HW230982   2.622   7.068   6.254  2.0677 -1.5587 -1.1723
10047SOL     OW30983   5.014   4.004   7.526 -0.0264  0.9709 -0.2105
10047SOL    HW130984   5.065   4.039   7.599  0.1478 -0.8883  0.6018
10047SOL    HW230985   5.078   3.961   7.470 -0.4232  0.5695 -0.3606
10048SOL     OW30986   2.314   7.139   3.243  0.4724  0.3665  0.4953
10048SOL    HW130987   2.332   7.183   3.160  0.0167  2.0403  1.2356
10048SOL    HW230988   2.360   7.055   3.236  2.5221  1.4910 -0.4670
10049SOL     OW30989   5.771   4.696   5.396  0.4135 -0.5210 -0.2038
10049SOL    HW130990   5.778   4.655   5.310  0.3067 -0.1019 -0.4153
10049SOL    HW230991   5.744   4.625   5.454  1.2984 -0.9906 -0.3565
10050SOL     OW30992   3.796   3.368   4.978  0.3688  0.3366  0.5079
10050SOL    HW130993   3.734   3.311   4.932 -0.9808  0.2286  2.3393
10050SOL    HW230994   3.743   3.441   5.009  1.5831  1.2938  0.3981
10051SOL     OW30995   7.207   6.478   7.681 -0.9285  0.0126 -0.3918
10051SOL    HW130996   7.122   6.510   7.713 -0.6732  0.6708 -0.3539
10051SOL    HW230997   7.185   6.419   7.609 -1.4258  0.0657 -0.2887
10052SOL     OW30998   7.876   4.774   5.437 -0.0124  0.1770  0.0455
10052SOL    HW130999   7.811   4.746   5.373  0.1891 -0.5651  0.1549
10052SOL    HW231000   7.940   4.703   5.440 -0.0347  0.1724  1.0917
10053SOL     OW31001   4.743   0.892   0.022 -0.2529  0.3782  0.3236
10053SOL    HW131002   4.822   0.908  -0.030  1.1955  0.2881  2.3341
10053SOL    HW231003   4.728   0.798   0.015 -0.2595  0.4195 -0.2027
10054SOL     OW31004   3.881   7.559   6.546  0.0066  0.4355  0.6329
10054SOL    HW131005   3.837   7.499   6.486  1.0783 -0.1992  0.4672
10054SOL    HW231006   3.817   7.575   6.616 -1.5472  1.7308 -0.9758
10055SOL     OW31007   7.363   4.100   2.370  0.4375  0.4099 -0.0126
10055SOL    HW131008   7.400   4.144   2.293  0.4722 -1.1891 -0.9701
10055SOL    HW231009   7.411   4.137   2.444  0.7713  1.6294 -0.8036
10056SOL     OW31010   5.583   4.900   0.029 -0.0975 -0.2620  0.1086
10056SOL    HW131011   5.528   4.952   0.087 -1.1943 -0.1649 -0.9829
10056SOL    HW231012   5.528   4.827   0.002  0.3413 -0.2261 -0.9225
10057SOL     OW31013   0.816   5.109   0.778 -0.6405 -0.0453  0.5034
10057SOL    HW131014   0.742   5.054   0.752  0.9351 -1.9041 -0.3555
10057SOL    HW231015   0.838   5.078   0.866 -0.8602  0.4912  0.7501
10058SOL     OW31016   3.545   7.758   2.301  0.0002 -0.0774  0.6964
10058SOL    HW131017   3.618   7.698   2.320  0.6406 -0.8494 -3.3624
10058SOL    HW231018   3.587   7.833   2.259 -1.4521 -0.8414 -2.3735
10059SOL     OW31019   4.606   3.530   0.004  0.3306 -0.5311  0.1130
10059SOL    HW131020   4.589   3.599  -0.060 -0.5212  0.7247  1.6507
10059SOL    HW231021   4.632   3.455  -0.050 -0.1761  0.5191 -1.6955
10060SOL     OW31022   6.579   7.790   5.522 -0.0552  0.2526  0.0736
10060SOL    HW131023   6.595   7.882   5.499 -0.8753  0.2528 -0.5664
10060SOL    HW231024   6.663   7.758   5.554  0.5447  0.9131 -0.7752
10061SOL     OW31025   5.351   3.928   7.676 -0.6014  0.7221 -0.5385
10061SOL    HW131026   5.294   4.001   7.700 -0.0308  1.4249 -1.2667
10061SOL    HW231027   5.315   3.895   7.594  0.0371  1.1788 -1.0088
10062SOL     OW31028   3.320   2.447   4.201 -0.0638 -0.6748  0.4333
10062SOL    HW131029   3.229   2.417   4.199 -0.6706  1.0111  0.9964
10062SOL    HW231030   3.330   2.490   4.286  1.3388 -1.0055  0.4700
10063SOL     OW31031   4.434   3.134   7.912  0.4012  0.2571 -0.2244
10063SOL    HW131032   4.471   3.062   7.963  1.5667 -0.7483 -2.3268
10063SOL    HW231033   4.340   3.127   7.925  0.5989 -0.6068  0.9237
10064SOL     OW31034   0.315   3.268   4.307  0.5874 -0.3894  0.3627
10064SOL    HW131035   0.358   3.260   4.392  0.4750 -0.6248  0.3969
10064SOL    HW231036   0.387   3.276   4.244  0.7114 -1.7613  0.3085
10065SOL     OW31037   5.323   4.589   2.221 -0.1562  0.1771  0.1179
10065SOL    HW131038   5.261   4.534   2.268 -1.5649  0.2146 -1.6069
10065SOL    HW231039   5.318   4.674   2.264 -0.0458 -0.2540  1.0187
10066SOL     OW31040   2.915   6.174   4.624  0.6400  0.1220  0.2857
10066SOL    HW131041   2.930   6.082   4.646  1.0553  0.2527  0.5703
10066SOL    HW231042   2.858   6.206   4.693 -1.7445 -0.5849 -1.2360
10067SOL     OW31043   1.340   4.275   7.197 -0.7098  0.3001  0.1147
10067SOL    HW131044   1.363   4.368   7.193 -2.0497  0.6189 -1.4191
10067SOL    HW231045   1.281   4.267   7.272 -0.8691  0.7473  0.0351
10068SOL     OW31046   1.592   0.276   2.355  0.0551 -0.0635 -0.7871
10068SOL    HW131047   1.647   0.214   2.403 -1.5652  1.0374  2.7981
10068SOL    HW231048   1.640   0.359   2.358 -1.3411  0.7621  1.8647
10069SOL     OW31049   7.468   3.421   3.952  0.0666  0.0322  0.0831
10069SOL    HW131050   7.446   3.461   3.868 -0.6283  2.1204  1.1939
10069SOL    HW231051   7.387   3.380   3.981 -0.2278  0.9460  0.5795
10070SOL     OW31052   2.551   4.581   1.016 -0.5374  0.4093  0.4250
10070SOL    HW131053   2.508   4.623   0.942  0.4233  1.7022  0.5763
10070SOL    HW231054   2.641   4.567   0.987 -0.8377 -1.7091  0.3345
10071SOL     OW31055   1.784   6.840   5.750 -0.0594 -0.3945 -0.5589
10071SOL    HW131056   1.825   6.838   5.836  0.1039 -2.9692 -0.6254
10071SOL    HW231057   1.713   6.776   5.756 -1.4609  0.9716 -1.7062
10072SOL     OW31058   7.397   2.407   4.582 -0.4552  0.2406  0.4386
10072SOL    HW131059   7.487   2.437   4.568 -0.4255  0.0248  0.1523
10072SOL    HW231060   7.344   2.486   4.581 -0.1930  0.4377  1.2540
10073SOL     OW31061   3.610   3.581   5.003  0.0856 -0.0427 -0.1266
10073SOL    HW131062   3.567   3.583   5.088 -0.4569 -1.9995 -0.3082
10073SOL    HW231063   3.543   3.550   4.943  1.2319 -1.4013 -0.7497
10074SOL     OW31064   7.122   8.048   4.907 -0.3406  0.1666  0.0294
10074SOL    HW131065   7.063   8.117   4.940  0.4735  0.4444  0.9517
10074SOL    HW231066   7.154   8.005   4.986 -1.3832 -1.7745 -0.5543
10075SOL     OW31067   6.563   2.188   4.143  0.6502 -0.1838 -0.4265
10075SOL    HW131068   6.516   2.256   4.096  1.4337  1.2318  0.7481
10075SOL    HW231069   6.595   2.130   4.075 -0.7302  0.1546 -1.3997
10076SOL     OW31070   7.476   6.502   0.271 -0.2153  0.0451 -0.5721
10076SOL    HW131071   7.398   6.479   0.322  0.3792 -0.0835  0.2985
10076SOL    HW231072   7.464   6.456   0.188 -1.0285 -0.0365 -0.4185
10077SOL     OW31073   3.738   6.472   6.480 -0.1309 -0.2356 -0.5654
10077SOL    HW131074   3.707   6.384   6.457  0.4632 -0.5704 -0.1167
10077SOL    HW231075   3.661   6.514   6.517 -0.5888 -0.3412 -1.3702
10078SOL     OW31076   3.669   2.095   2.522  0.6587  0.7745  0.1257
10078SOL    HW131077   3.687   2.073   2.430  1.7013  2.6552 -0.1596
10078SOL    HW231078   3.578   2.067   2.535  0.6793 -0.0940 -1.2855
10079SOL     OW31079   7.052   6.485   3.960 -0.6972 -0.1200 -0.4804
10079SOL    HW131080   6.978   6.535   3.996  0.9114  1.6160  0.5725
10079SOL    HW231081   7.076   6.424   4.029 -1.9909 -1.7226 -1.3712
10080SOL     OW31082   1.507   0.003   5.833  0.0278 -0.0133 -0.1849
10080SOL    HW131083   1.520  -0.090   5.853  0.5332  0.1264  0.1491
10080SOL    HW231084   1.424   0.006   5.784  0.4795 -0.7472 -1.0217
10081SOL     OW31085   6.124   0.718   6.789 -0.0672  0.5032 -0.3487
10081SOL    HW131086   6.194   0.763   6.836  0.3578 -0.5479  0.0688
10081SOL    HW231087   6.073   0.788   6.749 -0.0799  1.4111  1.1707
10082SOL     OW31088   7.590   2.385   3.388  0.0365  0.2025  0.2423
10082SOL    HW131089   7.599   2.306   3.441 -0.3768  0.4480  0.6807
10082SOL    HW231090   7.510   2.427   3.420  0.6968  1.2415  0.5991
10083SOL     OW31091   2.209   6.733   5.874 -0.3066 -0.2294  0.3994
10083SOL    HW131092   2.151   6.670   5.831 -1.1516  1.4290 -1.0101
10083SOL    HW231093   2.274   6.754   5.807  0.9156 -0.7279  1.3816
10084SOL     OW31094   2.933   0.323   6.678  0.1029  0.3995  0.6057
10084SOL    HW131095   2.883   0.350   6.755 -1.8528  0.7438 -0.7095
10084SOL    HW231096   2.973   0.403   6.646 -0.0659  0.4760  0.5862
10085SOL     OW31097   1.125   1.163   5.939  0.2556  0.3022 -0.1413
10085SOL    HW131098   1.062   1.234   5.957 -2.1819 -1.9492  0.8597
10085SOL    HW231099   1.193   1.174   6.005  0.9375  2.6958 -1.1180
10086SOL     OW31100   6.314   6.610   2.333  0.2169  0.1442 -0.0628
10086SOL    HW131101   6.309   6.624   2.427 -2.5649 -1.2826  0.0916
10086SOL    HW231102   6.251   6.671   2.296 -1.3842 -1.7051 -0.5903
10087SOL     OW31103   5.038   2.587   3.918 -0.1756  0.0966 -0.2044
10087SOL    HW131104   5.034   2.575   4.013  3.1189  0.8008  0.1531
10087SOL    HW231105   5.051   2.500   3.882  0.0869 -0.0087  0.1468
10088SOL     OW31106   5.437   0.136   5.420  0.1456  0.1386  0.2923
10088SOL    HW131107   5.350   0.177   5.420  0.5539  1.0982 -1.3884
10088SOL    HW231108   5.496   0.206   5.392  1.6524 -0.2213  2.3679
10089SOL     OW31109   3.285   5.523   6.600 -0.1652 -0.3145  0.0642
10089SOL    HW131110   3.190   5.517   6.587 -0.0839 -1.4051 -0.0617
10089SOL    HW231111   3.307   5.446   6.652  0.3070  1.2152  2.2991
10090SOL     OW31112   6.535   4.562   7.090 -0.1639 -0.3609 -0.2027
10090SOL    HW131113   6.519   4.595   7.178 -0.5027  1.3487 -0.8649
10090SOL    HW231114   6.447   4.549   7.053 -0.0723  1.0289 -0.9989
10091SOL     OW31115   6.230   6.430   1.495 -0.1752  0.0277  0.6249
10091SOL    HW131116   6.221   6.336   1.508  0.2577 -0.5052 -2.2592
10091SOL    HW231117   6.147   6.458   1.457  0.5944  0.2695 -0.9574
10092SOL     OW31118   2.105   1.099   7.893 -0.1469 -0.1898 -0.1020
10092SOL    HW131119   2.193   1.134   7.880  0.4592 -0.9497  1.6512
10092SOL    HW231120   2.065   1.101   7.806  1.3147  0.9087 -0.7865
10093SOL     OW31121   1.052   4.757   0.267  0.2079 -0.6868 -0.0823
10093SOL    HW131122   1.120   4.821   0.288  0.0934 -0.8133  0.7425
10093SOL    HW231123   1.091   4.701   0.201 -0.6001  1.8032 -2.8800
10094SOL     OW31124   3.318   5.327   4.349  0.2125  0.0997  0.3697
10094SOL    HW131125   3.223   5.322   4.355  0.1102 -0.1995 -1.0308
10094SOL    HW231126   3.334   5.402   4.291  0.7938 -0.1897  0.1440
10095SOL     OW31127   4.247   6.632   2.584  0.0097 -0.0948 -0.4034
10095SOL    HW131128   4.225   6.667   2.498 -1.3345  1.7136  0.6062
10095SOL    HW231129   4.164   6.604   2.621  0.5971 -1.0242  0.2681
10096SOL     OW31130   6.123   7.317   3.582 -0.4432 -0.3602 -0.0466
10096SOL    HW131131   6.107   7.243   3.641 -0.6057 -0.3000 -0.0135
10096SOL    HW231132   6.217   7.317   3.568 -0.2031  0.4766  1.3539
10097SOL     OW31133   7.958   8.132   5.984 -0.6804  0.0677 -0.0156
10097SOL    HW131134   7.883   8.075   5.998 -0.4227 -0.3433 -0.2852
10097SOL    HW231135   7.936   8.212   6.030 -0.9404 -0.3418  0.5812
10098SOL     OW31136   3.446   7.832   6.808 -0.4272 -0.2268 -0.0683
10098SOL    HW131137   3.449   7.884   6.728  0.9825 -1.0688 -0.6020
10098SOL    HW231138   3.361   7.789   6.805 -0.4246 -0.1821 -1.0766
10099SOL     OW31139   1.465   3.590   1.863 -0.6841 -0.0385  0.3893
10099SOL    HW131140   1.411   3.534   1.806 -3.0266  2.4929 -0.1263
10099SOL    HW231141   1.523   3.636   1.802  0.0978 -0.7059  0.6219
10100SOL     OW31142   4.804   1.105   7.633 -0.2896 -0.8436  0.1785
10100SOL    HW131143   4.860   1.180   7.656 -1.2893 -0.4742  1.5865
10100SOL    HW231144   4.778   1.122   7.543  0.2953 -0.0150  0.1463
10101SOL     OW31145   0.125   7.964   1.514  0.1911 -0.7427 -0.0229
10101SOL    HW131146   0.080   7.889   1.553  0.6741 -1.2493 -0.4422
10101SOL    HW231147   0.080   8.040   1.552  0.1419 -1.2302  0.9261
10102SOL     OW31148   5.340   5.369   2.448  0.3986  0.2936 -0.5171
10102SOL    HW131149   5.385   5.294   2.488 -1.9956 -0.5310  0.7705
10102SOL    HW231150   5.342   5.437   2.515 -0.2388  0.2566 -0.4560
10103SOL     OW31151   0.148   1.653   4.897 -0.1499  0.5062 -0.0868
10103SOL    HW131152   0.186   1.715   4.834 -0.4726  1.2162  0.4063
10103SOL    HW231153   0.079   1.609   4.847  1.7464 -1.3436 -1.2293
10104SOL     OW31154   7.071   5.601   4.241 -0.1885  0.1534  0.4794
10104SOL    HW131155   7.144   5.652   4.205 -0.3701  0.1634  0.1161
10104SOL    HW231156   6.993   5.644   4.205 -0.3449 -0.3302  0.2345
10105SOL     OW31157   5.346   5.695   6.977  0.1675 -0.3313 -0.0909
10105SOL    HW131158   5.251   5.687   6.985  0.3921 -1.6569  2.7028
10105SOL    HW231159   5.363   5.699   6.883 -2.7104  1.4630 -0.6461
10106SOL     OW31160   3.465   2.337   5.772  0.0459  0.0241  0.2697
10106SOL    HW131161   3.379   2.363   5.803  0.4500  1.9668 -0.1316
10106SOL    HW231162   3.468   2.368   5.681  0.7906 -0.9801 -0.0755
10107SOL     OW31163   1.973   5.710   2.579  0.5160 -0.7594 -0.5138
10107SOL    HW131164   2.066   5.717   2.600  0.3698  0.1382 -0.1425
10107SOL    HW231165   1.935   5.668   2.656  0.1388  1.6578  0.7230
10108SOL     OW31166   3.328   6.514   3.580  0.0170 -0.0561  0.1379
10108SOL    HW131167   3.241   6.531   3.617 -0.1989  0.5513 -0.6264
10108SOL    HW231168   3.389   6.540   3.649 -0.3980 -1.6582  1.1766
10109SOL     OW31169   1.889   5.951   6.119 -0.0081 -0.5197  0.4477
10109SOL    HW131170   1.943   5.984   6.046  0.1602 -0.8606  0.4164
10109SOL    HW231171   1.933   5.871   6.146  0.1655 -0.1709  1.2088
10110SOL     OW31172   5.164   4.299   4.605 -0.3957  0.0696 -0.0760
10110SOL    HW131173   5.101   4.366   4.632  1.4141  0.5600  3.5453
10110SOL    HW231174   5.217   4.340   4.538  0.4684  2.2754  1.8317
10111SOL     OW31175   7.907   3.016   5.645 -0.2424 -0.6257  0.2786
10111SOL    HW131176   7.996   3.018   5.608 -0.2430  1.3463  0.2958
10111SOL    HW231177   7.858   2.958   5.587  0.2052  0.9996 -1.8029
10112SOL     OW31178   5.669   5.710   1.301  0.4612  0.2448 -1.0323
10112SOL    HW131179   5.625   5.628   1.278 -1.7635  0.6768  1.2626
10112SOL    HW231180   5.685   5.753   1.217 -1.2994 -1.0798 -2.1241
10113SOL     OW31181   6.395   6.967   3.005 -0.5969 -0.1675  0.6637
10113SOL    HW131182   6.480   6.924   3.001 -0.4291  0.2130 -2.2937
10113SOL    HW231183   6.372   6.967   3.098  0.5973 -4.1763  1.1461
10114SOL     OW31184   4.589   4.575   2.583  0.2985  0.3323  0.3475
10114SOL    HW131185   4.586   4.565   2.678  0.6545  0.2059  0.3446
10114SOL    HW231186   4.511   4.628   2.562  0.5181  0.8246  0.7649
10115SOL     OW31187   6.672   3.121   3.843 -0.2704  0.0024 -0.0391
10115SOL    HW131188   6.609   3.053   3.866 -0.7467  0.1248 -0.9404
10115SOL    HW231189   6.618   3.197   3.821  0.2748  1.0280  1.9509
10116SOL     OW31190   4.457   4.223   7.317  0.1689 -0.9306 -0.2152
10116SOL    HW131191   4.381   4.217   7.258  0.6430  0.8464 -1.0556
10116SOL    HW231192   4.527   4.257   7.262 -0.3122  4.7921  2.0139
10117SOL     OW31193   5.521   2.951   1.068 -0.5079  0.4902 -0.0237
10117SOL    HW131194   5.501   3.036   1.107 -2.2524  1.0711 -2.0020
10117SOL    HW231195   5.544   2.970   0.977  0.0412 -1.0727 -0.2488
10118SOL     OW31196   3.694   2.081   5.370  0.0779  0.1573 -0.5982
10118SOL    HW131197   3.705   2.129   5.452  1.1691 -0.3749 -0.4239
10118SOL    HW231198   3.603   2.051   5.372 -0.4048  1.5633 -0.3747
10119SOL     OW31199   3.230   5.850   4.114  0.4506  0.0518 -0.0997
10119SOL    HW131200   3.269   5.906   4.181  0.8020  2.2439 -2.0246
10119SOL    HW231201   3.296   5.782   4.098 -0.0856 -1.2036  2.4420
10120SOL     OW31202   3.842   0.306   0.324  0.4019 -0.0673 -0.5544
10120SOL    HW131203   3.817   0.216   0.308 -0.9820  0.0403  0.7602
10120SOL    HW231204   3.887   0.304   0.409  0.0844  0.5064 -0.3631
10121SOL     OW31205   0.420   0.011   4.632  0.1006  0.1122  0.0291
10121SOL    HW131206   0.481   0.085   4.628  0.1095  0.0974 -0.1187
10121SOL    HW231207   0.338   0.046   4.598  0.2010 -0.0407 -0.3730
10122SOL     OW31208   3.910   2.001   1.687 -0.1377  0.1583 -0.5769
10122SOL    HW131209   3.980   2.042   1.738  2.5601 -2.3854 -1.9060
10122SOL    HW231210   3.894   1.917   1.731 -1.3535  0.0863 -1.1185
10123SOL     OW31211   3.627   5.896   6.682 -0.4399 -0.7299 -0.0588
10123SOL    HW131212   3.536   5.902   6.711 -0.7772 -0.4814 -1.1533
10123SOL    HW231213   3.635   5.961   6.613  1.1430  0.7558  1.4328
10124SOL     OW31214   7.847   1.688   2.682  0.2455  0.0578 -0.2504
10124SOL    HW131215   7.917   1.678   2.618  0.1442  2.0619 -0.7384
10124SOL    HW231216   7.845   1.782   2.701 -2.6485  0.1626 -0.6423
10125SOL     OW31217   1.923   1.093   2.654 -0.9055  0.4335  0.1615
10125SOL    HW131218   1.912   1.079   2.560 -0.9903  0.2790  0.1939
10125SOL    HW231219   1.882   1.178   2.670 -2.7900 -0.4581  0.4000
10126SOL     OW31220   5.223   6.578   1.141  0.2471 -0.0793 -0.4654
10126SOL    HW131221   5.140   6.626   1.142  0.3841  0.1949  1.2758
10126SOL    HW231222   5.283   6.634   1.092  0.1403  1.1120  0.7082
10127SOL     OW31223   3.568   5.247   3.655  0.5403 -0.2666 -0.0804
10127SOL    HW131224   3.509   5.174   3.635 -0.5051  0.9374 -1.5305
10127SOL    HW231225   3.616   5.217   3.733  0.7143 -2.8074 -1.0652
10128SOL     OW31226   4.078   2.043   7.827  0.1292 -0.1105  0.3055
10128SOL    HW131227   4.039   2.093   7.756  0.9079 -0.1914 -0.1940
10128SOL    HW231228   4.009   1.983   7.855 -0.5221  0.6325  0.3247
10129SOL     OW31229   4.868   4.404   0.223 -0.6447  0.3509  0.6362
10129SOL    HW131230   4.856   4.357   0.306 -3.1972  0.6472  0.4922
10129SOL    HW231231   4.849   4.495   0.244  1.5591  0.9587  0.2975
10130SOL     OW31232   6.773   0.146   4.696  0.0544 -0.2178 -0.4477
10130SOL    HW131233   6.835   0.192   4.638  1.7454 -2.4531 -0.5376
10130SOL    HW231234   6.695   0.134   4.642  1.2842 -1.4912 -2.0638
10131SOL     OW31235   2.152   1.866   5.196 -0.0307 -0.1412 -0.1330
10131SOL    HW131236   2.066   1.846   5.158 -0.3575  1.4868 -0.3401
10131SOL    HW231237   2.208   1.884   5.120  0.3487 -0.6568  0.0230
10132SOL     OW31238   6.840   4.405   0.215  0.1787  0.2517 -0.1805
10132SOL    HW131239   6.818   4.338   0.280  0.3635 -0.3962 -0.7864
10132SOL    HW231240   6.792   4.379   0.136  1.5445 -0.0932 -0.9208
10133SOL     OW31241   3.141   5.884   2.244 -0.2823 -0.1791  0.1989
10133SOL    HW131242   3.230   5.903   2.214 -0.4570 -0.7803 -0.7739
10133SOL    HW231243   3.108   5.967   2.277  0.2994  0.2768 -0.3478
10134SOL     OW31244   1.225   1.090   2.505  0.1372 -0.2869 -0.5231
10134SOL    HW131245   1.262   1.017   2.554 -0.1009  0.5987  1.0653
10134SOL    HW231246   1.233   1.065   2.414  0.8467 -1.9084 -0.0458
10135SOL     OW31247   5.655   2.023   0.720 -0.6479  0.3249  0.0686
10135SOL    HW131248   5.563   2.001   0.700 -1.0632  0.6191  1.5557
10135SOL    HW231249   5.653   2.053   0.811  0.7780  1.2680 -0.1857
10136SOL     OW31250   4.447   6.027   7.835 -0.3679 -0.4696 -0.1874
10136SOL    HW131251   4.368   5.977   7.816  0.4616 -1.1185 -2.1677
10136SOL    HW231252   4.453   6.090   7.763 -1.2548  2.4516  2.0952
10137SOL     OW31253   7.174   7.361   7.847  0.2680 -0.1907  0.3989
10137SOL    HW131254   7.181   7.273   7.884  1.5755 -0.5615 -0.6423
10137SOL    HW231255   7.221   7.416   7.910 -1.3330 -0.0501  1.5221
10138SOL     OW31256   2.002   4.760   1.931  0.4688 -0.1723  0.7949
10138SOL    HW131257   2.094   4.771   1.906 -0.1683 -0.1236 -1.8902
10138SOL    HW231258   1.969   4.849   1.941  0.4468 -0.1510  0.5499
10139SOL     OW31259   7.782   6.691   3.684 -0.8622  0.1021  0.3106
10139SOL    HW131260   7.867   6.697   3.639 -0.8983 -1.0054  0.0795
10139SOL    HW231261   7.717   6.697   3.614 -0.9150 -2.0001  0.1119
10140SOL     OW31262   5.786   7.109   3.413 -0.1177  0.2776 -0.0641
10140SOL    HW131263   5.770   7.033   3.470  0.2202  0.8802  0.8623
10140SOL    HW231264   5.825   7.072   3.334 -1.1484 -0.6451 -0.1617
10141SOL     OW31265   0.725   3.839   8.042 -0.2805  0.0824  0.5835
10141SOL    HW131266   0.783   3.896   7.992 -0.5683  1.5618  1.8638
10141SOL    HW231267   0.784   3.785   8.095 -0.0386  0.3422  0.5803
10142SOL     OW31268   1.897   6.486   3.708 -0.3588 -0.6164 -0.2336
10142SOL    HW131269   1.890   6.567   3.658 -3.4098 -0.6997 -0.1396
10142SOL    HW231270   1.922   6.420   3.643 -0.4404 -0.0525 -0.8502
10143SOL     OW31271   1.196   8.210   0.297  0.0101 -0.5057 -0.0371
10143SOL    HW131272   1.245   8.233   0.218  0.3684 -1.3075 -0.0525
10143SOL    HW231273   1.253   8.239   0.369 -0.2614  0.1120 -0.0637
10144SOL     OW31274   4.700   7.328   5.995 -0.4690  0.3492  0.4529
10144SOL    HW131275   4.613   7.344   5.959  0.1814  2.3977 -0.3097
10144SOL    HW231276   4.699   7.371   6.080 -1.1977 -2.4223  1.9907
10145SOL     OW31277   4.900   1.008   2.946  0.3308  0.1532 -0.4780
10145SOL    HW131278   4.957   0.937   2.978 -0.1903  0.0224  0.1851
10145SOL    HW231279   4.816   0.965   2.931 -0.8625  1.0829  2.6607
10146SOL     OW31280   2.359   1.234   1.388 -0.0302 -0.6864 -0.0518
10146SOL    HW131281   2.307   1.202   1.462  0.0786  1.0644  0.8302
10146SOL    HW231282   2.294   1.276   1.331  0.0060 -1.2533 -0.5103
10147SOL     OW31283   5.328   7.010   1.109 -0.1279  0.4291  0.1473
10147SOL    HW131284   5.342   6.937   1.049 -1.9399 -0.0318  0.2295
10147SOL    HW231285   5.260   7.063   1.068  0.0002  1.1754  0.8681
10148SOL     OW31286   7.460   4.599   4.009  0.5272 -0.0493  0.3188
10148SOL    HW131287   7.423   4.646   4.084  1.4809 -0.2658  0.9354
10148SOL    HW231288   7.433   4.508   4.022 -1.0589  0.2300 -0.7148
10149SOL     OW31289   4.047   7.513   7.868 -0.4541  0.3797  0.0922
10149SOL    HW131290   4.046   7.459   7.947  1.7366 -2.2400 -1.4707
10149SOL    HW231291   4.051   7.603   7.900 -0.4595 -0.5357  2.9353
10150SOL     OW31292   3.009   7.336   4.464 -0.3602 -0.4299 -0.0806
10150SOL    HW131293   2.921   7.303   4.445 -0.4453 -0.8115  0.9615
10150SOL    HW231294   3.056   7.326   4.381 -0.8924 -1.5274 -0.2670
10151SOL     OW31295   4.789   0.139   4.355 -0.0560 -0.5224  0.1562
10151SOL    HW131296   4.779   0.195   4.432  0.0270 -0.4629  0.1244
10151SOL    HW231297   4.883   0.138   4.338 -0.0307 -0.8794  0.3085
10152SOL     OW31298   0.877   5.255   2.926  0.0713  0.0262  0.2229
10152SOL    HW131299   0.861   5.203   3.005  0.2016 -0.9351 -0.3645
10152SOL    HW231300   0.942   5.320   2.952 -0.8937  0.6016  1.2598
10153SOL     OW31301   5.256   6.760   0.783  0.7129  0.1947 -0.1006
10153SOL    HW131302   5.284   6.764   0.692 -0.3018  0.2252 -0.4311
10153SOL    HW231303   5.170   6.718   0.780  0.2388  1.0550  0.7403
10154SOL     OW31304   2.047   3.462   2.975  0.3177  0.3211 -0.5957
10154SOL    HW131305   1.973   3.487   3.030  0.5961 -0.6372  0.2409
10154SOL    HW231306   2.120   3.515   3.007  0.8225 -1.1826  0.9489
10155SOL     OW31307   2.171   4.719   3.099 -0.5747 -0.1629  0.3559
10155SOL    HW131308   2.093   4.719   3.044 -1.2237  0.2870  1.2773
10155SOL    HW231309   2.175   4.630   3.135 -1.0616  0.0218  0.8717
10156SOL     OW31310   6.607   7.597   5.012  0.0379 -0.2376  0.8122
10156SOL    HW131311   6.676   7.655   4.979 -0.5517  1.9507  3.0874
10156SOL    HW231312   6.609   7.608   5.107 -2.1322 -1.6632  1.1053
10157SOL     OW31313   5.687   1.281   7.574 -0.0880 -0.6158  0.3909
10157SOL    HW131314   5.748   1.298   7.502 -2.5103  0.1456 -1.6519
10157SOL    HW231315   5.612   1.239   7.532 -2.2343  1.1480  2.1516
10158SOL     OW31316   0.477   1.912   1.270 -0.4634  0.1137 -0.1329
10158SOL    HW131317   0.505   1.852   1.339  0.0215 -0.7162 -1.0201
10158SOL    HW231318   0.505   1.998   1.300 -0.1804 -0.2468  0.6652
10159SOL     OW31319   3.214   5.786   1.681 -0.0784  0.1222  0.4809
10159SOL    HW131320   3.272   5.814   1.610  1.4953 -0.8963  1.2965
10159SOL    HW231321   3.134   5.837   1.669  1.2174  2.0824 -0.3248
10160SOL     OW31322   3.747   3.874   2.664  0.1136  0.0965 -0.3193
10160SOL    HW131323   3.684   3.908   2.728 -0.4625 -1.6837  0.1182
10160SOL    HW231324   3.815   3.833   2.718  0.0709 -0.6565 -0.8341
10161SOL     OW31325   4.519   7.133   3.048  0.4368  0.1192  0.2176
10161SOL    HW131326   4.443   7.142   2.990  0.7264 -0.5019 -0.2651
10161SOL    HW231327   4.500   7.191   3.121 -1.5041 -1.5942  1.1638
10162SOL     OW31328   5.222   0.178   6.464 -0.4578 -0.3657 -0.2075
10162SOL    HW131329   5.241   0.247   6.400 -2.8873  1.2833  0.7084
10162SOL    HW231330   5.152   0.127   6.425 -0.9318 -0.2682  0.4992
10163SOL     OW31331   1.626   1.733   7.662 -0.6080 -0.1597 -0.0839
10163SOL    HW131332   1.564   1.711   7.732 -1.8097 -0.5262 -1.2339
10163SOL    HW231333   1.572   1.773   7.594  0.1573 -1.7527 -1.7059
10164SOL     OW31334   3.713   6.068   5.712 -0.1172  0.8528 -0.2486
10164SOL    HW131335   3.643   6.029   5.658 -0.1347  1.3746 -0.6092
10164SOL    HW231336   3.770   5.994   5.733 -0.8150  0.3993  0.1194
10165SOL     OW31337   4.538   1.154   7.014 -0.7727  0.0850 -0.5114
10165SOL    HW131338   4.455   1.115   7.040 -0.3776 -0.4432 -0.0215
10165SOL    HW231339   4.551   1.125   6.924 -0.3077 -1.2299 -0.0366
10166SOL     OW31340   5.265   0.314   1.559 -0.1778 -0.0055  0.4093
10166SOL    HW131341   5.169   0.314   1.553 -0.1610  1.5703 -0.4661
10166SOL    HW231342   5.291   0.229   1.524 -1.2416 -0.2126  0.0861
10167SOL     OW31343   2.802   1.765   6.272  0.4358  0.4341 -0.2003
10167SOL    HW131344   2.802   1.671   6.256 -0.8821  0.5058 -0.7796
10167SOL    HW231345   2.734   1.779   6.337  1.5846  0.8592  0.9613
10168SOL     OW31346   8.040   2.589   5.385 -0.0097  0.1843  0.3408
10168SOL    HW131347   8.080   2.546   5.461  1.4251  0.8962  0.0348
10168SOL    HW231348   8.098   2.663   5.367 -1.3739  1.1352 -0.3000
10169SOL     OW31349   0.087   6.657   4.778  0.5192 -0.2128 -0.7503
10169SOL    HW131350   0.093   6.563   4.765 -1.2200 -0.6881  1.3283
10169SOL    HW231351  -0.007   6.675   4.783  0.8264  1.4985 -0.2058
10170SOL     OW31352   6.266   3.487   0.868 -0.3123 -0.2766  0.0622
10170SOL    HW131353   6.312   3.450   0.943 -0.4501  1.0181  0.7971
10170SOL    HW231354   6.314   3.453   0.792 -0.9087 -2.6194  0.6349
10171SOL     OW31355   7.531   2.371   0.244 -0.0091  0.3418 -0.4443
10171SOL    HW131356   7.613   2.418   0.261 -0.5443  1.4467 -0.7666
10171SOL    HW231357   7.542   2.333   0.157  0.4956 -0.3015 -0.1111
10172SOL     OW31358   1.089   3.704   5.588  0.4680  0.6325  0.8301
10172SOL    HW131359   1.115   3.623   5.544 -0.5567  0.9735 -0.4735
10172SOL    HW231360   0.995   3.696   5.600  0.4132  1.4689  1.0103
10173SOL     OW31361   4.576   2.846   4.709 -0.1953  0.1848  0.2678
10173SOL    HW131362   4.615   2.926   4.744 -0.8834  0.2691  0.8769
10173SOL    HW231363   4.647   2.781   4.713  0.6495  0.9822 -1.1297
10174SOL     OW31364   6.855   2.742   8.142 -0.1772 -0.2295  0.8667
10174SOL    HW131365   6.891   2.679   8.080 -0.7758  0.8507 -0.6498
10174SOL    HW231366   6.895   2.826   8.116  2.2422 -0.2003  4.1210
10175SOL     OW31367   4.416   1.808   2.931 -0.2488 -0.2904  0.2799
10175SOL    HW131368   4.329   1.804   2.890  0.7213  0.2807 -2.0370
10175SOL    HW231369   4.424   1.897   2.964 -0.6219 -0.4184  0.7222
10176SOL     OW31370   5.750   7.846   7.469  0.3271  0.1358  0.0654
10176SOL    HW131371   5.757   7.894   7.551 -0.6349  0.4492 -0.0198
10176SOL    HW231372   5.656   7.847   7.448  0.6254  0.6300 -1.3637
10177SOL     OW31373   0.877   0.190   7.029  0.5131 -0.0782 -0.4568
10177SOL    HW131374   0.876   0.284   7.047 -0.6175 -0.2256  0.3807
10177SOL    HW231375   0.956   0.176   6.977 -0.5038  1.6754 -2.6151
10178SOL     OW31376   0.971   7.748   2.692  0.0436 -0.2692 -0.1043
10178SOL    HW131377   1.005   7.692   2.621 -0.0140 -0.3332 -0.0816
10178SOL    HW231378   1.049   7.787   2.731  0.1795 -1.2640  0.6613
10179SOL     OW31379   6.900   1.672   7.371  0.0140  0.5796  0.0369
10179SOL    HW131380   6.984   1.711   7.348  0.8181 -0.6891  0.6730
10179SOL    HW231381   6.885   1.699   7.462 -0.4949  1.1770 -0.2221
10180SOL     OW31382   7.090   3.731   7.647  0.4997  0.6328 -0.4611
10180SOL    HW131383   6.997   3.739   7.626  0.4053 -2.4660 -1.7669
10180SOL    HW231384   7.134   3.769   7.570  0.3604  1.6705 -0.0505
10181SOL     OW31385   1.798   1.191   5.107 -0.1670 -0.1695 -0.3814
10181SOL    HW131386   1.879   1.153   5.140  0.0978  0.7637  0.0921
10181SOL    HW231387   1.827   1.252   5.039 -0.6036 -0.9853 -1.3249
10182SOL     OW31388   1.228   1.926   6.667  0.0259  0.2219  0.5454
10182SOL    HW131389   1.243   2.009   6.711 -2.9548  0.2330  1.7616
10182SOL    HW231390   1.175   1.949   6.590  1.3360 -0.3159 -0.5588
10183SOL     OW31391   6.236   1.349   0.733  0.1091 -0.1839 -0.5181
10183SOL    HW131392   6.171   1.300   0.681 -0.4012 -1.2007  1.0205
10183SOL    HW231393   6.289   1.281   0.775  1.1154  0.6340 -0.4102
10184SOL     OW31394   5.045   4.003   3.601  0.5112  0.1280 -0.4317
10184SOL    HW131395   5.107   4.073   3.578 -0.3150  0.5334 -1.5373
10184SOL    HW231396   4.960   4.038   3.576 -0.5656  0.5498  3.1762
10185SOL     OW31397   0.129   3.236   2.937 -0.0286 -0.4856  0.0933
10185SOL    HW131398   0.094   3.151   2.963 -0.6172 -0.3803 -0.3254
10185SOL    HW231399   0.143   3.282   3.020 -0.3214 -0.7549  0.2947
10186SOL     OW31400   1.715   6.315   2.019  0.5974  0.3286 -0.1919
10186SOL    HW131401   1.758   6.399   2.036 -0.4342  0.9486 -0.5508
10186SOL    HW231402   1.705   6.275   2.106  1.9619  0.1123 -0.1062
10187SOL     OW31403   3.026   5.454   5.308 -0.2557 -0.1019  0.0137
10187SOL    HW131404   2.949   5.510   5.303 -0.2585 -0.0347  0.6906
10187SOL    HW231405   3.094   5.511   5.344  0.1525 -0.1250 -0.6964
10188SOL     OW31406   5.384   3.644   2.571  0.0826 -0.0942 -0.3941
10188SOL    HW131407   5.450   3.695   2.618  0.5658 -1.2798  0.2683
10188SOL    HW231408   5.434   3.583   2.517 -0.4453 -0.9721  0.0737
10189SOL     OW31409   6.534   4.273   4.268 -0.3902 -0.1679  0.6542
10189SOL    HW131410   6.515   4.345   4.328 -0.6364 -1.1345  1.8045
10189SOL    HW231411   6.519   4.194   4.321 -2.2082 -1.1141 -1.1490
10190SOL     OW31412   4.606   4.947   7.011  0.1911  0.3362 -0.4879
10190SOL    HW131413   4.638   4.866   7.050 -1.7164 -0.3455 -0.2452
10190SOL    HW231414   4.631   4.942   6.919  0.6375 -0.2138 -0.3414
10191SOL     OW31415   1.108   7.053   5.841  0.7490 -0.0938  0.0253
10191SOL    HW131416   1.194   7.025   5.809  1.7450  1.3117  1.3183
10191SOL    HW231417   1.125   7.137   5.883 -0.8492 -0.7780  2.2423
10192SOL     OW31418   5.353   7.464   4.640 -0.1881 -0.0326 -0.5159
10192SOL    HW131419   5.322   7.532   4.700  0.2215  0.4927 -0.8842
10192SOL    HW231420   5.410   7.408   4.693 -1.4804 -0.8112  0.0817
10193SOL     OW31421   0.486   2.417   7.903 -0.4785 -0.1610  0.3587
10193SOL    HW131422   0.426   2.364   7.849  0.2768 -2.2164  1.4558
10193SOL    HW231423   0.434   2.442   7.979 -0.7430  0.4839 -0.0182
10194SOL     OW31424   0.090   4.440   4.818 -0.0609  0.0529 -0.5866
10194SOL    HW131425   0.072   4.347   4.814 -0.3509  0.1080 -0.5900
10194SOL    HW231426   0.154   4.456   4.748 -0.1694 -0.1064 -0.7208
10195SOL     OW31427   3.225   1.187   5.702 -0.5056  0.3172  0.3040
10195SOL    HW131428   3.198   1.105   5.661 -1.3847  0.9861 -0.5018
10195SOL    HW231429   3.261   1.239   5.630  0.1984  0.5849  0.8354
10196SOL     OW31430   5.577   2.387   4.297  0.3689  0.3400  0.0010
10196SOL    HW131431   5.564   2.299   4.261 -0.0155  0.5974 -0.4991
10196SOL    HW231432   5.492   2.429   4.290  0.5278  0.7201  0.3283
10197SOL     OW31433   3.564   0.675   3.822 -0.5310 -0.0144 -0.2391
10197SOL    HW131434   3.591   0.766   3.835 -0.5997  0.0990 -0.8684
10197SOL    HW231435   3.491   0.663   3.883 -1.1116  0.6255 -0.7991
10198SOL     OW31436   4.862   8.015   2.655 -0.5134 -0.0694  0.3805
10198SOL    HW131437   4.859   7.959   2.732  1.0647 -1.9571 -0.8273
10198SOL    HW231438   4.950   8.053   2.657 -0.1658 -0.7589 -0.8694
10199SOL     OW31439   4.620   7.363   0.338 -0.4252  0.4283  0.4981
10199SOL    HW131440   4.694   7.424   0.341 -0.8122  0.9536 -0.3030
10199SOL    HW231441   4.660   7.276   0.347  0.0603  0.8076  2.4393
10200SOL     OW31442   6.805   3.133   2.721  0.6170  0.5528  0.7304
10200SOL    HW131443   6.720   3.164   2.752 -0.8682  1.1594 -3.3358
10200SOL    HW231444   6.797   3.038   2.722 -0.1732  0.6067  0.2585
10201SOL     OW31445   1.548   4.859   4.585  0.0610  0.6082 -0.7565
10201SOL    HW131446   1.485   4.931   4.591 -1.2433 -0.5908  1.3975
10201SOL    HW231447   1.504   4.786   4.628  2.0342 -0.9844 -1.3000
10202SOL     OW31448   0.374   3.087   7.934  0.0477  0.3718 -0.1624
10202SOL    HW131449   0.327   3.111   7.855 -0.0864 -1.1556 -0.5653
10202SOL    HW231450   0.323   3.016   7.973 -0.0657  1.2957  1.4830
10203SOL     OW31451   2.161   3.093   0.009 -0.3561 -0.7956  0.1421
10203SOL    HW131452   2.118   3.025  -0.043 -2.3554  1.7725 -1.8195
10203SOL    HW231453   2.098   3.114   0.077  0.1663 -0.7104  0.6109
10204SOL     OW31454   6.739   1.897   7.325  0.0938  0.2223  0.2676
10204SOL    HW131455   6.796   1.926   7.254  2.0221 -1.6576  0.9542
10204SOL    HW231456   6.756   1.803   7.333 -1.2934  0.0779  2.1361
10205SOL     OW31457   3.297   2.589   5.861 -0.2810  0.2190  0.5507
10205SOL    HW131458   3.215   2.571   5.907 -1.0957 -0.6589 -1.1273
10205SOL    HW231459   3.275   2.577   5.768  1.9848 -0.9817  0.1084
10206SOL     OW31460   5.285   0.435   5.271 -0.2888  0.6387  0.6011
10206SOL    HW131461   5.265   0.481   5.189 -0.8821 -0.8599 -0.1230
10206SOL    HW231462   5.228   0.358   5.270  2.4368 -1.5309  0.5428
10207SOL     OW31463   7.676   7.987   1.119 -0.7337  0.0163  0.4845
10207SOL    HW131464   7.594   7.962   1.077 -0.3328  0.8830 -0.8585
10207SOL    HW231465   7.686   7.924   1.190 -1.9045 -0.9024 -0.1268
10208SOL     OW31466   3.583   3.259   6.439  0.1531  0.0714 -0.5108
10208SOL    HW131467   3.663   3.299   6.473  1.0091 -1.2600 -0.8325
10208SOL    HW231468   3.560   3.312   6.363  1.7531 -0.4665 -1.4507
10209SOL     OW31469   2.596   2.453   7.043  0.1338 -0.1413 -0.0934
10209SOL    HW131470   2.611   2.505   6.964  0.8271 -0.8633 -0.4606
10209SOL    HW231471   2.620   2.364   7.018 -1.8669 -0.8336  0.2536
10210SOL     OW31472   6.278   4.787   5.160 -0.5296  0.3089 -0.2222
10210SOL    HW131473   6.292   4.820   5.249 -0.9211  1.2819 -0.5063
10210SOL    HW231474   6.197   4.830   5.131 -1.3847 -1.3463 -0.4119
10211SOL     OW31475   6.010   6.944   7.231  0.0148  0.4732  0.4935
10211SOL    HW131476   5.964   6.882   7.174  1.1882  0.0558 -0.0474
10211SOL    HW231477   6.098   6.907   7.240  0.7663  2.0872  0.1314
10212SOL     OW31478   1.864   1.350   0.363 -0.0116  0.0239 -0.7459
10212SOL    HW131479   1.933   1.416   0.353  0.7105 -0.8390 -1.6621
10212SOL    HW231480   1.910   1.266   0.361 -0.8603 -0.5300  0.8422
10213SOL     OW31481   5.592   3.793   6.406 -0.2990 -0.2600  0.0464
10213SOL    HW131482   5.510   3.750   6.430 -0.2861 -0.7214 -0.6920
10213SOL    HW231483   5.659   3.746   6.455 -0.6424  1.4059  2.2208
10214SOL     OW31484   6.713   6.597   0.382  0.3549 -0.4509 -0.9524
10214SOL    HW131485   6.805   6.619   0.368  0.7084 -1.4873 -0.3952
10214SOL    HW231486   6.669   6.620   0.300  0.6942  2.0730 -0.5002
10215SOL     OW31487   3.868   7.016   0.843  0.4281  0.2377 -0.2304
10215SOL    HW131488   3.844   6.938   0.893  0.3040  0.8982  0.7600
10215SOL    HW231489   3.803   7.020   0.773  1.7376 -1.7705 -1.6649
10216SOL     OW31490   2.699   5.326   8.202 -0.1293 -0.0275 -0.3038
10216SOL    HW131491   2.711   5.249   8.147  1.1423  0.2509 -0.4588
10216SOL    HW231492   2.786   5.366   8.206 -0.8684  1.7467 -0.7300
10217SOL     OW31493   4.775   2.319   4.227  0.6217 -0.1481 -0.0856
10217SOL    HW131494   4.769   2.225   4.245 -1.1222 -0.0964 -0.2235
10217SOL    HW231495   4.744   2.361   4.307  0.4198  0.2781 -0.3816
10218SOL     OW31496   7.706   8.003   6.553 -0.1103 -0.0026 -0.5302
10218SOL    HW131497   7.645   8.044   6.491  0.4731  0.4611 -0.8012
10218SOL    HW231498   7.657   7.999   6.635 -0.2440  1.0732 -0.5453
10219SOL     OW31499   1.434   4.188   2.368  0.4034  0.2909 -0.3944
10219SOL    HW131500   1.425   4.274   2.326 -1.7702 -0.3291 -1.3253
10219SOL    HW231501   1.413   4.125   2.299 -0.3917 -0.8961  0.8840
10220SOL     OW31502   8.063   3.404   2.437 -0.0526 -0.2948  0.1655
10220SOL    HW131503   8.027   3.416   2.525 -0.5485  0.5567 -0.1507
10220SOL    HW231504   8.009   3.459   2.381  1.5503  0.7941 -0.3719
10221SOL     OW31505   5.991   6.804   0.050 -0.3462 -0.1897 -0.0646
10221SOL    HW131506   5.937   6.792   0.127 -0.0269  0.4186  0.2587
10221SOL    HW231507   5.956   6.741  -0.014 -1.3043  0.0572  0.1987
10222SOL     OW31508   0.100   2.251   6.183 -0.4848  0.2044  0.0862
10222SOL    HW131509   0.026   2.191   6.173 -0.9506  0.7701  0.0682
10222SOL    HW231510   0.173   2.207   6.139 -0.9062 -0.2007 -0.2174
10223SOL     OW31511   2.215   3.025   3.497 -0.3762  0.1159 -0.6089
10223SOL    HW131512   2.161   3.023   3.419 -1.6811  0.1685  0.2646
10223SOL    HW231513   2.206   3.114   3.530  0.1958  0.1067 -0.4154
10224SOL     OW31514   1.679   0.768   1.488 -0.4582 -0.1975  0.3360
10224SOL    HW131515   1.720   0.846   1.527 -1.3160 -0.3368  1.5435
10224SOL    HW231516   1.753   0.712   1.464  0.1034  0.1581  1.2014
10225SOL     OW31517   7.934   4.370   3.710 -0.0298  0.2690  0.1712
10225SOL    HW131518   7.843   4.345   3.722 -0.6142  2.2526  0.2146
10225SOL    HW231519   7.937   4.409   3.622  0.1300  2.5866  1.1225
10226SOL     OW31520   5.687   1.141   3.393 -0.4432 -0.8437 -0.1203
10226SOL    HW131521   5.603   1.110   3.427 -0.3315 -1.3417 -0.2798
10226SOL    HW231522   5.667   1.224   3.350 -1.2824 -1.9428 -2.0035
10227SOL     OW31523   0.875   7.076   2.289  0.5804  0.6745 -0.1177
10227SOL    HW131524   0.951   7.050   2.237 -0.3030 -0.1402 -1.0544
10227SOL    HW231525   0.901   7.158   2.330  1.4959  1.1137 -1.4803
10228SOL     OW31526   3.076   6.930   5.364  0.2122 -0.5442 -0.4743
10228SOL    HW131527   3.160   6.933   5.319  1.3727 -0.5426  1.5651
10228SOL    HW231528   3.095   6.888   5.448 -1.6527  0.1803  0.3765
10229SOL     OW31529   4.702   0.487   4.177 -0.2428  0.0398  0.0314
10229SOL    HW131530   4.640   0.559   4.168 -3.0972 -2.1964  0.2436
10229SOL    HW231531   4.689   0.434   4.098 -1.3629 -2.3667  1.6789
10230SOL     OW31532   4.476   1.772   2.094  0.3692 -0.4736 -0.5892
10230SOL    HW131533   4.510   1.709   2.030 -2.3552 -0.4502 -2.2314
10230SOL    HW231534   4.467   1.853   2.044 -1.0642 -0.2386 -0.0103
10231SOL     OW31535   2.842   1.379   3.178  0.1499 -0.4574 -0.4865
10231SOL    HW131536   2.843   1.285   3.199 -0.9875 -0.4116 -0.1702
10231SOL    HW231537   2.855   1.422   3.262 -0.4085 -0.3215 -0.4676
10232SOL     OW31538   1.809   3.776   7.793  0.3113 -0.4966 -0.1618
10232SOL    HW131539   1.833   3.695   7.838  1.4588  0.9946  2.1019
10232SOL    HW231540   1.889   3.806   7.751  0.5644  0.6328  1.0425
10233SOL     OW31541   6.799   1.953   3.520 -0.2997 -0.0772 -0.1790
10233SOL    HW131542   6.830   1.890   3.455  2.3743  0.6127  0.3013
10233SOL    HW231543   6.735   2.006   3.474  0.0300 -0.9062 -1.6462
10234SOL     OW31544   6.730   2.558   4.913 -0.0224  0.0224  0.3387
10234SOL    HW131545   6.781   2.635   4.889  0.8663 -1.0376 -1.3598
10234SOL    HW231546   6.739   2.551   5.008  0.5030  1.5660  0.4170
10235SOL     OW31547   7.029   4.702   1.640 -0.3503 -0.1334  0.4626
10235SOL    HW131548   7.026   4.781   1.585 -0.6421 -1.5355 -1.6332
10235SOL    HW231549   7.101   4.718   1.701 -2.3001  3.0504  2.2661
10236SOL     OW31550   6.040   8.158   6.124  0.5950  0.0399  0.0869
10236SOL    HW131551   5.949   8.180   6.143  0.0742 -1.3794 -0.6245
10236SOL    HW231552   6.043   8.147   6.029  1.4384 -0.2101  0.1336
10237SOL     OW31553   2.938   3.754   2.885 -0.1440 -0.1326  0.0955
10237SOL    HW131554   2.979   3.793   2.807  0.9800 -0.9305  0.2568
10237SOL    HW231555   2.898   3.674   2.852 -0.3005 -0.0965  0.2025
10238SOL     OW31556   3.385   0.826   1.715 -0.9026  1.0719 -0.2039
10238SOL    HW131557   3.358   0.880   1.789 -0.5284  0.9560  0.0223
10238SOL    HW231558   3.345   0.741   1.732  1.2389  0.2447  1.2497
10239SOL     OW31559   5.684   4.693   3.011 -0.2517 -0.1989 -0.0583
10239SOL    HW131560   5.761   4.726   2.965 -0.3938  0.6784  0.3067
10239SOL    HW231561   5.637   4.642   2.946 -0.9078  1.7530 -1.1898
10240SOL     OW31562   1.491   5.693   2.517  0.0899 -0.5596 -0.1527
10240SOL    HW131563   1.489   5.689   2.421 -0.1050  0.2277 -0.1837
10240SOL    HW231564   1.558   5.758   2.537 -0.3800 -0.1847  0.2255
10241SOL     OW31565   4.808   4.733   0.648 -0.5574 -0.0277  0.4586
10241SOL    HW131566   4.856   4.717   0.730 -1.2400 -0.8889  0.7066
10241SOL    HW231567   4.718   4.748   0.676 -0.6312  0.5735 -0.0784
10242SOL     OW31568   1.707   2.349   2.091 -0.3322 -0.2596  0.3786
10242SOL    HW131569   1.778   2.406   2.061  1.6271 -1.8358  1.7034
10242SOL    HW231570   1.685   2.381   2.178 -0.8340 -0.1299  0.2037
10243SOL     OW31571   0.284   1.113   4.201  0.2665  0.1008 -0.2152
10243SOL    HW131572   0.339   1.080   4.130  0.7450  0.2525  0.0767
10243SOL    HW231573   0.218   1.167   4.157  1.0907  0.9240 -0.4916
10244SOL     OW31574   6.037   4.147   6.543 -0.8029  0.6502  0.4208
10244SOL    HW131575   6.031   4.072   6.483 -1.1221  0.1152  1.1188
10244SOL    HW231576   6.072   4.110   6.624  0.3979  1.5165  0.3200
10245SOL     OW31577   7.254   7.422   5.776 -0.4793  0.1156 -0.2556
10245SOL    HW131578   7.216   7.379   5.699  0.2398 -0.4397 -0.3009
10245SOL    HW231579   7.228   7.368   5.850  0.5961 -0.5247 -0.3337
10246SOL     OW31580   1.945   8.160   1.392  0.1897  0.4439 -0.1223
10246SOL    HW131581   1.996   8.110   1.328 -0.7668 -0.4446 -0.2139
10246SOL    HW231582   1.857   8.123   1.386 -0.1304  0.9832  1.0538
10247SOL     OW31583   6.770   3.567   5.466 -0.0195 -0.6383 -0.1863
10247SOL    HW131584   6.683   3.531   5.449 -0.5238  0.0274  0.9306
10247SOL    HW231585   6.774   3.645   5.410  0.0738 -0.9585 -0.6358
10248SOL     OW31586   6.802   0.690   1.722  0.3029 -0.1341 -0.5260
10248SOL    HW131587   6.887   0.651   1.699 -0.2286  0.4089 -3.8722
10248SOL    HW231588   6.823   0.781   1.744  0.5082  0.6151 -3.4034
10249SOL     OW31589   6.642   2.180   7.060 -0.4227 -0.2638 -0.3479
10249SOL    HW131590   6.584   2.231   7.117 -2.3794 -0.9371 -1.6124
10249SOL    HW231591   6.627   2.216   6.973  0.9292 -0.6251 -0.7423
10250SOL     OW31592   5.397   6.447   5.390 -0.0395  0.7539  0.2017
10250SOL    HW131593   5.401   6.375   5.327 -0.9229  0.9945 -0.1452
10250SOL    HW231594   5.318   6.428   5.442 -0.3125  1.4976  0.0681
10251SOL     OW31595   0.735   7.595   2.127  0.4176  1.1278  0.0529
10251SOL    HW131596   0.749   7.510   2.169  1.4353  1.3735  0.2402
10251SOL    HW231597   0.670   7.578   2.059  2.1495 -0.2852 -1.3349
10252SOL     OW31598   4.328   5.770   7.117 -0.1723 -1.0462  0.1748
10252SOL    HW131599   4.381   5.824   7.059  0.1088 -0.2488  1.1304
10252SOL    HW231600   4.291   5.702   7.061 -0.1386 -0.1434 -0.9838
10253SOL     OW31601   5.553   0.691   0.772 -0.2071 -0.3980  0.4274
10253SOL    HW131602   5.596   0.715   0.853 -0.6283 -1.4722  0.9948
10253SOL    HW231603   5.516   0.604   0.789  0.5887 -1.1133 -1.2460
10254SOL     OW31604   8.128   2.079   2.490 -0.0846 -0.0086 -0.8857
10254SOL    HW131605   8.100   2.101   2.401 -0.5252 -1.3633 -1.1166
10254SOL    HW231606   8.060   2.018   2.521 -0.2971  0.9653  0.6292
10255SOL     OW31607   2.423   0.556   0.776 -0.0715 -0.8688  0.8847
10255SOL    HW131608   2.356   0.585   0.714  0.1162  0.5565  1.3038
10255SOL    HW231609   2.451   0.637   0.819 -0.3807 -1.8468  3.0277
10256SOL     OW31610   7.575   7.373   5.347  0.4152 -0.2809  0.5502
10256SOL    HW131611   7.580   7.304   5.413  0.1781 -0.6631  0.1715
10256SOL    HW231612   7.598   7.329   5.265 -0.7108 -0.1403  0.1409
10257SOL     OW31613   0.110   4.580   7.707 -0.5105  0.0111  0.6999
10257SOL    HW131614   0.060   4.640   7.652  1.2195  1.2220  0.3575
10257SOL    HW231615   0.163   4.637   7.763  1.2061 -1.1495  0.3513
10258SOL     OW31616   6.230   7.763   2.545  0.2686 -0.0825 -0.2877
10258SOL    HW131617   6.325   7.755   2.541  0.2586 -0.0140 -0.7169
10258SOL    HW231618   6.198   7.700   2.480  0.0731  0.8496 -1.1175
10259SOL     OW31619   6.301   0.437   1.807  0.1790  0.1663 -0.4585
10259SOL    HW131620   6.366   0.466   1.870 -0.7580  1.4681 -0.0484
10259SOL    HW231621   6.344   0.367   1.757  0.9542 -0.9069  1.6063
10260SOL     OW31622   6.869   3.270   2.217  0.1946  0.3164  0.6839
10260SOL    HW131623   6.865   3.189   2.267 -0.5259 -0.0584  0.0468
10260SOL    HW231624   6.951   3.311   2.243  2.0057 -1.9602 -0.9830
10261SOL     OW31625   5.067   6.155   7.622 -0.1218 -0.3127 -0.3886
10261SOL    HW131626   5.012   6.139   7.699  0.8332 -2.0265 -0.0059
10261SOL    HW231627   5.019   6.115   7.549 -0.3808  0.0821 -0.4337
10262SOL     OW31628   5.737   0.820   6.385  0.6197  0.2937  0.1253
10262SOL    HW131629   5.795   0.764   6.437  0.7007 -0.3202 -0.6086
10262SOL    HW231630   5.717   0.768   6.307  1.5676  1.7059 -1.1055
10263SOL     OW31631   3.304   6.303   4.372  0.5535 -0.3244 -0.4785
10263SOL    HW131632   3.266   6.378   4.417 -1.6254  0.0411 -2.7052
10263SOL    HW231633   3.302   6.232   4.436 -2.4956  0.1302  0.0718
10264SOL     OW31634   7.431   7.631   1.781 -0.2232 -0.7340 -0.0232
10264SOL    HW131635   7.342   7.633   1.816  0.0781  2.5814  0.8440
10264SOL    HW231636   7.487   7.634   1.858  0.5530  0.3309 -0.6067
10265SOL     OW31637   1.347   7.482   2.251 -0.2834 -0.8877  0.3343
10265SOL    HW131638   1.302   7.564   2.231  0.0153 -1.0316 -1.0445
10265SOL    HW231639   1.438   7.506   2.264 -0.5393 -0.7445  2.0166
10266SOL     OW31640   2.485   7.464   7.999  0.2835  0.2789 -0.6907
10266SOL    HW131641   2.578   7.477   8.020 -0.3006 -0.2595  2.7421
10266SOL    HW231642   2.440   7.535   8.046 -1.0919  0.6821 -2.5010
10267SOL     OW31643   7.342   3.866   0.546 -0.1456  0.0060  0.5067
10267SOL    HW131644   7.403   3.940   0.541  0.7862 -0.7038  1.0405
10267SOL    HW231645   7.337   3.845   0.640 -0.6731 -0.3845  0.3965
10268SOL     OW31646   4.078   7.962   3.994  0.0557 -0.1683 -0.0468
10268SOL    HW131647   3.989   7.991   3.976  0.2166  0.1312 -0.3781
10268SOL    HW231648   4.111   8.024   4.059 -0.0828 -0.4698  0.3158
10269SOL     OW31649   6.542   0.842   3.572  0.2125 -0.2597  0.0929
10269SOL    HW131650   6.447   0.841   3.571  0.1501  1.5981  0.7237
10269SOL    HW231651   6.568   0.770   3.514 -1.5469 -1.0777  0.2619
10270SOL     OW31652   7.536   3.391   5.540 -0.6204 -0.2478  0.0053
10270SOL    HW131653   7.441   3.391   5.552 -0.7708  0.8499 -1.0303
10270SOL    HW231654   7.550   3.438   5.457  0.8949  0.6067  0.7073
10271SOL     OW31655   0.637   6.639   6.539 -0.4204 -0.6825 -0.9176
10271SOL    HW131656   0.619   6.718   6.589  0.8430 -0.0869 -1.3488
10271SOL    HW231657   0.690   6.585   6.598  0.4236 -0.3108 -1.3158
10272SOL     OW31658   3.568   2.972   2.231 -0.1262  0.1530  0.0027
10272SOL    HW131659   3.646   2.925   2.202  0.8078  1.4206  0.3612
10272SOL    HW231660   3.505   2.904   2.252  1.0075 -0.9090  0.0462
10273SOL     OW31661   5.572   3.083   6.071 -0.4126  0.3008 -0.1522
10273SOL    HW131662   5.542   3.106   5.983 -0.6939 -0.0488 -0.1484
10273SOL    HW231663   5.602   3.166   6.108  0.6368  0.2921 -0.9341
10274SOL     OW31664   2.819   0.610   0.075 -0.1075 -0.2510  0.2487
10274SOL    HW131665   2.802   0.582  -0.015 -0.5059 -0.3055  0.3363
10274SOL    HW231666   2.820   0.528   0.125 -0.4194 -0.1825  0.3724
10275SOL     OW31667   4.596   1.364   0.540  0.0570 -0.1333 -0.4170
10275SOL    HW131668   4.570   1.285   0.492 -0.1420  0.6551 -1.6614
10275SOL    HW231669   4.516   1.416   0.544  0.3578  0.3113 -0.2379
10276SOL     OW31670   0.535   3.676   7.019  0.6976  0.5055 -0.1824
10276SOL    HW131671   0.597   3.603   7.024  0.6284  0.4084 -0.7255
10276SOL    HW231672   0.468   3.647   6.958 -1.1409 -0.3284  2.0634
10277SOL     OW31673   3.211   5.255   3.876 -0.1594  0.6148  0.5241
10277SOL    HW131674   3.175   5.264   3.787 -0.7849  0.9472  0.8034
10277SOL    HW231675   3.135   5.265   3.933 -0.0206 -1.0512  1.0663
10278SOL     OW31676   4.183   7.170   4.311  0.4314 -0.1671 -0.5687
10278SOL    HW131677   4.241   7.215   4.249 -0.3541  1.0146 -0.4793
10278SOL    HW231678   4.238   7.155   4.388  1.0024 -0.3072 -0.9995
10279SOL     OW31679   0.151   4.600   1.293  0.2346  0.4456 -0.0515
10279SOL    HW131680   0.089   4.561   1.233 -1.1892  2.6557 -0.1415
10279SOL    HW231681   0.134   4.558   1.377  0.7569 -1.1159 -0.6974
10280SOL     OW31682   7.027   2.562   6.602 -0.2539 -0.1570 -0.3804
10280SOL    HW131683   7.106   2.550   6.549  1.2718  0.6362  1.5718
10280SOL    HW231684   7.003   2.653   6.590 -0.0424 -0.0362  0.0689
10281SOL     OW31685   0.599   0.273   3.427  0.0471  0.2339 -0.1601
10281SOL    HW131686   0.579   0.297   3.337  0.5513 -0.1773 -0.3855
10281SOL    HW231687   0.549   0.335   3.480  1.0506  1.5599 -0.7240
10282SOL     OW31688   4.884   2.709   2.372  0.1399 -0.1070 -0.2827
10282SOL    HW131689   4.913   2.671   2.455 -2.1922 -1.0424  0.1697
10282SOL    HW231690   4.803   2.662   2.351  0.0074  0.9810 -2.4618
10283SOL     OW31691   6.517   3.245   0.015  0.3368  0.3228  0.3306
10283SOL    HW131692   6.490   3.331   0.047  0.0884  0.8463 -1.2098
10283SOL    HW231693   6.437   3.193   0.015  0.3763  0.2641  0.7460
10284SOL     OW31694   4.460   8.106   0.089  0.4661 -0.0840  0.7012
10284SOL    HW131695   4.378   8.057   0.084  1.0268 -1.0876  1.1680
10284SOL    HW231696   4.452   8.173   0.021 -0.8868  0.0630  0.9678
10285SOL     OW31697   5.725   6.009   2.944 -0.0660  0.3955  0.3865
10285SOL    HW131698   5.765   5.948   3.006  0.4165 -0.3281 -0.6214
10285SOL    HW231699   5.649   6.045   2.992  0.4754  0.1053  1.4995
10286SOL     OW31700   0.977   5.492   6.615  0.1324 -0.5764  0.2560
10286SOL    HW131701   0.952   5.512   6.706 -1.3506 -0.9452 -0.0365
10286SOL    HW231702   0.893   5.475   6.571  0.5275  2.2277 -1.8467
10287SOL     OW31703   4.343   2.049   3.004  0.6889  0.1968  0.0078
10287SOL    HW131704   4.262   2.089   2.974  0.8779  1.0114  0.5454
10287SOL    HW231705   4.398   2.123   3.031  1.3410 -0.3814  0.3102
10288SOL     OW31706   1.547   6.384   6.127 -0.0009 -0.2405 -0.2452
10288SOL    HW131707   1.508   6.319   6.186  0.2051  0.9301  1.2551
10288SOL    HW231708   1.639   6.387   6.152  0.2042 -0.0813 -0.9926
10289SOL     OW31709   6.623   3.296   7.404 -0.0656  0.0537  0.3559
10289SOL    HW131710   6.572   3.342   7.470 -0.2528  0.5972 -0.1550
10289SOL    HW231711   6.563   3.288   7.329 -0.3664 -1.8419  0.7364
10290SOL     OW31712   0.842   5.551   1.063 -0.0431 -0.1062 -0.0993
10290SOL    HW131713   0.907   5.589   1.121  0.8265  0.1085 -1.1743
10290SOL    HW231714   0.845   5.457   1.082  1.6464 -0.3065 -1.1042
10291SOL     OW31715   0.039   7.463   3.848 -0.1869 -0.5492  0.3056
10291SOL    HW131716  -0.022   7.420   3.909 -0.3514 -2.7684 -1.3149
10291SOL    HW231717  -0.005   7.457   3.763  0.5147  1.5130 -0.2396
10292SOL     OW31718   7.908   0.148   6.160 -0.6519 -0.1157 -0.5650
10292SOL    HW131719   7.853   0.221   6.188 -0.8539 -0.3226 -0.4127
10292SOL    HW231720   7.986   0.189   6.123  1.1131  0.2419  3.1046
10293SOL     OW31721   3.874   1.900   5.076  0.4298 -0.0562  0.1574
10293SOL    HW131722   3.857   1.885   4.983 -1.5397 -0.0670  0.4807
10293SOL    HW231723   3.969   1.914   5.081  0.7592 -1.2560 -1.6765
10294SOL     OW31724   3.706   1.911   1.228 -0.8060 -0.2451  0.0900
10294SOL    HW131725   3.747   1.870   1.304  0.9894  1.8790  0.3703
10294SOL    HW231726   3.760   1.883   1.153 -0.8429 -0.0849  0.0019
10295SOL     OW31727   6.439   6.507   7.756  0.3527  0.8513  0.3976
10295SOL    HW131728   6.487   6.425   7.769 -0.9009  0.1911  1.0394
10295SOL    HW231729   6.506   6.571   7.731  1.2329 -0.5886 -1.1121
10296SOL     OW31730   1.313   7.705   4.303  0.3276  0.1539  0.5425
10296SOL    HW131731   1.332   7.788   4.347  1.3628 -0.5999  1.5676
10296SOL    HW231732   1.250   7.661   4.360 -0.6922  0.4663 -0.3054
10297SOL     OW31733   1.903   5.649   3.441 -0.3703 -0.0824  0.4571
10297SOL    HW131734   1.824   5.689   3.479 -0.2471  0.5781  0.0322
10297SOL    HW231735   1.896   5.557   3.465 -0.0867  0.3678  2.4289
10298SOL     OW31736   0.587   2.621   0.634 -0.2315  0.1787 -0.1969
10298SOL    HW131737   0.607   2.537   0.591  0.3131 -0.0003  0.3890
10298SOL    HW231738   0.672   2.652   0.665 -0.3780  1.1345 -0.7295
10299SOL     OW31739   3.737   0.367   6.496 -0.4192 -0.0178  0.0508
10299SOL    HW131740   3.815   0.392   6.447 -1.4749  0.2994 -1.5089
10299SOL    HW231741   3.748   0.409   6.582  3.0614 -3.2190  1.4577
10300SOL     OW31742   0.569   6.833   3.458  0.6248  0.0673 -0.8883
10300SOL    HW131743   0.553   6.927   3.465  1.1735  0.1358 -0.4356
10300SOL    HW231744   0.489   6.792   3.491  0.6242  0.3802 -0.4900
10301SOL     OW31745   4.736   2.401   0.574  0.1426  0.1867 -0.2006
10301SOL    HW131746   4.747   2.462   0.647 -1.9545 -0.2570  0.5500
10301SOL    HW231747   4.680   2.332   0.609 -1.5367  0.3304 -2.4049
10302SOL     OW31748   5.241   6.413   2.753 -0.7014  0.6997 -0.1084
10302SOL    HW131749   5.165   6.443   2.803 -1.2252  2.1156 -1.6815
10302SOL    HW231750   5.268   6.489   2.702  0.7711 -0.2580 -0.8269
10303SOL     OW31751   3.484   1.983   4.521  0.2343  0.6885 -0.2089
10303SOL    HW131752   3.541   1.950   4.451  0.6225  0.3569  0.2600
10303SOL    HW231753   3.422   2.040   4.476  0.7712  0.8490 -0.7689
10304SOL     OW31754   2.115   6.108   4.455  0.2303 -0.1366 -0.4611
10304SOL    HW131755   2.103   6.200   4.478  0.9606  0.2448 -1.5305
10304SOL    HW231756   2.026   6.076   4.439  0.0342  0.6810 -1.1192
10305SOL     OW31757   4.076   0.356   2.440  0.4434 -0.9560  0.3871
10305SOL    HW131758   4.049   0.428   2.497  1.1241 -0.3007 -0.0986
10305SOL    HW231759   4.018   0.361   2.365  0.1224 -1.2749  0.6083
10306SOL     OW31760   7.474   0.864   4.402 -0.4173 -0.2503  0.0354
10306SOL    HW131761   7.432   0.950   4.406 -0.3330 -0.1113 -1.6266
10306SOL    HW231762   7.537   0.865   4.474 -2.8798 -0.2992  2.3330
10307SOL     OW31763   6.762   4.062   1.755 -0.0573  0.0375  0.8051
10307SOL    HW131764   6.835   4.000   1.755  0.3800  0.5053 -0.9643
10307SOL    HW231765   6.686   4.010   1.781  0.2801 -1.2903 -0.7740
10308SOL     OW31766   7.854   1.832   4.205 -0.5134 -0.0105  0.2932
10308SOL    HW131767   7.911   1.895   4.160  0.4144 -0.7038  0.4499
10308SOL    HW231768   7.766   1.866   4.193 -0.2267  0.2290 -1.4212
10309SOL     OW31769   7.093   4.240   1.006 -0.0489 -0.3791 -0.6357
10309SOL    HW131770   7.007   4.280   0.999 -0.8380 -1.2220  2.5643
10309SOL    HW231771   7.087   4.159   0.954 -1.3876 -0.6849 -0.0473
10310SOL     OW31772   3.131   5.243   3.288 -0.1132 -0.4917 -0.7157
10310SOL    HW131773   3.215   5.200   3.299  0.9896  1.3097 -1.6012
10310SOL    HW231774   3.127   5.307   3.359 -0.0916  0.3391 -1.4351
10311SOL     OW31775   1.506   6.742   1.609  0.4897  0.3363  0.3226
10311SOL    HW131776   1.599   6.762   1.607  0.5470  0.0826  0.4538
10311SOL    HW231777   1.470   6.788   1.533  0.7254  0.4122  0.2571
10312SOL     OW31778   5.943   2.243   0.938 -0.8746  0.1762  0.0275
10312SOL    HW131779   5.972   2.159   0.972 -1.6026  0.2048  0.7381
10312SOL    HW231780   5.849   2.233   0.926 -0.8488  0.6412 -0.6231
10313SOL     OW31781   6.131   5.684   7.797 -0.0879  0.3342 -0.4429
10313SOL    HW131782   6.101   5.750   7.859 -0.7634 -0.2830 -0.0829
10313SOL    HW231783   6.147   5.606   7.851  3.2166  0.8686 -0.4346
10314SOL     OW31784   0.408   6.730   6.348  0.0370  0.2477  0.0936
10314SOL    HW131785   0.428   6.817   6.314  0.0905 -0.6102 -2.2622
10314SOL    HW231786   0.491   6.699   6.384  0.6731  0.2386 -1.3153
10315SOL     OW31787   7.796   1.637   7.219  0.0025 -0.1816 -0.3666
10315SOL    HW131788   7.720   1.645   7.163 -1.5768  1.1454  1.7835
10315SOL    HW231789   7.854   1.709   7.191  0.2827 -0.8980 -1.6886
10316SOL     OW31790   7.981   1.181   5.369 -0.1020 -0.0479 -0.3939
10316SOL    HW131791   7.923   1.254   5.347 -0.3006  0.2758  1.0910
10316SOL    HW231792   7.925   1.103   5.364 -0.5576  0.2076  0.5476
10317SOL     OW31793   2.527   8.109   3.961  0.0699 -0.4101  0.4018
10317SOL    HW131794   2.586   8.183   3.948  0.2416 -0.7612 -0.9893
10317SOL    HW231795   2.491   8.122   4.048  0.1673  1.2503  0.2233
10318SOL     OW31796   0.913   6.127   4.251 -0.0810  0.1250 -0.5378
10318SOL    HW131797   0.898   6.215   4.218  0.7746  0.0964 -1.0312
10318SOL    HW231798   0.861   6.122   4.331  0.4289  1.3222 -0.1190
10319SOL     OW31799   2.967   4.366   1.826  0.2954  0.0811 -0.1179
10319SOL    HW131800   2.985   4.273   1.840  1.2825  0.1865 -0.5590
10319SOL    HW231801   2.943   4.399   1.913  1.9857 -0.1711  0.4956
10320SOL     OW31802   1.876   5.803   1.186 -0.5281 -0.3829  0.5473
10320SOL    HW131803   1.937   5.829   1.256 -0.6304  0.5466  0.3057
10320SOL    HW231804   1.922   5.733   1.140  1.2770  1.5689 -0.8393
10321SOL     OW31805   4.307   3.278   1.409  0.2216  0.0228 -0.0573
10321SOL    HW131806   4.302   3.342   1.480  0.6220 -0.3978  0.3667
10321SOL    HW231807   4.240   3.305   1.347  0.6225  1.0611 -0.0650
10322SOL     OW31808   0.334   1.568   1.358 -0.8917  0.3890 -0.0671
10322SOL    HW131809   0.244   1.599   1.348 -0.4087  1.4234 -1.5075
10322SOL    HW231810   0.348   1.566   1.453 -2.6498 -0.5107  0.2140
10323SOL     OW31811   3.134   6.456   0.982 -0.6363 -0.1099  0.1967
10323SOL    HW131812   3.132   6.375   1.032  2.1817 -1.3751 -1.5278
10323SOL    HW231813   3.074   6.441   0.909 -0.2453 -0.5916 -0.0285
10324SOL     OW31814   7.236   1.743   0.112 -0.1491  0.6733  0.5190
10324SOL    HW131815   7.276   1.739   0.199  0.8849  1.1760  0.0972
10324SOL    HW231816   7.210   1.835   0.102 -0.4609  0.5698  0.3887
10325SOL     OW31817   6.949   6.965   2.542  0.0778 -0.1995  0.4749
10325SOL    HW131818   6.921   6.877   2.519 -0.6397  0.2893 -0.6640
10325SOL    HW231819   6.880   7.022   2.507  0.4370  0.7999  1.3374
10326SOL     OW31820   4.117   0.906   5.369  0.3183 -0.0123  0.1351
10326SOL    HW131821   4.066   0.976   5.328  0.1555 -1.2031 -1.8042
10326SOL    HW231822   4.188   0.952   5.415  0.0034  1.4296 -0.7681
10327SOL     OW31823   3.431   8.083   1.921  1.1024  0.0687  0.4354
10327SOL    HW131824   3.483   8.162   1.938 -0.6463  1.3972 -0.0909
10327SOL    HW231825   3.403   8.054   2.007 -0.8362  1.9203  0.5143
10328SOL     OW31826   6.585   2.950   0.739 -0.4666 -0.1105 -0.1614
10328SOL    HW131827   6.495   2.936   0.767 -0.8554 -0.4561 -1.4763
10328SOL    HW231828   6.580   3.023   0.678  0.1698 -0.0217 -0.1122
10329SOL     OW31829   0.228   1.085   2.005 -0.1771  0.5132 -0.5749
10329SOL    HW131830   0.216   0.991   2.021  0.3369  0.5828  0.2931
10329SOL    HW231831   0.315   1.092   1.968  0.2945  0.7497  0.5267
10330SOL     OW31832   7.146   3.361   2.268  0.2773  0.0493  0.0737
10330SOL    HW131833   7.192   3.413   2.203 -1.6584 -0.0631 -1.4744
10330SOL    HW231834   7.118   3.424   2.334  0.2506  0.5572 -0.4160
10331SOL     OW31835   3.028   0.289   1.592  0.2777 -0.1814  0.5639
10331SOL    HW131836   3.120   0.276   1.615  0.3381 -0.5268  0.1471
10331SOL    HW231837   3.030   0.312   1.499  0.0370  1.1038  0.8601
10332SOL     OW31838   7.182   4.453   0.125 -0.2068 -0.2839  0.4408
10332SOL    HW131839   7.263   4.430   0.171 -0.2987 -0.3934  0.5471
10332SOL    HW231840   7.114   4.400   0.167 -0.1765 -0.9190 -0.2849
10333SOL     OW31841   5.014   6.973   0.714  0.2596  0.1322 -0.2102
10333SOL    HW131842   5.101   6.935   0.704  0.3935  0.8573 -2.3788
10333SOL    HW231843   4.956   6.916   0.663 -0.3251  0.3199  0.2318
10334SOL     OW31844   5.648   4.755   1.368  0.1444 -0.0342  0.8358
10334SOL    HW131845   5.712   4.763   1.439  0.5026  0.5008  0.4542
10334SOL    HW231846   5.663   4.668   1.332  2.1321  0.8503 -0.6340
10335SOL     OW31847   1.603   1.553   3.181 -0.2452 -0.9177 -0.2983
10335SOL    HW131848   1.686   1.532   3.138  0.5969  0.5033  0.5604
10335SOL    HW231849   1.624   1.556   3.274 -0.8194  1.2883 -0.2006
10336SOL     OW31850   5.781   6.542   2.832 -0.2254 -0.1228  0.0618
10336SOL    HW131851   5.873   6.534   2.858 -0.4671  2.1248  1.9694
10336SOL    HW231852   5.770   6.479   2.761  2.0745 -2.4635  1.5996
10337SOL     OW31853   4.397   5.387   5.526  0.0710  0.5674 -0.1943
10337SOL    HW131854   4.344   5.378   5.605  0.7481  0.4908  0.2648
10337SOL    HW231855   4.342   5.436   5.465 -0.1573  1.3314  0.6129
10338SOL     OW31856   2.713   8.135   3.085 -0.5833  0.6641  0.0201
10338SOL    HW131857   2.764   8.072   3.136 -1.5152 -1.2377 -1.2582
10338SOL    HW231858   2.707   8.212   3.140  1.6831  0.1047  1.1520
10339SOL     OW31859   3.682   2.321   3.462 -0.1794  0.0452  0.7930
10339SOL    HW131860   3.750   2.370   3.509  0.2007 -0.5966  0.9289
10339SOL    HW231861   3.714   2.316   3.372 -1.7033  2.7396  0.0116
10340SOL     OW31862   4.739   5.474   5.286 -0.8442 -0.3111 -0.2217
10340SOL    HW131863   4.649   5.444   5.300 -1.0484 -0.0711 -0.9545
10340SOL    HW231864   4.786   5.395   5.260 -1.1048 -0.2318 -0.9506
10341SOL     OW31865   6.298   4.676   6.756 -0.0209 -0.7692  0.4967
10341SOL    HW131866   6.227   4.612   6.759  0.3851 -1.2092  0.7391
10341SOL    HW231867   6.268   4.747   6.814 -1.0613 -0.1074 -0.7875
10342SOL     OW31868   1.122   6.639   6.594  0.6086 -0.3278 -0.1251
10342SOL    HW131869   1.184   6.630   6.666  0.6735  3.9256  0.5721
10342SOL    HW231870   1.044   6.678   6.633 -0.1427  0.1701 -2.0082
10343SOL     OW31871   5.431   7.292   1.707 -0.0335  0.1984 -0.0367
10343SOL    HW131872   5.399   7.296   1.617  0.3960  0.0907 -0.1973
10343SOL    HW231873   5.352   7.303   1.761 -0.1924  1.0468 -0.4196
10344SOL     OW31874   4.796   3.900   4.862 -0.1446  0.7319  0.2977
10344SOL    HW131875   4.861   3.970   4.858 -0.2281  0.9118  1.7539
10344SOL    HW231876   4.792   3.876   4.954 -1.0711 -0.3002  0.0051
10345SOL     OW31877   3.287   6.695   1.983 -0.4890 -0.3430  0.1336
10345SOL    HW131878   3.205   6.744   1.977 -1.1384 -1.5429 -2.0326
10345SOL    HW231879   3.272   6.631   2.053  0.0832  1.8683  2.4389
10346SOL     OW31880   4.435   2.719   6.785 -0.0534 -0.1181  0.3967
10346SOL    HW131881   4.396   2.806   6.769 -0.7438 -0.6903 -1.2771
10346SOL    HW231882   4.361   2.659   6.776  0.3769 -0.8915  1.7844
10347SOL     OW31883   4.395   7.865   3.159  0.9059  0.0565 -0.2807
10347SOL    HW131884   4.386   7.912   3.076  1.2280  0.6315  0.0074
10347SOL    HW231885   4.414   7.933   3.224  1.3157 -0.4618  0.1538
10348SOL     OW31886   7.049   0.605   1.321  0.1046 -0.5600 -0.0285
10348SOL    HW131887   7.082   0.671   1.382  1.1357  0.6087 -1.7620
10348SOL    HW231888   7.126   0.552   1.299  0.1111 -0.0328 -1.3999
10349SOL     OW31889   5.000   2.599   4.182 -0.3546  0.0795 -0.1810
10349SOL    HW131890   4.969   2.689   4.179 -0.3395  0.1291  0.7322
10349SOL    HW231891   4.984   2.572   4.273  0.0335 -0.6942 -0.3364
10350SOL     OW31892   7.349   6.103   2.841 -0.3585  0.7379 -0.3641
10350SOL    HW131893   7.277   6.082   2.782  0.4392  0.9501 -1.4485
10350SOL    HW231894   7.425   6.109   2.784  0.8541 -1.1196  0.9634
10351SOL     OW31895   1.928   5.862   7.655 -0.3267  0.2088 -0.6847
10351SOL    HW131896   1.891   5.932   7.601  1.3504  2.0216  0.4267
10351SOL    HW231897   1.892   5.877   7.742 -1.9057 -1.8693 -0.8843
10352SOL     OW31898   0.037   7.408   0.413  0.0709 -0.5429 -0.1825
10352SOL    HW131899   0.041   7.503   0.407 -1.0787 -0.4909 -0.3893
10352SOL    HW231900  -0.025   7.391   0.484  0.0291 -1.1394 -0.3529
10353SOL     OW31901   3.218   1.411   3.672 -0.0612  0.1696  0.5332
10353SOL    HW131902   3.154   1.456   3.728  1.2487  1.4826  1.0072
10353SOL    HW231903   3.295   1.400   3.728  0.8363  0.3987 -0.6317
10354SOL     OW31904   2.049   6.499   1.019 -0.3746 -0.0759 -0.3289
10354SOL    HW131905   2.016   6.430   0.961 -1.1448  0.2408 -0.2748
10354SOL    HW231906   2.032   6.467   1.107  0.0846 -0.2100 -0.2873
10355SOL     OW31907   0.158   7.208   5.086 -0.2123 -0.1528 -0.1482
10355SOL    HW131908   0.191   7.244   5.004  3.7697 -0.6157  1.0730
10355SOL    HW231909   0.189   7.269   5.153 -0.8494 -1.3196  1.2521
10356SOL     OW31910   4.227   0.914   0.757  0.6529 -0.3482  0.1609
10356SOL    HW131911   4.294   0.895   0.823  0.9815 -0.2656 -0.1465
10356SOL    HW231912   4.216   1.009   0.762 -0.1802 -0.4650  0.9164
10357SOL     OW31913   3.324   1.569   7.462  0.2064 -0.5213  0.3520
10357SOL    HW131914   3.300   1.481   7.491  0.3242 -0.0431  2.0550
10357SOL    HW231915   3.410   1.584   7.503 -0.8395  1.2128  2.0669
10358SOL     OW31916   6.378   0.786   7.236 -0.6874  0.0173  0.1857
10358SOL    HW131917   6.426   0.803   7.155 -0.2175  0.4250  0.5502
10358SOL    HW231918   6.402   0.857   7.295 -1.8967  0.3540  0.3101
10359SOL     OW31919   7.520   2.363   2.537 -0.2542  0.0394 -0.3571
10359SOL    HW131920   7.478   2.447   2.559 -0.2834  0.4143 -1.7317
10359SOL    HW231921   7.448   2.308   2.504  0.2732  0.8144 -3.0868
10360SOL     OW31922   1.151   3.942   0.378  0.3753 -0.3938 -0.1526
10360SOL    HW131923   1.102   4.003   0.434 -0.2461 -0.8760 -0.1665
10360SOL    HW231924   1.202   3.889   0.440  0.0452 -0.6165 -0.0703
10361SOL     OW31925   0.721   5.950   2.566  0.1522 -0.5731 -0.7280
10361SOL    HW131926   0.719   5.918   2.656  0.2845 -0.4604 -0.6844
10361SOL    HW231927   0.630   5.953   2.538 -0.0974  1.5490  0.1536
10362SOL     OW31928   6.234   0.634   3.229  0.2668  0.1448  0.3627
10362SOL    HW131929   6.182   0.714   3.236 -0.5087 -0.2914 -0.2358
10362SOL    HW231930   6.207   0.582   3.304  0.1688  0.1091  0.3034
10363SOL     OW31931   0.587   4.074   0.956 -0.4136 -0.9125 -0.1814
10363SOL    HW131932   0.547   4.158   0.933 -2.1117 -0.8813  2.5067
10363SOL    HW231933   0.516   4.011   0.946 -0.1793 -1.4280  1.2559
10364SOL     OW31934   6.539   4.459   2.702  0.0568  0.3570  0.5805
10364SOL    HW131935   6.454   4.484   2.667  0.9196  0.3900 -1.6562
10364SOL    HW231936   6.539   4.363   2.701  0.2383  0.3614  0.0624
10365SOL     OW31937   4.205   6.702   1.623  0.5604 -0.2374 -0.4461
10365SOL    HW131938   4.182   6.671   1.710  1.3463 -0.9236 -0.4718
10365SOL    HW231939   4.294   6.735   1.631  0.8233 -0.7605 -1.0916
10366SOL     OW31940   1.589   7.219   5.537 -0.1179  0.1955  0.4081
10366SOL    HW131941   1.558   7.250   5.452  2.5746  2.0939 -0.0204
10366SOL    HW231942   1.521   7.244   5.599 -0.6578  1.8220 -0.7779
10367SOL     OW31943   0.277   2.720   5.426  0.0768 -0.2928  0.0959
10367SOL    HW131944   0.323   2.765   5.355  0.5575  0.5489  0.9043
10367SOL    HW231945   0.347   2.691   5.485 -0.3350 -0.3766  0.5547
10368SOL     OW31946   2.470   2.981   1.994  0.7412 -0.0185  0.2687
10368SOL    HW131947   2.534   2.961   1.926  0.1958 -0.6436 -0.0783
10368SOL    HW231948   2.508   3.055   2.042  0.5022  1.3987 -1.5867
10369SOL     OW31949   2.045   6.950   7.002  0.1256  0.2181  0.1403
10369SOL    HW131950   2.039   7.024   7.063 -1.2674 -0.2223  0.5548
10369SOL    HW231951   1.955   6.931   6.977  0.5083 -0.9788 -0.4134
10370SOL     OW31952   4.117   1.925   3.549 -0.0409  0.7658  0.7006
10370SOL    HW131953   4.177   1.853   3.570  0.0527  0.9352  1.0247
10370SOL    HW231954   4.140   1.950   3.459 -0.1173  0.3507  0.5615
10371SOL     OW31955   4.420   2.441   8.177  0.0299  0.0863 -0.3667
10371SOL    HW131956   4.354   2.444   8.107 -0.3161  0.3328 -0.0356
10371SOL    HW231957   4.390   2.370   8.234  0.2024  0.0178 -0.3622
10372SOL     OW31958   4.840   3.387   1.719 -0.5718 -0.2807 -0.0344
10372SOL    HW131959   4.808   3.435   1.795 -1.2002 -0.7953  0.0301
10372SOL    HW231960   4.766   3.383   1.660 -1.0884 -2.6321  0.6774
10373SOL     OW31961   6.345   2.913   4.548  0.3457 -0.1403 -0.0363
10373SOL    HW131962   6.266   2.865   4.571 -0.5402  1.1576 -0.2698
10373SOL    HW231963   6.351   2.982   4.614  0.3427  0.7977 -0.9862
10374SOL     OW31964   4.271   4.067   5.155 -0.7533 -0.0809  0.1448
10374SOL    HW131965   4.181   4.036   5.144 -0.5909 -0.9788  1.1798
10374SOL    HW231966   4.278   4.086   5.248  0.5174 -1.2864  0.3240
10375SOL     OW31967   1.035   6.148   7.830  0.7417  0.6227  0.2382
10375SOL    HW131968   1.017   6.073   7.775 -1.3569  1.4179 -0.2656
10375SOL    HW231969   1.066   6.216   7.770 -2.5719  1.8391 -0.2893
10376SOL     OW31970   1.084   3.746   3.928  0.4665  0.1656 -0.4850
10376SOL    HW131971   1.003   3.708   3.962  0.4533  1.1076  0.5853
10376SOL    HW231972   1.119   3.679   3.870  0.7076 -1.7273  1.6979
10377SOL     OW31973   3.055   1.277   0.585 -0.2188  0.0905  0.5042
10377SOL    HW131974   3.099   1.193   0.595  2.8152  1.4813 -0.0597
10377SOL    HW231975   3.125   1.342   0.589 -2.2031  2.5091 -0.8748
10378SOL     OW31976   5.482   2.508   3.946  0.4863 -0.1151 -0.2476
10378SOL    HW131977   5.423   2.536   4.017 -0.5330 -1.1964 -0.6369
10378SOL    HW231978   5.553   2.572   3.947  0.1218  0.2995  1.2842
10379SOL     OW31979   1.783   1.967   2.798 -0.4390  0.0155  0.3339
10379SOL    HW131980   1.705   1.955   2.744 -0.3429  1.9477 -0.3337
10379SOL    HW231981   1.806   2.059   2.786 -0.6278  0.6949  3.9983
10380SOL     OW31982   4.071   2.423   6.795  0.3476 -0.1619  0.3602
10380SOL    HW131983   4.069   2.329   6.776  0.3465 -0.0878 -0.0180
10380SOL    HW231984   3.979   2.449   6.797  0.3718 -0.0013 -0.4058
10381SOL     OW31985   6.800   6.917   7.479 -0.2245 -0.1570  0.2123
10381SOL    HW131986   6.852   6.863   7.420 -0.8930 -1.4519  0.7591
10381SOL    HW231987   6.765   6.987   7.424 -0.2769 -0.9436 -0.7724
10382SOL     OW31988   4.255   7.901   0.166 -0.2507 -0.0735 -0.4767
10382SOL    HW131989   4.179   7.901   0.108 -0.8390 -1.8758  0.2107
10382SOL    HW231990   4.256   7.812   0.203  2.6384 -0.3800 -1.0440
10383SOL     OW31991   5.225   3.016   2.859  1.2226  0.3476 -0.3967
10383SOL    HW131992   5.214   3.074   2.784 -0.7326  0.2264 -0.2472
10383SOL    HW231993   5.250   3.075   2.931 -2.0128  1.3214  0.0838
10384SOL     OW31994   7.948   2.013   0.662 -0.4413  0.3970  0.4356
10384SOL    HW131995   7.967   1.946   0.727 -0.2721 -0.5919 -0.5876
10384SOL    HW231996   7.964   1.969   0.578  0.9517  2.1230 -0.2400
10385SOL     OW31997   5.055   6.754   4.339 -0.0066 -0.0458  0.2504
10385SOL    HW131998   5.003   6.675   4.322  0.5674 -0.5894  0.9534
10385SOL    HW231999   5.091   6.740   4.426  0.7579  0.6407  0.0538
10386SOL     OW32000   4.818   0.123   2.402 -0.2175  0.5320 -0.4827
10386SOL    HW132001   4.722   0.126   2.408 -0.2682  1.7402 -1.3749
10386SOL    HW232002   4.836   0.081   2.318 -0.0022  1.1737 -0.7666
10387SOL     OW32003   7.562   2.840   2.370  0.1539 -0.2782 -0.6102
10387SOL    HW132004   7.519   2.776   2.313  0.5769 -1.0539 -0.0726
10387SOL    HW232005   7.503   2.849   2.445  0.4629 -0.6219 -0.3227
10388SOL     OW32006   1.859   1.838   1.598  0.5972 -0.6538  0.2226
10388SOL    HW132007   1.824   1.857   1.685  0.2467 -1.3852  0.2448
10388SOL    HW232008   1.783   1.845   1.540  0.6447 -1.0936  0.1059
10389SOL     OW32009   5.702   4.203   4.829  0.2652  0.3727 -0.4102
10389SOL    HW132010   5.619   4.156   4.840  0.3381  0.0485 -1.1543
10389SOL    HW232011   5.682   4.293   4.854  0.1790 -0.0773  1.2731
10390SOL     OW32012   1.991   3.712   6.069  0.1173  0.2072  0.2443
10390SOL    HW132013   2.023   3.750   5.987  1.8680 -3.3436 -0.9500
10390SOL    HW232014   1.916   3.657   6.043 -1.2203  1.3041  1.5811
10391SOL     OW32015   1.107   4.560   6.072 -0.2528  0.2151  0.4739
10391SOL    HW132016   1.158   4.583   5.995 -0.2539  0.0458  0.4210
10391SOL    HW232017   1.102   4.464   6.069 -0.5615  0.2306  0.4835
10392SOL     OW32018   5.001   0.966   0.988  0.3889 -0.2552 -0.0231
10392SOL    HW132019   4.926   0.969   0.929  1.4670  1.9017 -1.4358
10392SOL    HW232020   4.981   1.030   1.055  0.6288 -0.2325  0.0273
10393SOL     OW32021   1.377   4.470   2.972  0.4825 -0.3585 -0.3933
10393SOL    HW132022   1.417   4.550   3.005 -1.4829  0.9396 -1.0216
10393SOL    HW232023   1.306   4.451   3.033 -0.4775 -0.3457 -1.4819
10394SOL     OW32024   0.525   0.649   2.753  0.0148  0.2389  0.4665
10394SOL    HW132025   0.569   0.707   2.690  1.1179 -1.6613 -0.5804
10394SOL    HW232026   0.439   0.634   2.715  0.4201 -0.3323 -0.2463
10395SOL     OW32027   3.742   5.962   2.380 -0.3344 -0.2307 -0.4644
10395SOL    HW132028   3.817   5.956   2.440  0.5353  0.5623 -1.4422
10395SOL    HW232029   3.781   5.968   2.293 -1.5775 -2.3601 -1.2600
10396SOL     OW32030   2.316   7.638   4.758  0.4164  0.2991  0.4286
10396SOL    HW132031   2.331   7.714   4.814  0.2687 -1.7470  3.4953
10396SOL    HW232032   2.342   7.563   4.812 -0.9827 -1.9704 -1.8198
10397SOL     OW32033   8.044   5.145   0.791 -0.2898  0.1163 -0.2720
10397SOL    HW132034   7.958   5.183   0.807  0.5402  1.6211  0.7961
10397SOL    HW232035   8.042   5.060   0.836 -2.0517 -1.1032 -2.4291
10398SOL     OW32036   0.942   1.716   7.435  0.4113 -0.1739  0.0079
10398SOL    HW132037   1.031   1.706   7.471  1.0270 -0.5891 -1.5337
10398SOL    HW232038   0.933   1.643   7.374 -0.8236  0.1571 -0.2270
10399SOL     OW32039   0.911   5.743   3.356  0.6586  0.1977 -0.1140
10399SOL    HW132040   0.949   5.820   3.314  0.3540  0.1646 -0.4501
10399SOL    HW232041   0.887   5.685   3.283  1.0883 -0.3126  0.1386
10400SOL     OW32042   7.293   1.741   7.118 -0.6911 -0.0089 -0.3177
10400SOL    HW132043   7.257   1.806   7.058  0.6525  1.0357 -0.0270
10400SOL    HW232044   7.375   1.779   7.149 -0.5347 -1.2586  0.9053
10401SOL     OW32045   2.224   2.766   5.590 -0.1977 -0.2424 -0.1501
10401SOL    HW132046   2.199   2.843   5.642  1.4071  0.6624 -0.6620
10401SOL    HW232047   2.141   2.734   5.554 -0.9571  0.9416  0.4852
10402SOL     OW32048   6.058   4.997   5.120 -0.3203  0.2143 -0.3581
10402SOL    HW132049   6.024   5.064   5.062  0.4876  0.8082 -0.1715
10402SOL    HW232050   6.075   5.044   5.202  0.8297 -0.0726 -0.4204
10403SOL     OW32051   4.459   1.123   7.796 -0.4110 -0.1445 -0.5591
10403SOL    HW132052   4.375   1.164   7.817 -0.5349 -0.7537  0.1877
10403SOL    HW232053   4.498   1.181   7.730 -0.7603  0.9344  0.1509
10404SOL     OW32054   2.301   6.502   1.902 -0.1787  0.3854 -0.0934
10404SOL    HW132055   2.228   6.490   1.841  1.2243 -0.3586 -1.6991
10404SOL    HW232056   2.342   6.583   1.874 -0.2170  0.6603  0.6361
10405SOL     OW32057   2.592   1.154   1.027 -0.2012  0.0716  0.0615
10405SOL    HW132058   2.588   1.058   1.030  0.4573  0.0584  1.9210
10405SOL    HW232059   2.505   1.183   1.053  0.6629 -0.1118  3.7387
10406SOL     OW32060   0.086   6.517   2.221 -0.3625 -0.1833 -0.1449
10406SOL    HW132061   0.020   6.479   2.278  0.8576 -1.2263  0.6205
10406SOL    HW232062   0.143   6.567   2.280 -0.2773  0.4510 -0.7479
10407SOL     OW32063   5.296   0.500   0.534 -0.1619  0.5236  0.3207
10407SOL    HW132064   5.297   0.595   0.545  0.6375  0.5938 -0.2372
10407SOL    HW232065   5.383   0.471   0.562 -0.6525 -0.1406  1.1960
10408SOL     OW32066   0.644   6.347   2.391  0.2309  0.2202  0.2174
10408SOL    HW132067   0.625   6.337   2.297  0.2164  1.2496  0.0985
10408SOL    HW232068   0.574   6.299   2.435  1.3003 -1.9387 -0.2995
10409SOL     OW32069   5.566   4.207   0.241  0.3609  0.1773 -0.0486
10409SOL    HW132070   5.598   4.124   0.205  0.5618 -0.3464  1.2751
10409SOL    HW232071   5.553   4.263   0.165  1.7885 -0.5223 -0.8506
10410SOL     OW32072   3.146   4.435   7.001  0.1595 -0.6717  0.2326
10410SOL    HW132073   3.056   4.450   6.972 -0.1990 -0.1876  1.5624
10410SOL    HW232074   3.140   4.363   7.063  0.8056 -1.1507 -0.2495
10411SOL     OW32075   1.257   0.772   0.999 -0.2441  0.4541 -0.0372
10411SOL    HW132076   1.204   0.786   0.921 -0.7643  1.8438  0.5310
10411SOL    HW232077   1.344   0.752   0.965 -1.1248 -2.1680 -0.9807
10412SOL     OW32078   0.065   7.184   1.514 -0.3911 -0.0996 -0.1177
10412SOL    HW132079   0.061   7.270   1.554 -0.4105  0.2222 -0.7898
10412SOL    HW232080   0.026   7.196   1.427 -0.1209 -0.7130 -0.3325
10413SOL     OW32081   6.266   1.094   7.790  0.3254  0.3047 -0.3101
10413SOL    HW132082   6.245   1.001   7.783  0.5916  0.3756 -2.7349
10413SOL    HW232083   6.318   1.101   7.870 -0.7018 -1.4019  0.5697
10414SOL     OW32084   5.788   5.821   3.152 -0.3404  0.1811 -0.0586
10414SOL    HW132085   5.828   5.735   3.138 -1.2295 -0.3183  0.3658
10414SOL    HW232086   5.839   5.860   3.223  0.0738  0.0158 -0.2595
10415SOL     OW32087   3.242   0.784   4.557  0.5047 -0.0852  0.3047
10415SOL    HW132088   3.202   0.714   4.506 -0.4842  0.5789  0.1391
10415SOL    HW232089   3.291   0.739   4.626  0.1167 -0.9427  0.0259
10416SOL     OW32090   4.367   2.051   4.655  0.5655  0.4506  0.1505
10416SOL    HW132091   4.412   2.061   4.571  0.7675  0.9007  0.3123
10416SOL    HW232092   4.281   2.014   4.631  1.2602 -1.0742 -0.0988
10417SOL     OW32093   5.843   6.883   0.600 -0.1819 -0.3031  0.1399
10417SOL    HW132094   5.800   6.897   0.684 -1.1314 -0.2568 -0.3448
10417SOL    HW232095   5.924   6.837   0.622  0.5868  1.5020  1.2712
10418SOL     OW32096   2.103   2.448   3.770  0.3829 -0.3485 -0.4234
10418SOL    HW132097   2.053   2.370   3.797  0.4672  0.0867  1.1195
10418SOL    HW232098   2.162   2.465   3.844 -0.4531  1.8791 -0.2074
10419SOL     OW32099   1.962   5.468   5.984 -0.0487  0.2076 -0.0913
10419SOL    HW132100   1.885   5.439   6.034 -0.5459 -0.5424 -1.2432
10419SOL    HW232101   2.036   5.428   6.028 -0.5886 -1.4700 -0.6581
10420SOL     OW32102   0.803   6.811   4.181  0.1538 -0.0823  0.3388
10420SOL    HW132103   0.753   6.729   4.190  0.3673 -0.3490 -0.7057
10420SOL    HW232104   0.740   6.872   4.144  0.6750 -0.5498 -1.4299
10421SOL     OW32105   7.538   4.391   5.233 -0.3504  0.7341 -0.2221
10421SOL    HW132106   7.606   4.409   5.168  1.5856  1.1610  1.7995
10421SOL    HW232107   7.461   4.366   5.181  0.9492  1.4564 -2.6548
10422SOL     OW32108   5.791   6.985   0.301  0.2876 -0.0541  0.1678
10422SOL    HW132109   5.837   6.901   0.300 -0.2420 -0.3504  0.3768
10422SOL    HW232110   5.821   7.028   0.381 -0.8833 -0.8696  1.0869
10423SOL     OW32111   5.699   1.064   5.052  0.5440 -0.3053 -0.0187
10423SOL    HW132112   5.696   1.031   5.142 -0.4317 -0.7621 -0.2005
10423SOL    HW232113   5.608   1.086   5.032  0.6670 -0.7057 -1.0672
10424SOL     OW32114   7.155   4.255   7.296 -0.4178  0.1912 -0.4559
10424SOL    HW132115   7.195   4.197   7.231 -0.2269 -1.0575  0.7202
10424SOL    HW232116   7.197   4.231   7.379  0.2419  2.6003 -0.0355
10425SOL     OW32117   2.875   0.725   4.274  0.0953 -0.2058 -0.6197
10425SOL    HW132118   2.926   0.735   4.193  1.2175 -2.2571 -0.2179
10425SOL    HW232119   2.901   0.800   4.327 -0.8763  1.3468 -2.2049
10426SOL     OW32120   6.977   5.872   7.799 -0.4941  0.3093 -0.1319
10426SOL    HW132121   7.068   5.859   7.828 -0.7091  0.1926  0.5132
10426SOL    HW232122   6.938   5.928   7.866 -0.3827  1.9902 -1.4089
10427SOL     OW32123   4.397   7.940   4.149 -0.6260  0.4682  0.5018
10427SOL    HW132124   4.454   7.958   4.223  0.6614 -0.7883 -0.1358
10427SOL    HW232125   4.334   8.012   4.149 -0.4566  0.6641  2.5876
10428SOL     OW32126   4.430   6.066   4.110 -0.2084  0.2219  0.4667
10428SOL    HW132127   4.387   5.984   4.133  4.3008 -2.3546  0.8035
10428SOL    HW232128   4.434   6.066   4.014 -0.9734  0.5399  0.4286
10429SOL     OW32129   5.036   5.318   8.013  0.1581  0.1654  0.4009
10429SOL    HW132130   5.030   5.343   8.105  0.6313 -0.3555  0.5819
10429SOL    HW232131   5.121   5.350   7.985 -0.0471  0.4532  0.0995
10430SOL     OW32132   7.834   0.488   2.728  0.5292  0.0940  0.1708
10430SOL    HW132133   7.784   0.513   2.807 -0.5442 -0.8541 -0.1812
10430SOL    HW232134   7.846   0.394   2.737  4.4495  0.5264  1.4383
10431SOL     OW32135   6.747   4.037   3.300  0.5383  0.1541 -0.4121
10431SOL    HW132136   6.807   4.111   3.303 -2.3551  2.6876  0.6401
10431SOL    HW232137   6.676   4.066   3.243 -2.1542 -0.4799  2.3301
10432SOL     OW32138   5.629   6.316   2.712 -0.5320  0.1071  0.0281
10432SOL    HW132139   5.608   6.293   2.803 -1.4496  0.2650 -0.1361
10432SOL    HW232140   5.641   6.231   2.669  4.1793 -0.0758  1.1708
10433SOL     OW32141   2.338   0.459   2.031 -0.2867  0.0564 -0.0355
10433SOL    HW132142   2.403   0.524   2.055  0.6291 -0.9892  0.4140
10433SOL    HW232143   2.367   0.425   1.946  0.7268 -1.5733  0.9068
10434SOL     OW32144   7.681   2.552   1.745 -0.3740  0.8740  0.0351
10434SOL    HW132145   7.652   2.564   1.654 -1.0370 -0.4893  0.0405
10434SOL    HW232146   7.703   2.459   1.751 -2.0205  0.5418  1.7287
10435SOL     OW32147   5.542   3.066   7.084 -0.1766  0.3202 -0.3451
10435SOL    HW132148   5.575   3.156   7.081 -0.1324  0.3575  0.8622
10435SOL    HW232149   5.467   3.067   7.024 -0.7959  1.4348  0.3968
10436SOL     OW32150   2.175   0.091   7.317  0.4250 -0.1540 -0.2505
10436SOL    HW132151   2.260   0.047   7.319  0.6707  0.3134 -0.2718
10436SOL    HW232152   2.193   0.176   7.276 -0.0713 -0.0944 -0.3488
10437SOL     OW32153   0.688   1.505   8.147 -0.4137 -0.5808  0.3419
10437SOL    HW132154   0.760   1.478   8.205 -0.0976 -2.9054 -1.0178
10437SOL    HW232155   0.643   1.423   8.125 -2.1759  0.5717 -0.5623
10438SOL     OW32156   3.325   6.094   4.556 -0.5664  0.6563 -0.5652
10438SOL    HW132157   3.308   6.161   4.622 -0.1184  0.1361  0.0953
10438SOL    HW232158   3.286   6.015   4.592 -1.2346  0.5772 -1.4130
10439SOL     OW32159   1.700   0.450   5.616  0.2037  0.0675 -0.5323
10439SOL    HW132160   1.684   0.526   5.672  0.3235 -1.0060  1.0164
10439SOL    HW232161   1.714   0.487   5.529  1.5690  1.9475  0.4137
10440SOL     OW32162   2.093   2.866   1.694 -0.5532 -0.5109 -0.0350
10440SOL    HW132163   2.182   2.834   1.707 -0.0455  1.1794  0.8326
10440SOL    HW232164   2.039   2.811   1.751 -0.2861 -2.2742 -1.3730
10441SOL     OW32165   4.955   3.498   3.642 -0.1125 -0.0705  0.0788
10441SOL    HW132166   4.976   3.406   3.624 -0.5345 -0.2746  0.6323
10441SOL    HW232167   4.939   3.501   3.736 -2.2645  0.1349 -0.2579
10442SOL     OW32168   2.458   0.525   1.612 -0.1871 -0.5178  0.8660
10442SOL    HW132169   2.461   0.591   1.544 -1.9594 -1.5857 -0.3406
10442SOL    HW232170   2.371   0.534   1.651  0.0355 -1.2631  1.5753
10443SOL     OW32171   6.809   2.159   2.670  0.3422  0.1822  0.2887
10443SOL    HW132172   6.884   2.182   2.614  0.2281 -2.6094 -1.1713
10443SOL    HW232173   6.847   2.109   2.742 -0.0092 -0.4801  0.0208
10444SOL     OW32174   1.313   7.783   8.141  0.4947 -0.0576 -0.5794
10444SOL    HW132175   1.392   7.790   8.089  1.5723  1.0898  1.1249
10444SOL    HW232176   1.271   7.869   8.135  0.5668  0.0522  0.3132
10445SOL     OW32177   0.496   7.527   2.539  0.3331  0.1863 -0.1697
10445SOL    HW132178   0.435   7.519   2.612 -0.0335 -0.8978 -0.5836
10445SOL    HW232179   0.582   7.511   2.578  0.2203  0.3796  0.1641
10446SOL     OW32180   1.883   6.837   4.349  0.0091 -0.1103 -0.4298
10446SOL    HW132181   1.822   6.764   4.338 -0.2838 -0.0055  0.4204
10446SOL    HW232182   1.880   6.884   4.266 -1.0389 -0.1296 -0.4100
10447SOL     OW32183   1.676   6.216   2.707 -0.6743 -0.6442 -0.5187
10447SOL    HW132184   1.752   6.236   2.761 -1.5380  1.0103  0.1624
10447SOL    HW232185   1.708   6.153   2.642  0.6902 -1.7134  1.1322
10448SOL     OW32186   1.332   8.084   1.103 -0.7871 -0.4449 -0.0231
10448SOL    HW132187   1.380   8.160   1.134 -1.0828 -1.0476  2.1185
10448SOL    HW232188   1.349   8.081   1.009  2.4396  0.0004  0.4267
10449SOL     OW32189   7.433   3.876   0.822 -0.3781 -0.5883 -0.1911
10449SOL    HW132190   7.467   3.787   0.811  1.2122 -0.0796  0.2113
10449SOL    HW232191   7.474   3.907   0.903 -0.7440  0.5717 -0.4335
10450SOL     OW32192   4.670   5.465   0.500 -0.4757 -0.1672 -0.0116
10450SOL    HW132193   4.602   5.505   0.555  0.9406  0.1884  1.5683
10450SOL    HW232194   4.739   5.440   0.562  0.5384 -1.1690 -1.4787
10451SOL     OW32195   0.769   3.796   4.627  0.5424  0.0326  0.2955
10451SOL    HW132196   0.788   3.850   4.550 -0.1854 -0.1431 -0.0155
10451SOL    HW232197   0.855   3.772   4.661  0.9566  2.6295  1.3506
10452SOL     OW32198   6.524   1.938   3.310 -0.4003  0.8130 -0.7354
10452SOL    HW132199   6.465   1.943   3.235  1.7052  0.3698 -2.5056
10452SOL    HW232200   6.609   1.917   3.273  0.0814 -3.5136  2.0678
10453SOL     OW32201   7.555   7.200   0.089 -0.1972 -0.4358  0.2458
10453SOL    HW132202   7.511   7.239   0.165 -1.2153 -2.6768  0.9182
10453SOL    HW232203   7.526   7.252   0.014 -1.5904  0.0088  1.0573
10454SOL     OW32204   1.108   3.780   6.309  0.1507 -0.4966 -0.0153
10454SOL    HW132205   1.125   3.753   6.400  0.5604  0.0638  0.0800
10454SOL    HW232206   1.194   3.788   6.270  0.0031 -0.0517 -0.2523
10455SOL     OW32207   5.422   3.121   3.875 -0.3348  0.4344  0.2137
10455SOL    HW132208   5.421   3.196   3.934  0.4435  1.2886 -0.8411
10455SOL    HW232209   5.511   3.117   3.842 -0.4805 -0.7043 -0.0884
10456SOL     OW32210   6.302   7.742   0.699  0.0373  0.2277  0.3149
10456SOL    HW132211   6.351   7.703   0.771 -0.5343  1.7974  1.6234
10456SOL    HW232212   6.223   7.776   0.741  1.0159  3.7791 -0.4453
10457SOL     OW32213   4.972   0.490   4.230  0.0676 -0.1508 -0.4808
10457SOL    HW132214   4.972   0.471   4.324  0.0894  1.1884 -0.1951
10457SOL    HW232215   4.883   0.470   4.201 -0.3479  0.7898  0.1206
10458SOL     OW32216   1.259   1.563   6.777 -0.1371 -0.4419 -0.2717
10458SOL    HW132217   1.270   1.588   6.686  1.0788  0.3613  0.0727
10458SOL    HW232218   1.193   1.625   6.810  0.4529  0.1950 -0.2631
10459SOL     OW32219   1.239   7.490   6.219 -0.0320 -0.2035  0.4688
10459SOL    HW132220   1.173   7.421   6.232 -0.2430 -0.1395 -0.2032
10459SOL    HW232221   1.303   7.451   6.159  0.4861 -0.2235  1.0255
10460SOL     OW32222   2.139   7.247   4.508  0.2954  0.4296 -0.2067
10460SOL    HW132223   2.203   7.317   4.513 -0.2684  0.9528 -0.2160
10460SOL    HW232224   2.131   7.214   4.597  0.9413  0.0228 -0.2930
10461SOL     OW32225   3.602   4.620   0.894  0.4489  0.2561 -0.4808
10461SOL    HW132226   3.570   4.615   0.804  1.1084 -1.7703 -0.6384
10461SOL    HW232227   3.523   4.630   0.948 -0.0751 -0.1463 -1.1714
10462SOL     OW32228   2.755   2.601   0.054  0.0857  0.7318  0.3874
10462SOL    HW132229   2.669   2.604   0.012  0.0409  1.2172  0.4990
10462SOL    HW232230   2.784   2.693   0.054  0.3412  0.6538  0.8807
10463SOL     OW32231   1.983   4.171   3.101 -0.1008  0.6331 -0.3047
10463SOL    HW132232   2.023   4.147   3.018 -0.8908 -0.7744 -0.3022
10463SOL    HW232233   1.910   4.111   3.112  1.3184 -0.7923  2.4805
10464SOL     OW32234   4.497   0.391   0.443  0.0761 -0.0851  0.4895
10464SOL    HW132235   4.424   0.341   0.405 -0.1452 -0.2097  1.0800
10464SOL    HW232236   4.559   0.325   0.472 -0.3712 -0.0426  1.5858
10465SOL     OW32237   2.990   0.065   6.303  0.1173 -0.2873  0.1749
10465SOL    HW132238   2.952   0.050   6.389 -1.0548  0.1085 -0.2519
10465SOL    HW232239   2.998  -0.022   6.264 -1.8241 -0.2807 -0.3165
10466SOL     OW32240   3.945   1.126   3.748  0.3240 -0.3681 -0.3481
10466SOL    HW132241   3.911   1.200   3.799  0.8035 -0.6614  0.4011
10466SOL    HW232242   3.892   1.127   3.668 -1.1606 -0.5390  0.5922
10467SOL     OW32243   7.180   6.440   3.707 -0.2518 -0.0814  0.0041
10467SOL    HW132244   7.236   6.511   3.675 -0.4337  0.9015  1.7463
10467SOL    HW232245   7.139   6.476   3.785 -2.7049 -1.0781 -0.7523
10468SOL     OW32246   4.534   5.005   7.702 -0.2982  0.4143 -0.0050
10468SOL    HW132247   4.484   5.052   7.636 -1.5751 -0.8112  0.0411
10468SOL    HW232248   4.504   5.040   7.786  0.0385  0.7269 -0.0096
10469SOL     OW32249   5.838   1.067   4.703  0.0176 -0.1456  0.3248
10469SOL    HW132250   5.826   1.017   4.622  0.0009 -1.0809  0.8834
10469SOL    HW232251   5.921   1.113   4.690  0.8929 -1.6228  0.4207
10470SOL     OW32252   0.794   7.482   5.722 -0.7518 -0.2639 -0.3960
10470SOL    HW132253   0.803   7.403   5.670 -1.6647 -1.1728  0.7757
10470SOL    HW232254   0.727   7.461   5.787 -0.2125  1.0932  0.6607
10471SOL     OW32255   6.693   0.925   4.958 -0.2491  0.5025 -0.5107
10471SOL    HW132256   6.643   0.852   4.993 -0.6424  0.7766 -0.4952
10471SOL    HW232257   6.696   0.988   5.030  0.1530  0.4706 -0.4973
10472SOL     OW32258   0.347   0.683   2.961 -0.3613 -0.9068 -0.3520
10472SOL    HW132259   0.361   0.777   2.972 -0.2831 -0.9028 -0.4805
10472SOL    HW232260   0.419   0.655   2.904 -0.1670 -1.1153 -0.0046
10473SOL     OW32261   5.529   7.513   1.989  0.0494  0.2839  0.0349
10473SOL    HW132262   5.506   7.587   1.933  0.5953  1.4244  1.2695
10473SOL    HW232263   5.602   7.545   2.042  2.6967 -2.2376 -1.7347
10474SOL     OW32264   3.203   4.059   8.132 -0.6372  0.0966  0.2381
10474SOL    HW132265   3.257   3.991   8.093 -0.8741 -1.2041  2.0767
10474SOL    HW232266   3.266   4.125   8.162 -0.4505  1.2352 -2.3268
10475SOL     OW32267   7.375   1.503   7.238 -0.1898 -0.3540  0.0784
10475SOL    HW132268   7.343   1.546   7.159 -0.4033 -0.1030  0.3009
10475SOL    HW232269   7.435   1.567   7.277 -0.2167 -0.4088  0.2102
10476SOL     OW32270   4.491   6.199   7.640  0.1780 -0.4204 -0.3857
10476SOL    HW132271   4.558   6.206   7.571  0.2497 -0.1767 -0.2910
10476SOL    HW232272   4.425   6.264   7.615 -0.3864 -1.1689 -0.8815
10477SOL     OW32273   2.227   5.678   4.243  0.1595  0.2222  0.1017
10477SOL    HW132274   2.182   5.699   4.161  0.6318  0.5580 -0.0805
10477SOL    HW232275   2.166   5.623   4.291 -2.4385  4.1355  1.8196
10478SOL     OW32276   8.164   0.203   6.057 -0.2389 -0.1465 -0.2458
10478SOL    HW132277   8.179   0.148   6.133  0.7542 -0.3736 -0.5984
10478SOL    HW232278   8.178   0.292   6.088 -0.7226 -0.1676  0.0451
10479SOL     OW32279   3.436   3.808   6.350  0.3715 -0.1443  0.1636
10479SOL    HW132280   3.518   3.820   6.303  0.1977 -1.1549 -0.4234
10479SOL    HW232281   3.372   3.790   6.281 -0.1041 -0.5347  0.7038
10480SOL     OW32282   5.085   7.920   7.599  0.3231 -0.5238  0.2333
10480SOL    HW132283   5.111   7.829   7.609 -0.0357 -0.6881 -0.2466
10480SOL    HW232284   5.016   7.933   7.664  0.5025 -0.5418  0.4272
10481SOL     OW32285   0.875   7.860   0.584  0.2803 -0.2089 -0.0758
10481SOL    HW132286   0.839   7.773   0.599 -2.3801  0.3500 -2.5497
10481SOL    HW232287   0.927   7.852   0.504 -1.2214  0.7333 -1.1868
10482SOL     OW32288   3.454   2.967   1.418 -0.4044  0.8771  0.2481
10482SOL    HW132289   3.517   2.911   1.464 -0.3225 -0.0553 -0.9734
10482SOL    HW232290   3.416   2.911   1.350 -1.0947  2.0074 -0.3276
10483SOL     OW32291   3.627   7.528   6.049 -0.6211  0.5932  0.3962
10483SOL    HW132292   3.624   7.460   6.116 -3.1377  0.3482  0.1204
10483SOL    HW232293   3.705   7.507   5.997  1.3508  0.7110  3.0587
10484SOL     OW32294   6.812   6.892   2.231 -0.3783  0.1119  0.0210
10484SOL    HW132295   6.730   6.848   2.210 -0.8170  0.1300  1.5428
10484SOL    HW232296   6.787   6.958   2.297  0.7413  0.5768 -0.0021
10485SOL     OW32297   6.949   7.629   5.364  0.2894 -0.5200 -0.7107
10485SOL    HW132298   6.944   7.558   5.300  0.0342 -0.4688 -0.7470
10485SOL    HW232299   6.936   7.709   5.312  1.7385 -0.3569 -0.8632
10486SOL     OW32300   3.085   3.406   7.957  0.2526 -0.2511 -0.6278
10486SOL    HW132301   3.150   3.430   8.023  1.1205 -0.1244 -1.5047
10486SOL    HW232302   3.058   3.490   7.918  0.5304 -0.4128 -1.1626
10487SOL     OW32303   2.867   0.105   6.540 -0.1600  0.1339  0.5558
10487SOL    HW132304   2.900   0.183   6.585 -0.0024  0.3797  0.0198
10487SOL    HW232305   2.871   0.036   6.606 -0.2560  0.5692  1.0183
10488SOL     OW32306   5.304   4.294   2.780  0.2729  0.2170  0.1188
10488SOL    HW132307   5.356   4.373   2.792  1.6680 -0.5843 -0.4622
10488SOL    HW232308   5.319   4.244   2.860 -1.2638  0.8675  0.8514
10489SOL     OW32309   6.899   5.833   6.951  0.5171  0.0954 -0.7385
10489SOL    HW132310   6.956   5.854   7.025  0.7989 -0.5706 -0.7612
10489SOL    HW232311   6.949   5.858   6.874  0.9864 -0.9136 -0.7813
10490SOL     OW32312   0.142   7.524   4.709  0.2982 -0.0066 -0.4384
10490SOL    HW132313   0.079   7.522   4.636 -0.4318  1.4731  0.1078
10490SOL    HW232314   0.220   7.564   4.672  0.4670 -0.6335 -0.7786
10491SOL     OW32315   6.571   0.834   1.237  0.3117 -0.3274 -0.5681
10491SOL    HW132316   6.554   0.928   1.236  0.1395 -0.3627 -0.8463
10491SOL    HW232317   6.521   0.802   1.313  0.4863 -0.1756 -0.3864
10492SOL     OW32318   7.923   7.205   5.887  0.4303  0.4030 -0.0550
10492SOL    HW132319   7.941   7.133   5.827  1.3168  1.5791 -1.2436
10492SOL    HW232320   7.865   7.263   5.838 -1.3031 -0.0273  1.3243
10493SOL     OW32321   5.259   0.987   3.179  0.1945 -0.0987 -0.3241
10493SOL    HW132322   5.199   1.057   3.205  1.5416  0.6670  0.9314
10493SOL    HW232323   5.341   1.033   3.158  1.1878 -1.2797  0.7726
10494SOL     OW32324   4.991   4.285   1.594 -0.1089  0.2208 -0.3288
10494SOL    HW132325   4.959   4.237   1.670  1.1318 -1.0578 -0.5552
10494SOL    HW232326   5.060   4.341   1.628  1.3926 -1.3421 -0.6331
10495SOL     OW32327   3.859   6.111   1.860 -0.1700 -0.1269 -0.6949
10495SOL    HW132328   3.929   6.098   1.796 -0.4292  2.3318 -1.6035
10495SOL    HW232329   3.787   6.148   1.809 -0.2516  2.2700  1.0088
10496SOL     OW32330   3.863   2.606   5.654  0.0550  0.7032 -0.3872
10496SOL    HW132331   3.951   2.627   5.621 -0.4798  1.8996 -1.1235
10496SOL    HW232332   3.877   2.583   5.746  1.2217  0.1446 -0.6867
10497SOL     OW32333   4.620   6.762   4.375 -0.0463 -0.3140  0.2727
10497SOL    HW132334   4.636   6.674   4.343 -0.4871 -0.3788  0.2256
10497SOL    HW232335   4.537   6.788   4.334 -0.6569 -0.4231  1.3872
10498SOL     OW32336   1.314   1.134   0.794 -0.0808  0.7699 -0.0902
10498SOL    HW132337   1.253   1.196   0.755  3.3458  3.6542 -1.4659
10498SOL    HW232338   1.348   1.178   0.872  0.0434 -0.8924  0.8461
10499SOL     OW32339   7.446   4.806   1.553  0.5530  0.2933  0.5671
10499SOL    HW132340   7.475   4.720   1.524  0.9664 -0.2209  2.3756
10499SOL    HW232341   7.525   4.860   1.550  0.1593  0.8211 -1.1904
10500SOL     OW32342   1.653   3.140   2.992  0.0060  0.2817 -0.1966
10500SOL    HW132343   1.744   3.139   2.962  0.0085  1.3265 -0.2465
10500SOL    HW232344   1.613   3.066   2.946  0.2697  1.1837 -1.9722
10501SOL     OW32345   1.917   2.746   0.719 -0.7537  0.0129 -0.4475
10501SOL    HW132346   1.825   2.773   0.711 -0.9319 -0.5343 -0.2801
10501SOL    HW232347   1.958   2.775   0.637 -0.9673  0.6606 -0.3359
10502SOL     OW32348   0.925   6.143   2.473 -0.8833  0.0476  0.2098
10502SOL    HW132349   1.004   6.105   2.434 -0.2683  2.5269 -1.2013
10502SOL    HW232350   0.872   6.068   2.499  0.8116 -1.7138 -1.1410
10503SOL     OW32351   0.061   7.425   2.848  0.4423  0.1865  0.5418
10503SOL    HW132352   0.072   7.344   2.797  2.5672  0.3021  0.7373
10503SOL    HW232353   0.122   7.487   2.809 -1.0714  1.7204  0.4723
10504SOL     OW32354   0.812   0.465   7.090 -0.2649  0.0802 -0.1030
10504SOL    HW132355   0.799   0.550   7.131 -0.7685 -0.9733  2.0837
10504SOL    HW232356   0.749   0.407   7.133 -0.8002 -1.1678 -2.4015
10505SOL     OW32357   5.901   3.971   3.507  0.4058 -0.1397  0.9393
10505SOL    HW132358   5.986   3.946   3.471  0.2605 -0.9497  1.1381
10505SOL    HW232359   5.906   4.066   3.516  0.5819  0.0638 -0.8565
10506SOL     OW32360   7.805   3.495   7.289 -0.5336 -0.2954 -0.6851
10506SOL    HW132361   7.784   3.403   7.277 -0.3109 -0.1983 -2.0395
10506SOL    HW232362   7.738   3.528   7.350 -1.0949 -1.1631 -0.8207
10507SOL     OW32363   1.335   3.660   7.962 -0.1778  0.0447 -0.5058
10507SOL    HW132364   1.335   3.589   8.027  0.7591  0.8521  0.4141
10507SOL    HW232365   1.411   3.714   7.986 -1.4371  1.9329 -0.5577
10508SOL     OW32366   2.928   5.493   8.170 -0.0280  0.1964  0.3216
10508SOL    HW132367   2.958   5.533   8.089  0.0967 -0.0834  0.2264
10508SOL    HW232368   2.994   5.425   8.189  0.3438  0.7370  1.0397
10509SOL     OW32369   2.344   5.852   1.360  0.0473 -0.3108  0.7636
10509SOL    HW132370   2.275   5.887   1.303  0.8337  2.0438  1.1394
10509SOL    HW232371   2.378   5.929   1.407  2.8052 -1.3921  0.7299
10510SOL     OW32372   0.459   5.848   0.453  0.2411 -0.4549 -0.2141
10510SOL    HW132373   0.523   5.797   0.404  0.5274  0.8056 -1.2173
10510SOL    HW232374   0.441   5.797   0.531 -1.2670 -3.2876 -2.2355
10511SOL     OW32375   1.857   5.405   4.217  0.5281 -0.3666  0.2037
10511SOL    HW132376   1.763   5.411   4.200  0.5770  0.5641  0.2192
10511SOL    HW232377   1.895   5.373   4.135  0.1858 -0.8892  0.2471
10512SOL     OW32378   0.218   7.582   2.666 -0.0385  0.1514  0.5646
10512SOL    HW132379   0.219   7.523   2.591  1.7626  0.9634 -0.0934
10512SOL    HW232380   0.152   7.647   2.645 -0.5708 -0.4366  0.3686
10513SOL     OW32381   6.623   3.156   0.550 -0.6481  0.0169 -0.1929
10513SOL    HW132382   6.699   3.124   0.501 -0.7772  1.2389 -1.2606
10513SOL    HW232383   6.559   3.180   0.482 -1.1885  0.9032  0.5991
10514SOL     OW32384   7.087   4.447   2.433 -0.0643  0.0438  0.7652
10514SOL    HW132385   7.129   4.508   2.372  0.1364 -2.0372 -1.3583
10514SOL    HW232386   7.157   4.422   2.494  0.2855  0.6937  0.6363
10515SOL     OW32387   4.056   1.485   5.016 -0.0429 -0.1755  0.7644
10515SOL    HW132388   3.980   1.436   4.985  0.5860  0.4625 -1.9666
10515SOL    HW232389   4.028   1.521   5.100 -1.7342 -2.2428  1.1843
10516SOL     OW32390   2.683   6.637   2.848 -0.4079 -0.1578 -0.5080
10516SOL    HW132391   2.742   6.580   2.897  0.4613  0.1055 -1.2323
10516SOL    HW232392   2.658   6.585   2.772  2.0720  1.0911 -2.3202
10517SOL     OW32393   3.278   8.084   4.480 -0.3731 -0.2705  0.7625
10517SOL    HW132394   3.371   8.080   4.504  0.1302 -1.4146 -1.1793
10517SOL    HW232395   3.278   8.115   4.390 -1.8969 -0.1939  0.7705
10518SOL     OW32396   5.261   6.101   2.043 -0.4890 -0.0188  0.0200
10518SOL    HW132397   5.211   6.049   1.980 -1.7913 -0.7893  1.6168
10518SOL    HW232398   5.225   6.077   2.128  0.1231  2.1611  0.9679
10519SOL     OW32399   3.791   0.881   0.673 -0.6169 -0.1638  0.2036
10519SOL    HW132400   3.749   0.914   0.594 -0.2603 -0.2823 -0.0374
10519SOL    HW232401   3.865   0.830   0.642  0.6583  1.3143  0.6374
10520SOL     OW32402   0.121   2.604   0.662 -0.2088 -0.5830  0.0479
10520SOL    HW132403   0.099   2.568   0.749  0.7743 -0.8039  0.2194
10520SOL    HW232404   0.210   2.638   0.673 -0.2622 -0.1855 -0.7532
10521SOL     OW32405   7.027   1.439   2.054 -0.2025 -0.0335 -0.6427
10521SOL    HW132406   7.004   1.532   2.045  0.3781  0.1057 -0.7331
10521SOL    HW232407   7.102   1.439   2.113  1.0439 -0.2721 -2.1748
10522SOL     OW32408   0.866   3.655   2.484 -0.0562 -0.2477  0.0493
10522SOL    HW132409   0.781   3.666   2.440  0.2726 -1.9189 -1.1284
10522SOL    HW232410   0.875   3.732   2.539 -2.0998  0.2371 -0.2112
10523SOL     OW32411   4.842   2.718   1.112  0.1084  0.6350  0.2802
10523SOL    HW132412   4.844   2.623   1.097  0.8849  0.7357 -0.2952
10523SOL    HW232413   4.895   2.732   1.190  1.1097  0.7237 -0.4040
10524SOL     OW32414   2.941   6.765   6.938 -0.0233 -0.2122  0.3499
10524SOL    HW132415   2.872   6.831   6.929  1.8556  1.7446 -0.6794
10524SOL    HW232416   2.894   6.682   6.948 -2.4972  1.1804  1.0605
10525SOL     OW32417   3.513   0.009   7.665 -0.0355 -0.1277  0.4776
10525SOL    HW132418   3.530   0.047   7.752  1.4265 -0.2461  0.2606
10525SOL    HW232419   3.502   0.085   7.608  1.0698 -0.0248  0.3866
10526SOL     OW32420   6.217   7.783   0.207  0.4202 -0.0176  0.0649
10526SOL    HW132421   6.191   7.787   0.116 -1.6003  0.5464  0.6202
10526SOL    HW232422   6.195   7.693   0.234  0.1009  0.1117  0.2403
10527SOL     OW32423   0.805   6.340   7.435  0.2938  0.0476 -0.2407
10527SOL    HW132424   0.742   6.401   7.397 -1.7824 -0.6529  1.9027
10527SOL    HW232425   0.875   6.396   7.469 -0.3942  1.0431 -0.4304
10528SOL     OW32426   5.432   4.543   3.449 -0.1890 -0.2232 -0.1300
10528SOL    HW132427   5.490   4.558   3.523 -0.5084  1.9524 -0.2486
10528SOL    HW232428   5.491   4.522   3.377  0.3029 -0.0946  0.2260
10529SOL     OW32429   8.202   3.761   5.014  0.7002 -0.5470  0.3421
10529SOL    HW132430   8.248   3.844   5.026  0.6492 -0.4016 -0.4232
10529SOL    HW232431   8.194   3.751   4.919  1.4012 -1.8113  0.3999
10530SOL     OW32432   6.344   4.749   7.775  0.5591  0.3010  0.7471
10530SOL    HW132433   6.267   4.692   7.780  1.0223 -0.3380  0.7430
10530SOL    HW232434   6.417   4.689   7.759  1.0258  0.9230  0.4997
10531SOL     OW32435   2.746   0.726   2.784 -0.3005  0.0475 -0.1158
10531SOL    HW132436   2.665   0.745   2.737 -0.3731 -0.0569 -0.0340
10531SOL    HW232437   2.749   0.793   2.853  1.1466  1.9129 -1.8569
10532SOL     OW32438   6.937   0.818   3.324  0.3168  0.3996  0.3583
10532SOL    HW132439   7.011   0.859   3.369 -0.4778  0.0172  2.1019
10532SOL    HW232440   6.921   0.737   3.373 -0.2344 -0.3486 -0.9998
10533SOL     OW32441   3.146   4.265   2.259 -0.5644  0.1314 -0.3368
10533SOL    HW132442   3.127   4.266   2.353  3.6331  2.1623  0.7167
10533SOL    HW232443   3.135   4.357   2.231  1.9799  0.3609 -0.7995
10534SOL     OW32444   3.797   6.136   7.063 -0.2765 -0.1393  0.2283
10534SOL    HW132445   3.804   6.089   7.146 -0.5819 -0.0870  0.2865
10534SOL    HW232446   3.828   6.074   6.998 -0.6538 -0.4193  0.3062
10535SOL     OW32447   0.662   6.099   6.398 -0.2469 -0.0268 -0.1421
10535SOL    HW132448   0.698   6.105   6.310 -1.4069  1.0947 -0.5759
10535SOL    HW232449   0.627   6.010   6.404  1.9842 -0.9467  0.1003
10536SOL     OW32450   1.381   1.258   8.181  0.8408  0.2113  0.7963
10536SOL    HW132451   1.393   1.267   8.276  1.9993  1.1389  0.5937
10536SOL    HW232452   1.465   1.225   8.150  0.0415 -1.3660  0.2186
10537SOL     OW32453   3.543   3.904   3.979 -0.1735 -0.1350  0.1072
10537SOL    HW132454   3.582   3.873   4.061  1.4278  2.7489  0.6037
10537SOL    HW232455   3.467   3.848   3.965 -0.2983 -0.9794  3.3883
10538SOL     OW32456   7.942   0.287   4.712 -0.3352 -0.2484 -0.2455
10538SOL    HW132457   7.959   0.251   4.625 -0.3643  2.2071 -1.3396
10538SOL    HW232458   8.025   0.276   4.759 -0.5138 -2.1796 -0.3216
10539SOL     OW32459   3.689   1.598   4.016  0.1546 -0.0691 -0.1043
10539SOL    HW132460   3.598   1.581   4.040  0.1532  1.4883  1.0941
10539SOL    HW232461   3.735   1.517   4.039 -0.5061  0.0413  1.7440
10540SOL     OW32462   1.535   5.981   0.617 -0.2620 -0.8927 -0.4450
10540SOL    HW132463   1.520   5.900   0.567  1.1605  0.2805 -2.9936
10540SOL    HW232464   1.462   6.038   0.593  0.2435 -0.4455 -0.9600
10541SOL     OW32465   4.369   2.366   1.442 -0.0002  0.2104 -0.1522
10541SOL    HW132466   4.301   2.319   1.489  0.3258 -1.5852 -1.3911
10541SOL    HW232467   4.446   2.361   1.499  0.3364 -1.7639 -0.7122
10542SOL     OW32468   5.907   5.836   2.167 -0.1104 -0.0894  0.3743
10542SOL    HW132469   5.892   5.787   2.248  1.5319  0.7612  1.2359
10542SOL    HW232470   5.934   5.770   2.103  1.4796 -0.4132  1.3471
10543SOL     OW32471   6.037   7.969   6.688 -0.0529 -0.4029  0.1438
10543SOL    HW132472   6.039   7.926   6.603  0.9249  0.7190 -0.4303
10543SOL    HW232473   6.061   7.900   6.750  1.4894 -0.7256 -0.7495
10544SOL     OW32474   3.915   3.660   3.084  0.1001  0.2033 -0.2212
10544SOL    HW132475   3.994   3.631   3.130  0.0818  0.8506  0.2428
10544SOL    HW232476   3.858   3.584   3.082 -0.3029  0.4143  1.7240
10545SOL     OW32477   2.457   2.008   4.099  0.6397  0.3257 -0.2781
10545SOL    HW132478   2.522   2.037   4.164  0.6496 -1.9682  0.8159
10545SOL    HW232479   2.376   2.051   4.126  0.8064 -0.0247  0.8303
10546SOL     OW32480   7.351   0.909   6.388 -0.0373  1.0448  0.4044
10546SOL    HW132481   7.361   1.000   6.417 -2.9708  1.1639  1.3910
10546SOL    HW232482   7.273   0.909   6.333 -0.0656 -0.8726  0.3599
10547SOL     OW32483   8.012   7.383   6.902 -0.5739  0.6437  0.1774
10547SOL    HW132484   8.008   7.422   6.814  1.8013  0.2971 -0.1557
10547SOL    HW232485   8.041   7.454   6.958 -0.4571  0.4451  0.3680
10548SOL     OW32486   5.867   2.093   1.504 -0.3759  0.5143  0.2805
10548SOL    HW132487   5.943   2.041   1.477  0.1988  1.0628  0.7985
10548SOL    HW232488   5.800   2.028   1.525  0.9562 -0.1807  2.8654
10549SOL     OW32489   3.351   1.200   4.545 -0.1425  0.0044  0.0905
10549SOL    HW132490   3.321   1.267   4.606  1.9275 -0.2219  1.4430
10549SOL    HW232491   3.345   1.118   4.594 -0.5083 -0.4916 -0.7664
10550SOL     OW32492   2.516   5.175   2.310  0.0865 -0.5208 -0.2526
10550SOL    HW132493   2.466   5.245   2.352 -0.2680 -0.7887 -0.2284
10550SOL    HW232494   2.450   5.121   2.266  0.4781  0.0272 -1.5641
10551SOL     OW32495   2.454   6.210   5.499  0.0929 -0.5729 -0.0768
10551SOL    HW132496   2.434   6.259   5.579  1.2363  1.1131 -0.7701
10551SOL    HW232497   2.492   6.128   5.530 -0.4271 -0.3900  1.1021
10552SOL     OW32498   4.861   7.066   7.505  0.1691  0.4727  0.0696
10552SOL    HW132499   4.862   7.072   7.600 -0.5726  0.0954  0.1101
10552SOL    HW232500   4.867   6.972   7.487 -1.0659  0.4319 -0.2148
10553SOL     OW32501   7.813   4.989   8.215  0.2970 -0.0298  0.0714
10553SOL    HW132502   7.752   5.032   8.155 -2.1153 -2.0750  0.8777
10553SOL    HW232503   7.867   5.059   8.250 -1.0236  1.7751 -1.3388
10554SOL     OW32504   0.848   6.754   4.530  0.2068 -0.5166 -0.3918
10554SOL    HW132505   0.899   6.743   4.450  0.4874 -0.2073 -0.2607
10554SOL    HW232506   0.758   6.736   4.505  0.4101 -1.2970 -0.5775
10555SOL     OW32507   5.994   4.438   5.427  0.5189  0.0940  0.0496
10555SOL    HW132508   5.900   4.441   5.442  0.4694 -0.7431 -0.0726
10555SOL    HW232509   6.003   4.399   5.340  0.9360  1.4248 -0.5357
10556SOL     OW32510   4.794   6.584   1.375 -0.5941 -0.1446  0.6749
10556SOL    HW132511   4.747   6.667   1.383 -1.2179 -0.5870  2.0737
10556SOL    HW232512   4.849   6.580   1.454 -0.5534 -1.0286  0.6147
10557SOL     OW32513   1.803   5.945   0.548  0.2343  0.0901  0.3837
10557SOL    HW132514   1.718   5.946   0.593 -0.1419  0.1284 -0.3151
10557SOL    HW232515   1.786   5.987   0.463  0.5363 -1.4345 -0.4735
10558SOL     OW32516   4.418   7.250   5.072 -0.3038 -0.0235  0.1512
10558SOL    HW132517   4.341   7.219   5.119 -0.7600 -0.7982 -1.0600
10558SOL    HW232518   4.457   7.171   5.035  0.7726  0.4213  0.3004
10559SOL     OW32519   1.798   6.044   7.489 -0.2430  0.1629 -0.0610
10559SOL    HW132520   1.708   6.049   7.457 -0.0344  1.1073 -0.5442
10559SOL    HW232521   1.851   6.042   7.409  0.2505  1.7125  0.2022
10560SOL     OW32522   2.355   4.246   3.316  0.2349  0.0420 -0.1165
10560SOL    HW132523   2.415   4.306   3.271  0.6325 -0.5611 -0.4047
10560SOL    HW232524   2.402   4.220   3.394 -1.0341  2.2484  1.5138
10561SOL     OW32525   8.158   5.978   5.125  0.3672 -0.3615 -0.1610
10561SOL    HW132526   8.110   5.897   5.143 -0.6183  0.6142  2.0244
10561SOL    HW232527   8.186   6.009   5.211 -0.1077  2.0898 -0.8133
10562SOL     OW32528   1.959   0.242   0.126  0.1336  0.2706  0.6028
10562SOL    HW132529   1.959   0.147   0.133  0.7476  0.3727  2.4821
10562SOL    HW232530   2.047   0.268   0.153  0.2181  1.3568 -0.6087
10563SOL     OW32531   2.387   0.744   4.898 -0.2035  0.2251  0.4431
10563SOL    HW132532   2.433   0.787   4.826 -2.0225 -0.3194 -1.1089
10563SOL    HW232533   2.327   0.811   4.932  0.7808  0.5449  1.6542
10564SOL     OW32534   5.649   4.922   4.554 -0.1087 -0.2395 -0.0401
10564SOL    HW132535   5.572   4.969   4.586 -0.2544  0.0508 -0.8047
10564SOL    HW232536   5.710   4.925   4.628 -1.3488 -1.7457  1.1308
10565SOL     OW32537   3.020   1.539   5.241 -0.8817  0.6917  0.0300
10565SOL    HW132538   2.928   1.544   5.215 -1.1854  0.1722  0.9378
10565SOL    HW232539   3.021   1.572   5.331  0.0089  1.7336 -0.3408
10566SOL     OW32540   8.172   7.431   0.895  0.5039  0.1105 -0.2366
10566SOL    HW132541   8.260   7.402   0.920 -0.3632 -1.3808  1.3197
10566SOL    HW232542   8.175   7.435   0.799  2.5601  1.2220 -0.1928
10567SOL     OW32543   3.989   4.480   1.764  0.2722 -0.0124 -0.5548
10567SOL    HW132544   4.070   4.464   1.813  0.2019  0.2871 -0.3430
10567SOL    HW232545   3.922   4.432   1.813  0.5465 -1.4184 -1.4872
10568SOL     OW32546   6.482   1.785   4.435  0.5972 -0.0567  0.2599
10568SOL    HW132547   6.435   1.856   4.393  1.3847  1.1722  1.3650
10568SOL    HW232548   6.567   1.782   4.390 -0.3688 -2.1658 -1.6287
10569SOL     OW32549   3.522   4.337   6.268 -0.0054 -0.0094 -0.3218
10569SOL    HW132550   3.458   4.371   6.331  0.5698  1.3694 -0.4420
10569SOL    HW232551   3.537   4.409   6.207 -0.6022 -1.3312 -2.1276
10570SOL     OW32552   3.265   1.766   2.968  0.3883 -0.2728 -0.4198
10570SOL    HW132553   3.332   1.827   2.938 -0.3045  0.1757 -1.1014
10570SOL    HW232554   3.197   1.821   3.006  0.1942 -0.6923 -0.1442
10571SOL     OW32555   0.408   1.358   0.980 -0.0316  0.0253  0.2668
10571SOL    HW132556   0.419   1.446   1.016  1.9650 -0.4603  0.9668
10571SOL    HW232557   0.353   1.312   1.043 -1.1338  0.7749 -0.1320
10572SOL     OW32558   6.120   7.566   7.615  0.0134 -0.0225 -0.2184
10572SOL    HW132559   6.215   7.569   7.607 -0.1325  1.1248 -2.4014
10572SOL    HW232560   6.089   7.636   7.558 -2.1936 -1.4982 -0.9868
10573SOL     OW32561   5.518   8.172   0.488 -0.1508  0.5820  0.5601
10573SOL    HW132562   5.599   8.121   0.491 -0.7139 -0.5846 -1.8126
10573SOL    HW232563   5.450   8.112   0.519 -0.2462  1.3895  2.0345
10574SOL     OW32564   6.198   4.167   0.732  0.1998  0.4108  0.0677
10574SOL    HW132565   6.132   4.235   0.751  0.0299  0.2162  0.1719
10574SOL    HW232566   6.267   4.184   0.796 -0.7008 -0.7064  1.3970
10575SOL     OW32567   1.837   0.105   5.124  0.5446 -0.5358  0.4424
10575SOL    HW132568   1.811   0.101   5.032 -1.0059 -0.3047  0.8407
10575SOL    HW232569   1.812   0.193   5.152  1.7672 -0.3107  0.8915
10576SOL     OW32570   6.241   4.815   3.693  0.4941  0.0673  0.5591
10576SOL    HW132571   6.182   4.800   3.767  0.1594 -0.0984  0.2652
10576SOL    HW232572   6.200   4.888   3.645  1.5795  1.2970  1.4312
10577SOL     OW32573   3.404   1.653   3.459 -0.2042 -0.0819  0.1882
10577SOL    HW132574   3.390   1.609   3.543  0.1666 -3.6054 -1.4225
10577SOL    HW232575   3.376   1.743   3.475 -3.0333 -1.2622  3.2974
10578SOL     OW32576   3.204   8.114   4.013  0.5466 -0.4667  0.5891
10578SOL    HW132577   3.222   8.146   3.925  0.9909 -0.6043  0.6293
10578SOL    HW232578   3.286   8.074   4.042 -0.1611 -2.2265  0.2859
10579SOL     OW32579   1.662   0.758   1.968  0.5545  0.5547  0.1104
10579SOL    HW132580   1.607   0.828   2.003 -0.4262  0.2825 -0.8241
10579SOL    HW232581   1.616   0.678   1.989  0.2195  0.3541 -1.2768
10580SOL     OW32582   8.034   4.835   8.137 -0.5479 -0.0240 -0.1977
10580SOL    HW132583   8.018   4.844   8.043 -0.7000 -1.5591 -0.3351
10580SOL    HW232584   7.960   4.879   8.179 -1.0348 -0.2574 -0.8035
10581SOL     OW32585   1.509   6.638   2.544  0.2153 -0.2082 -0.1432
10581SOL    HW132586   1.537   6.608   2.457  0.1088 -1.2565  0.1775
10581SOL    HW232587   1.531   6.731   2.544  1.2011 -0.4197 -0.9059
10582SOL     OW32588   4.654   7.385   8.125 -0.0858  0.2557 -0.2608
10582SOL    HW132589   4.729   7.407   8.071  1.5732 -0.2168  1.6960
10582SOL    HW232590   4.692   7.361   8.210 -2.5814  3.0711  1.8983
10583SOL     OW32591   0.112   5.724   2.262 -0.6007  0.1644 -0.2623
10583SOL    HW132592   0.049   5.667   2.304 -0.7141  0.9419  0.6632
10583SOL    HW232593   0.149   5.671   2.192  0.7696 -1.7867  1.7829
10584SOL     OW32594   2.093   3.383   6.403  0.3960  0.6005 -0.6705
10584SOL    HW132595   2.071   3.471   6.371  0.4523  0.2009 -1.8317
10584SOL    HW232596   2.172   3.359   6.356 -0.5675 -0.7671 -1.7000
10585SOL     OW32597   5.590   4.751   1.802  0.0445 -0.4618 -0.2786
10585SOL    HW132598   5.563   4.667   1.838  2.3558 -1.3414 -0.4598
10585SOL    HW232599   5.620   4.802   1.878 -0.2214 -0.2460 -0.3153
10586SOL     OW32600   3.779   4.802   7.604  0.2892  0.1350 -0.3818
10586SOL    HW132601   3.765   4.730   7.665  0.0231  0.5047 -0.0026
10586SOL    HW232602   3.698   4.853   7.606  0.7886  0.9329  0.0151
10587SOL     OW32603   1.224   6.709   2.180 -0.2550 -0.0003 -0.0988
10587SOL    HW132604   1.236   6.739   2.090  0.8355  0.8803  0.3166
10587SOL    HW232605   1.140   6.663   2.179 -0.4665  0.3753 -1.4643
10588SOL     OW32606   7.967   7.731   3.586 -0.2641  0.8813  0.2776
10588SOL    HW132607   7.964   7.817   3.543  2.3127  0.2106 -1.4943
10588SOL    HW232608   7.994   7.750   3.676  1.9819  1.8973 -0.5389
10589SOL     OW32609   7.610   1.303   7.093 -0.1103 -0.0832  0.1352
10589SOL    HW132610   7.545   1.241   7.062  1.3739 -1.6705  0.0481
10589SOL    HW232611   7.562   1.385   7.103 -1.7671 -0.7840 -1.4296
10590SOL     OW32612   4.731   4.230   5.112 -0.2936  0.3912 -0.4016
10590SOL    HW132613   4.684   4.203   5.033 -0.4784 -0.1174 -0.1243
10590SOL    HW232614   4.761   4.319   5.093 -0.4681  0.3317 -0.9834
10591SOL     OW32615   2.585   7.601   1.794  0.1169 -0.3098 -0.4081
10591SOL    HW132616   2.514   7.553   1.751 -0.0870  0.9991 -1.6210
10591SOL    HW232617   2.630   7.646   1.723  0.9403  0.4401  0.5569
10592SOL     OW32618   7.723   4.709   1.750  0.0753  0.3877  0.2364
10592SOL    HW132619   7.640   4.676   1.785  0.0347  0.8315  0.5697
10592SOL    HW232620   7.757   4.637   1.696 -0.9341  0.4965 -0.5772
10593SOL     OW32621   3.876   0.619   2.237  0.1812 -0.1073 -0.2361
10593SOL    HW132622   3.798   0.623   2.181  1.4068 -0.5868 -2.0603
10593SOL    HW232623   3.909   0.530   2.226  0.2569 -0.3457  1.6161
10594SOL     OW32624   7.282   7.321   0.690 -0.5629 -0.4787  0.2734
10594SOL    HW132625   7.309   7.230   0.694 -3.9356 -1.6222  4.0600
10594SOL    HW232626   7.305   7.356   0.776 -0.2019  2.0559 -0.7587
10595SOL     OW32627   1.256   8.206   3.907  0.3016 -0.0423  0.1541
10595SOL    HW132628   1.178   8.152   3.919 -0.2171  0.4696 -0.8035
10595SOL    HW232629   1.232   8.292   3.943 -0.0394  0.4786 -1.2486
10596SOL     OW32630   5.401   0.648   1.123  0.0620 -0.3506 -0.2997
10596SOL    HW132631   5.479   0.629   1.072  2.1591  3.0883  1.3175
10596SOL    HW232632   5.362   0.725   1.081 -0.3317  0.2096  1.0182
10597SOL     OW32633   2.617   3.331   5.478  0.2344 -0.3093 -0.0515
10597SOL    HW132634   2.677   3.363   5.411 -1.0214 -0.6775 -1.4101
10597SOL    HW232635   2.535   3.314   5.431 -1.3047  1.1804  1.8826
10598SOL     OW32636   1.375   7.667   6.870  0.1183  0.4762 -0.2277
10598SOL    HW132637   1.419   7.581   6.874 -0.5596  0.1517  0.8353
10598SOL    HW232638   1.419   7.719   6.938 -1.5558 -0.0924  1.3835
10599SOL     OW32639   1.850   5.415   5.718 -0.3702  0.4041  0.6051
10599SOL    HW132640   1.902   5.430   5.797  0.5768  1.9364 -0.2541
10599SOL    HW232641   1.806   5.498   5.701  0.1667  0.4083 -0.9695
10600SOL     OW32642   5.326   0.652   1.986 -0.0756  0.6598 -0.8520
10600SOL    HW132643   5.272   0.584   1.948 -1.2689  1.9624 -1.5764
10600SOL    HW232644   5.335   0.628   2.078 -0.9634 -0.1557 -0.9753
10601SOL     OW32645   4.461   0.283   6.914 -1.4950  0.5563  0.1487
10601SOL    HW132646   4.550   0.258   6.942 -1.5174 -0.5540 -0.6740
10601SOL    HW232647   4.471   0.370   6.877 -0.4449 -0.0926 -1.2004
10602SOL     OW32648   6.798   6.459   2.925  0.1847  0.3771  0.2913
10602SOL    HW132649   6.811   6.550   2.896  0.3891  0.7780  1.5583
10602SOL    HW232650   6.882   6.435   2.965 -0.2641  0.0582  1.0574
10603SOL     OW32651   2.547   2.334   1.539  0.4060 -0.0925 -0.5109
10603SOL    HW132652   2.580   2.399   1.601  0.1506 -0.5539  0.1246
10603SOL    HW232653   2.593   2.353   1.457  0.3504  0.8677 -0.3337
10604SOL     OW32654   7.655   7.278   3.998  0.5978 -0.3663  0.4006
10604SOL    HW132655   7.592   7.285   4.069  1.2032 -2.9284  1.2795
10604SOL    HW232656   7.601   7.268   3.919 -0.0667  1.9696  0.4686
10605SOL     OW32657   4.960   2.866   4.191 -0.3106 -0.4228 -0.1467
10605SOL    HW132658   4.897   2.864   4.119 -0.8649  0.8759  0.2669
10605SOL    HW232659   4.910   2.902   4.265  0.8816  0.5149  0.2272
10606SOL     OW32660   7.251   1.025   5.158  0.1616  0.5377 -0.5964
10606SOL    HW132661   7.180   1.063   5.106  0.6207  0.4137 -1.3316
10606SOL    HW232662   7.212   1.008   5.243  0.1783  3.5206  0.1041
10607SOL     OW32663   3.854   3.718   8.036  1.2893  0.3409  0.2368
10607SOL    HW132664   3.874   3.811   8.021  1.4740  0.7959  2.8501
10607SOL    HW232665   3.769   3.719   8.080  0.2343 -0.9323 -1.6503
10608SOL     OW32666   6.407   6.571   1.707 -0.0513 -0.4436  0.3732
10608SOL    HW132667   6.400   6.550   1.614  0.9224  1.1454 -0.0951
10608SOL    HW232668   6.335   6.632   1.724 -0.0380 -0.4866  0.5954
10609SOL     OW32669   6.903   3.053   5.510 -0.4538  0.5866 -0.0125
10609SOL    HW132670   6.879   3.142   5.536 -0.7855 -0.4331  3.6615
10609SOL    HW232671   6.827   3.000   5.534  0.8665 -1.0749  0.6574
10610SOL     OW32672   0.732   6.659   7.231  0.0015  0.0968 -0.7883
10610SOL    HW132673   0.668   6.684   7.164 -0.3849 -0.3471 -0.5928
10610SOL    HW232674   0.788   6.736   7.240 -0.9611  0.7892 -0.4360
10611SOL     OW32675   6.540   4.956   5.406  0.5748  0.2899 -0.4620
10611SOL    HW132676   6.461   4.950   5.353 -0.6781 -1.7291  1.4662
10611SOL    HW232677   6.528   5.034   5.459 -0.0193  0.1427 -0.3718
10612SOL     OW32678   3.850   4.794   2.010 -0.1522 -0.0571 -0.2655
10612SOL    HW132679   3.940   4.823   2.023 -0.4220  0.1530  1.4517
10612SOL    HW232680   3.848   4.758   1.922  1.4102  0.6587 -0.6209
10613SOL     OW32681   1.137   2.409   3.506  0.3639  0.1373  0.2598
10613SOL    HW132682   1.230   2.404   3.529  0.5189 -0.8060 -0.5369
10613SOL    HW232683   1.093   2.417   3.590  1.2044  1.4606  0.6121
10614SOL     OW32684   0.498   7.859   1.237  0.4438 -0.2122 -0.4634
10614SOL    HW132685   0.584   7.827   1.210  0.3801 -1.6092  0.8283
10614SOL    HW232686   0.436   7.819   1.176  0.7008  0.9891 -1.5451
10615SOL     OW32687   8.166   6.782   5.621 -0.5885 -0.3840  0.3367
10615SOL    HW132688   8.195   6.781   5.529  1.9457  0.7447  1.0430
10615SOL    HW232689   8.121   6.865   5.631 -0.7293 -0.4382  0.1668
10616SOL     OW32690   0.794   5.600   5.260  0.2922  0.3053 -0.1916
10616SOL    HW132691   0.710   5.628   5.225  0.0917  0.7588  0.6272
10616SOL    HW232692   0.815   5.664   5.328 -0.0907 -1.3745  1.5992
10617SOL     OW32693   5.945   4.232   3.517  0.0170  0.2486 -0.5140
10617SOL    HW132694   5.990   4.316   3.513 -0.2874  0.3932 -0.9439
10617SOL    HW232695   5.867   4.243   3.463 -0.5107 -0.0176  0.1729
10618SOL     OW32696   1.012   1.741   2.822 -0.2593  0.2190  0.4525
10618SOL    HW132697   1.015   1.810   2.756  0.0640 -0.8819 -0.7270
10618SOL    HW232698   0.926   1.751   2.863 -2.1855 -1.3377 -2.7707
10619SOL     OW32699   3.927   0.096   4.595 -0.1043  0.2830  0.0702
10619SOL    HW132700   3.887   0.015   4.564 -2.1756  0.6469  1.5663
10619SOL    HW232701   3.957   0.075   4.683  2.8945  0.1184 -0.8962
10620SOL     OW32702   4.227   4.702   0.528 -0.3323  0.2378 -0.0270
10620SOL    HW132703   4.163   4.710   0.458 -1.4757 -0.6171  0.8607
10620SOL    HW232704   4.248   4.792   0.553 -1.3932  0.5288 -0.1630
10621SOL     OW32705   8.070   2.325   3.433 -0.2357 -1.0892 -0.0073
10621SOL    HW132706   8.015   2.347   3.509  0.1246 -0.2559  0.0228
10621SOL    HW232707   8.025   2.364   3.358  0.5975  0.1534  0.0946
10622SOL     OW32708   5.987   2.825   6.073 -0.1559  0.2452 -0.0174
10622SOL    HW132709   5.990   2.759   6.004 -1.0557  1.6037 -1.4398
10622SOL    HW232710   5.910   2.878   6.052 -0.7584  0.4421  2.3286
10623SOL     OW32711   1.019   3.292   2.243  0.1047  0.1363  0.2715
10623SOL    HW132712   1.051   3.339   2.166  1.8731  0.1709  0.9850
10623SOL    HW232713   1.044   3.347   2.317  1.3052 -1.4071  1.0682
10624SOL     OW32714   5.131   5.696   0.192 -0.2127  0.2026 -0.3016
10624SOL    HW132715   5.216   5.679   0.233  0.5134  3.1219 -0.4191
10624SOL    HW232716   5.072   5.631   0.231  2.1722 -2.4971 -0.8505
10625SOL     OW32717   6.075   6.436   1.173 -0.2963 -0.3549 -0.0956
10625SOL    HW132718   6.124   6.515   1.151  0.1760 -0.1489  1.5528
10625SOL    HW232719   6.104   6.370   1.110  0.8231  0.2449 -0.2181
10626SOL     OW32720   5.869   0.760   5.357 -0.0945 -0.8596 -0.4237
10626SOL    HW132721   5.911   0.677   5.382  2.0115  0.6565  1.3861
10626SOL    HW232722   5.939   0.824   5.356 -1.9800  1.3722  0.4374
10627SOL     OW32723   7.181   1.711   0.537 -0.0816  0.4798  0.6573
10627SOL    HW132724   7.143   1.789   0.496 -0.2984  0.0229 -0.0286
10627SOL    HW232725   7.226   1.744   0.615 -0.2202  1.2800  0.4044
10628SOL     OW32726   1.931   2.431   1.605  0.0119 -0.0779  0.2020
10628SOL    HW132727   1.974   2.373   1.543  0.6448  1.0815 -0.4774
10628SOL    HW232728   1.912   2.376   1.681  1.2308 -1.0014 -0.1381
10629SOL     OW32729   2.234   4.672   3.937  0.8732 -0.3553  0.0840
10629SOL    HW132730   2.287   4.738   3.981 -0.2189  1.7844 -1.6512
10629SOL    HW232731   2.285   4.646   3.861 -0.0606  0.9665 -1.0351
10630SOL     OW32732   2.574   5.604   0.228 -0.2365 -0.1463 -0.2446
10630SOL    HW132733   2.558   5.511   0.247  1.2240 -0.4179 -0.2364
10630SOL    HW232734   2.553   5.613   0.135 -0.4653 -0.4551 -0.2262
10631SOL     OW32735   5.267   3.303   5.907 -0.7064 -0.1607 -0.1511
10631SOL    HW132736   5.223   3.232   5.954 -1.1784  0.8698  1.0104
10631SOL    HW232737   5.351   3.266   5.880 -1.2228 -1.3580 -0.1719
10632SOL     OW32738   0.418   0.532   2.145  0.1413  0.1108 -0.0524
10632SOL    HW132739   0.405   0.438   2.133 -0.8458  0.3576 -1.0528
10632SOL    HW232740   0.379   0.550   2.231 -1.3631 -0.0976 -0.6636
10633SOL     OW32741   7.856   4.471   1.638  0.2522  0.3013  0.4928
10633SOL    HW132742   7.936   4.461   1.690  0.4359 -0.3824  0.0833
10633SOL    HW232743   7.885   4.459   1.547  0.0399  2.0111  0.1540
10634SOL     OW32744   4.134   4.506   7.617 -0.2964 -0.5060 -0.5443
10634SOL    HW132745   4.079   4.466   7.550 -1.1092  0.8084 -0.6970
10634SOL    HW232746   4.173   4.581   7.574  0.0522 -0.2844  0.1453
10635SOL     OW32747   5.177   0.947   1.722  0.5881 -0.0291  0.3726
10635SOL    HW132748   5.162   0.943   1.817  1.7575  1.0255  0.6156
10635SOL    HW232749   5.138   0.866   1.689 -0.9989  0.1841  1.5791
10636SOL     OW32750   6.083   6.104   6.977  0.2282 -0.1093 -0.9421
10636SOL    HW132751   6.059   6.114   6.885  3.0659  1.2715 -1.6364
10636SOL    HW232752   6.030   6.170   7.023  1.1162  1.4722 -2.0911
10637SOL     OW32753   2.216   7.182   6.288  0.4825  0.2964  0.6056
10637SOL    HW132754   2.298   7.218   6.252  0.3069 -0.5095 -0.6880
10637SOL    HW232755   2.224   7.194   6.382  2.2665 -0.0960  0.5445
10638SOL     OW32756   4.415   2.351   4.375 -0.8670  0.1096 -0.1123
10638SOL    HW132757   4.347   2.338   4.441  0.1176 -0.6521  0.7887
10638SOL    HW232758   4.421   2.268   4.329 -2.1499  0.9009 -1.7994
10639SOL     OW32759   7.625   7.003   4.329  0.5799  0.2751 -0.3063
10639SOL    HW132760   7.672   7.081   4.360  1.9343 -0.9765  0.9479
10639SOL    HW232761   7.533   7.030   4.325  0.3060  0.8246  4.2848
10640SOL     OW32762   2.266   4.227   1.719  0.4374 -0.1280  0.1318
10640SOL    HW132763   2.224   4.217   1.633  1.9271  1.6181 -0.8688
10640SOL    HW232764   2.246   4.317   1.745 -0.2078 -0.7084  1.7959
10641SOL     OW32765   7.649   4.424   1.994 -0.0167  0.0178 -0.0263
10641SOL    HW132766   7.737   4.387   1.995 -0.8478 -2.1412 -0.5376
10641SOL    HW232767   7.641   4.469   2.079  0.8266 -1.6913  1.0228
10642SOL     OW32768   5.018   4.769   3.953 -0.1581 -0.4943  0.5434
10642SOL    HW132769   5.042   4.747   4.043 -0.3009 -0.4320  0.5956
10642SOL    HW232770   4.997   4.862   3.956 -0.0155 -0.4571  0.4151
10643SOL     OW32771   1.624   8.211   0.603 -0.3141 -0.8810 -0.0376
10643SOL    HW132772   1.676   8.156   0.661  0.2338  0.0770  0.3964
10643SOL    HW232773   1.683   8.234   0.531 -0.3574 -0.4132  0.0691
10644SOL     OW32774   6.741   7.854   7.591 -0.3392  0.4820  0.1686
10644SOL    HW132775   6.732   7.922   7.657 -0.9637  0.1997  0.3793
10644SOL    HW232776   6.652   7.831   7.567 -0.1202  0.3004 -0.4825
10645SOL     OW32777   7.302   0.255   6.335  0.2160  0.1021 -0.6383
10645SOL    HW132778   7.356   0.240   6.258 -0.0424  0.1376 -0.8273
10645SOL    HW232779   7.224   0.299   6.302 -0.0752 -0.2350 -0.4149
10646SOL     OW32780   0.357   1.761   0.885  0.2680  0.0285  0.6742
10646SOL    HW132781   0.448   1.753   0.857  0.0396  0.8089 -0.3672
10646SOL    HW232782   0.308   1.774   0.804 -0.6503  0.5967  1.3007
10647SOL     OW32783   6.280   1.302   6.750 -0.4408  0.4372  0.3181
10647SOL    HW132784   6.300   1.371   6.687  0.3613  1.6624  1.8477
10647SOL    HW232785   6.202   1.332   6.795 -0.1662  0.2934  0.8994
10648SOL     OW32786   5.258   1.436   6.152 -0.0415 -0.4510 -0.3358
10648SOL    HW132787   5.238   1.363   6.093 -0.1955  0.0455 -0.9084
10648SOL    HW232788   5.329   1.403   6.208 -1.3018 -1.6606  0.6094
10649SOL     OW32789   1.977   4.017   7.283 -0.2715 -0.3963  0.5854
10649SOL    HW132790   1.948   4.107   7.270  0.8835  0.0555  1.0518
10649SOL    HW232791   1.903   3.974   7.326 -0.5421  0.5289  1.0709
10650SOL     OW32792   1.534   6.541   6.804 -0.0550 -0.9922  0.0954
10650SOL    HW132793   1.604   6.510   6.861  0.9660  1.6937  0.4470
10650SOL    HW232794   1.565   6.522   6.716  0.4512 -1.0906  0.2916
10651SOL     OW32795   7.680   0.410   5.046  0.3758 -0.0056 -0.3991
10651SOL    HW132796   7.593   0.449   5.038  0.1953 -0.7249 -2.4137
10651SOL    HW232797   7.740   0.484   5.034  0.0348  0.2493 -0.5585
10652SOL     OW32798   1.568   6.047   2.463 -0.1055 -0.3205  0.2268
10652SOL    HW132799   1.473   6.037   2.460 -0.2090  0.4158  0.7541
10652SOL    HW232800   1.596   5.986   2.531 -0.0835 -1.2493 -0.5935
10653SOL     OW32801   2.409   1.041   6.712  0.0851 -0.2354  0.5673
10653SOL    HW132802   2.436   0.955   6.746 -0.9115 -1.9575 -2.5963
10653SOL    HW232803   2.319   1.027   6.682  0.3608  1.5184 -1.2704
10654SOL     OW32804   8.151   6.270   1.246 -1.1283  0.0260 -0.1136
10654SOL    HW132805   8.175   6.177   1.254 -0.8082  0.0334 -0.9407
10654SOL    HW232806   8.234   6.315   1.236 -1.1555  0.6001  1.8885
10655SOL     OW32807   7.721   7.138   4.587  0.4895 -0.2555 -0.1797
10655SOL    HW132808   7.748   7.210   4.645  1.7990  0.5480 -1.7247
10655SOL    HW232809   7.673   7.181   4.516 -2.9523 -1.4117  1.2116
10656SOL     OW32810   4.486   6.362   8.081 -0.2298 -0.3627  0.1651
10656SOL    HW132811   4.447   6.448   8.096 -0.7403 -0.3627 -1.0171
10656SOL    HW232812   4.412   6.306   8.057  0.2263 -0.8901 -0.0395
10657SOL     OW32813   0.045   8.029   4.129  0.0512 -0.3293 -0.7688
10657SOL    HW132814   0.023   7.967   4.060 -2.5696  0.4956 -0.7955
10657SOL    HW232815   0.112   8.086   4.090  0.5787 -1.5110 -1.6470
10658SOL     OW32816   0.831   5.797   0.342  0.4380 -0.4916 -0.1556
10658SOL    HW132817   0.802   5.820   0.430  0.2110 -1.3466  0.0055
10658SOL    HW232818   0.925   5.814   0.342  0.7082 -1.8253  0.7175
10659SOL     OW32819   2.578   5.133   6.666 -0.2574  0.3840 -0.7031
10659SOL    HW132820   2.550   5.041   6.669 -2.2397  0.9094 -1.3163
10659SOL    HW232821   2.588   5.158   6.758 -1.9438  0.1354 -0.4085
10660SOL     OW32822   0.054   3.785   2.804  0.0589  0.2216 -0.1579
10660SOL    HW132823   0.010   3.838   2.738  0.1213  0.4336 -0.0299
10660SOL    HW232824   0.005   3.703   2.806 -0.8449  0.7731  0.5867
10661SOL     OW32825   3.616   5.544   8.019  0.2122  0.2873  0.1607
10661SOL    HW132826   3.676   5.521   8.090  1.9237 -0.6149 -1.4825
10661SOL    HW232827   3.534   5.567   8.063  0.4122 -2.5568  2.3409
10662SOL     OW32828   6.825   6.551   2.114  0.3065  0.1389  0.0640
10662SOL    HW132829   6.903   6.595   2.079  0.7555 -0.3020  0.4978
10662SOL    HW232830   6.754   6.582   2.058  1.1216 -1.2006 -1.8294
10663SOL     OW32831   2.970   4.547   8.124  0.1567 -0.1916 -0.3002
10663SOL    HW132832   3.049   4.575   8.078  1.2552 -1.7086  0.5791
10663SOL    HW232833   2.922   4.629   8.141  1.5576  0.7660 -0.7928
10664SOL     OW32834   5.068   7.052   1.499  0.0655  0.2527  0.6418
10664SOL    HW132835   4.979   7.017   1.503 -1.7348  3.4254 -3.3359
10664SOL    HW232836   5.123   6.977   1.478 -2.2138 -1.3298 -0.0668
10665SOL     OW32837   6.089   0.527   3.743  0.1170 -0.0436 -0.0190
10665SOL    HW132838   6.164   0.475   3.770 -0.3059 -0.9256 -0.5105
10665SOL    HW232839   6.086   0.600   3.805 -1.6603 -2.6761  3.3120
10666SOL     OW32840   6.575   0.494   2.269  0.4881 -0.6421 -0.1578
10666SOL    HW132841   6.526   0.500   2.187  1.5553 -0.8308 -0.8288
10666SOL    HW232842   6.584   0.585   2.298  1.4198 -0.4398 -1.0569
10667SOL     OW32843   2.157   4.577   5.753  0.4183 -0.2591 -0.3077
10667SOL    HW132844   2.187   4.535   5.833 -0.5197  0.2863  0.3550
10667SOL    HW232845   2.129   4.505   5.697 -1.6186 -0.5517  0.9962
10668SOL     OW32846   4.159   3.745   6.078 -0.1850  0.9907  0.0425
10668SOL    HW132847   4.145   3.728   5.984 -0.5884  0.2327  0.2351
10668SOL    HW232848   4.071   3.760   6.113 -0.1493  0.2065  0.4957
10669SOL     OW32849   6.467   7.082   7.420  0.2893  1.0540  0.3497
10669SOL    HW132850   6.504   7.103   7.506  1.6743  0.9958 -0.2080
10669SOL    HW232851   6.541   7.051   7.368 -0.7480 -0.1599 -0.4874
10670SOL     OW32852   1.156   0.497   4.089  0.5580 -0.2551 -0.3076
10670SOL    HW132853   1.222   0.493   4.158  1.5785 -0.1338 -1.2427
10670SOL    HW232854   1.072   0.495   4.135  1.2145  0.1411  0.9467
10671SOL     OW32855   3.432   3.710   7.784 -0.1110  0.1178 -0.1114
10671SOL    HW132856   3.371   3.645   7.748  0.0955 -0.4976  0.6230
10671SOL    HW232857   3.440   3.776   7.715 -2.3401  0.7217  0.1196
10672SOL     OW32858   7.955   5.244   1.984 -0.2036  0.0583 -0.2203
10672SOL    HW132859   7.939   5.332   2.018 -0.1024  0.6799 -1.7303
10672SOL    HW232860   8.035   5.252   1.933  0.5042 -1.2077  0.6316
10673SOL     OW32861   3.880   5.665   4.973 -0.6622  0.2067 -0.3395
10673SOL    HW132862   3.912   5.653   4.883 -0.0742  1.6142 -0.3456
10673SOL    HW232863   3.844   5.580   4.997 -0.0009 -0.4573 -1.5840
10674SOL     OW32864   6.997   2.743   1.375 -0.0020  0.0499  0.3234
10674SOL    HW132865   7.031   2.828   1.349  2.2321 -1.3067 -1.6372
10674SOL    HW232866   6.909   2.740   1.337  0.1793  1.2174 -0.2300
10675SOL     OW32867   7.362   4.022   1.376  0.0681  0.4833 -0.1111
10675SOL    HW132868   7.447   4.049   1.340  0.0776  0.5504 -0.0377
10675SOL    HW232869   7.305   4.098   1.364 -0.6076 -0.2748 -2.1684
10676SOL     OW32870   0.450   2.244   5.697 -0.2198  0.7056 -0.3049
10676SOL    HW132871   0.536   2.286   5.691  0.6565 -1.0821 -1.0175
10676SOL    HW232872   0.469   2.154   5.722 -1.7206 -0.2079 -2.1984
10677SOL     OW32873   3.160   3.391   2.926 -0.2128 -0.2985 -0.3835
10677SOL    HW132874   3.079   3.360   2.966 -0.3518 -0.2194 -0.5980
10677SOL    HW232875   3.133   3.465   2.871  0.3667  1.4035  1.5049
10678SOL     OW32876   6.820   5.420   2.142  0.2399  0.0128 -0.5422
10678SOL    HW132877   6.803   5.341   2.091  0.4469  0.5185 -1.4021
10678SOL    HW232878   6.744   5.476   2.127  0.1010 -0.0043  0.0524
10679SOL     OW32879   4.673   0.050   4.124  0.1798  0.2853  0.0825
10679SOL    HW132880   4.708   0.076   4.209  1.0699  3.4275 -1.1257
10679SOL    HW232881   4.721  -0.030   4.103  2.9834  1.6539  0.7876
10680SOL     OW32882   1.832   1.497   0.971 -0.3861 -0.0716 -0.0585
10680SOL    HW132883   1.922   1.508   1.001  0.2348 -0.1861 -1.7879
10680SOL    HW232884   1.788   1.578   0.998  0.3151  0.1343  0.5025
10681SOL     OW32885   7.195   2.421   2.979  0.0609  0.1152  0.3380
10681SOL    HW132886   7.162   2.506   2.949  0.0242  0.5959  1.6829
10681SOL    HW232887   7.183   2.363   2.904  1.2062  1.5612 -1.0339
10682SOL     OW32888   0.871   8.204   0.184 -0.2838  0.1067 -0.3601
10682SOL    HW132889   0.920   8.146   0.126 -0.9607  1.2742 -2.2057
10682SOL    HW232890   0.787   8.217   0.139 -0.5717  1.6195  0.5445
10683SOL     OW32891   7.352   2.882   4.193 -0.5799  0.5922 -0.2209
10683SOL    HW132892   7.265   2.864   4.156 -1.8128  0.1360  2.5918
10683SOL    HW232893   7.380   2.962   4.150 -1.5205 -0.2730 -2.5863
10684SOL     OW32894   1.046   0.814   3.447  0.5517  0.1665 -0.3674
10684SOL    HW132895   1.102   0.892   3.443 -0.6945  1.0404 -1.3426
10684SOL    HW232896   1.093   0.749   3.395  1.8983  0.0316  0.9475
10685SOL     OW32897   1.670   5.720   7.432  0.0561 -0.1088 -0.0225
10685SOL    HW132898   1.631   5.690   7.350 -2.1100 -1.4591  1.3943
10685SOL    HW232899   1.654   5.814   7.434 -1.0257 -0.2711 -0.5716
10686SOL     OW32900   1.735   2.675   7.449  1.2392  0.5374  0.2264
10686SOL    HW132901   1.648   2.715   7.439  1.0588  0.1880  0.3604
10686SOL    HW232902   1.722   2.584   7.421  1.7637  0.7036 -0.5702
10687SOL     OW32903   5.808   7.163   5.054 -0.3268 -0.7068  0.0613
10687SOL    HW132904   5.831   7.243   5.101 -0.7508 -1.6107  1.9134
10687SOL    HW232905   5.831   7.092   5.115  0.6082 -2.0540 -1.7613
10688SOL     OW32906   3.850   8.167   5.443  0.1749 -0.1588 -0.5412
10688SOL    HW132907   3.758   8.143   5.445  0.5753 -1.8159  1.4851
10688SOL    HW232908   3.853   8.258   5.473 -0.9219  0.6821 -2.7643
10689SOL     OW32909   0.438   3.666   7.316 -0.2925 -0.0091 -0.0380
10689SOL    HW132910   0.353   3.709   7.306  0.8353  2.0547 -1.4083
10689SOL    HW232911   0.486   3.689   7.237  1.3141 -1.7444  0.3706
10690SOL     OW32912   0.232   4.756   2.744 -0.3242 -0.1851 -0.3170
10690SOL    HW132913   0.261   4.743   2.654 -0.0822 -0.6387 -0.1756
10690SOL    HW232914   0.305   4.802   2.786 -0.4826  0.1252 -0.3796
10691SOL     OW32915   1.613   7.890   3.952  0.4238  0.2693 -0.0121
10691SOL    HW132916   1.618   7.860   4.043 -0.7120 -0.1150 -0.0685
10691SOL    HW232917   1.589   7.812   3.902  0.4730  0.6080 -0.5740
10692SOL     OW32918   7.921   0.923   5.855 -0.2903 -0.0555  0.2726
10692SOL    HW132919   7.953   0.913   5.945 -0.5599 -0.4090  0.3283
10692SOL    HW232920   7.871   1.004   5.856  0.1093  0.1961  0.3251
10693SOL     OW32921   3.395   2.758   6.052  0.3116 -0.4185 -0.5337
10693SOL    HW132922   3.361   2.702   5.982 -1.7387  0.2648 -0.1659
10693SOL    HW232923   3.482   2.723   6.070 -0.5382 -3.0040 -0.8681
10694SOL     OW32924   2.919   2.668   5.656  0.0586  0.5356 -0.2600
10694SOL    HW132925   2.883   2.720   5.727  1.4579  0.7648  0.3179
10694SOL    HW232926   2.988   2.723   5.618  0.3524 -0.1835 -0.8083
10695SOL     OW32927   6.640   3.205   1.331 -0.1404  0.2274 -0.0437
10695SOL    HW132928   6.563   3.162   1.369 -0.0612 -0.1726 -0.3236
10695SOL    HW232929   6.672   3.142   1.266  0.0882  0.6378 -0.3299
10696SOL     OW32930   3.243   1.284   7.518 -0.6107  0.2054  0.2305
10696SOL    HW132931   3.206   1.277   7.606 -1.8646  1.7401 -0.1346
10696SOL    HW232932   3.337   1.278   7.530 -0.8114 -0.5935  1.5556
10697SOL     OW32933   3.065   2.162   5.081  0.4707  0.3204  0.1123
10697SOL    HW132934   2.993   2.197   5.134  1.1010  1.6108  0.1601
10697SOL    HW232935   3.071   2.070   5.107 -2.7712 -0.5589 -1.7025
10698SOL     OW32936   3.172   4.821   5.623  0.3403  0.0288  0.1833
10698SOL    HW132937   3.187   4.771   5.542 -2.2697  0.9307 -0.9524
10698SOL    HW232938   3.146   4.755   5.687 -0.3401 -0.4059 -0.5196
10699SOL     OW32939   7.886   0.930   3.661 -0.1864  0.0824  0.4584
10699SOL    HW132940   7.914   0.839   3.672 -0.4203 -0.0285  0.1354
10699SOL    HW232941   7.942   0.979   3.721 -0.1965 -0.2971  0.7814
10700SOL     OW32942   6.521   1.687   5.635 -0.1996 -0.1992  0.1402
10700SOL    HW132943   6.575   1.743   5.691 -1.5427  0.7869  0.4928
10700SOL    HW232944   6.535   1.722   5.547 -0.2419  0.0593  0.2331
10701SOL     OW32945   6.636   1.579   5.010 -0.1786 -0.0591 -0.2060
10701SOL    HW132946   6.613   1.549   4.922 -3.0445 -0.3661  0.5598
10701SOL    HW232947   6.590   1.662   5.019 -0.6702 -0.4686  1.3023
10702SOL     OW32948   5.782   5.345   0.896  0.0625 -0.3996  0.4486
10702SOL    HW132949   5.712   5.407   0.875  0.7106  0.2728  0.2076
10702SOL    HW232950   5.738   5.273   0.940 -0.5741  0.7372  1.7551
10703SOL     OW32951   7.189   4.028   6.578  0.0131 -0.2652  0.0502
10703SOL    HW132952   7.281   4.014   6.555  0.0398 -0.8455  0.4859
10703SOL    HW232953   7.177   3.977   6.658 -0.8436 -0.6482 -0.3194
10704SOL     OW32954   6.187   0.531   6.345 -0.1487  0.1160 -0.1309
10704SOL    HW132955   6.258   0.595   6.351  0.8502 -0.7802 -1.6184
10704SOL    HW232956   6.112   0.574   6.387  0.4284  2.3497 -1.2159
10705SOL     OW32957   3.206   4.999   4.039 -0.3342 -0.9228  1.2085
10705SOL    HW132958   3.122   4.974   4.002  0.0985 -2.3336  1.1112
10705SOL    HW232959   3.239   5.067   3.980 -1.7430  0.2637  1.7191
10706SOL     OW32960   0.612   3.457   3.772 -0.2645 -0.2855  0.3297
10706SOL    HW132961   0.551   3.522   3.737  0.3357  0.0826 -0.0391
10706SOL    HW232962   0.686   3.459   3.712  0.7108  0.2215  1.5089
10707SOL     OW32963   5.631   2.100   2.685 -0.1011  0.5117 -0.0698
10707SOL    HW132964   5.703   2.155   2.654  0.4538  0.5913  1.2867
10707SOL    HW232965   5.637   2.021   2.632  0.6110  0.7633 -0.3857
10708SOL     OW32966   0.857   6.436   4.310 -0.1361  0.2034 -0.1965
10708SOL    HW132967   0.795   6.494   4.267  0.6798  0.9489 -0.3912
10708SOL    HW232968   0.807   6.394   4.380 -1.0682  0.1549 -0.8683
10709SOL     OW32969   7.076   4.148   6.897 -0.2989  0.0496 -0.3652
10709SOL    HW132970   7.023   4.217   6.935  0.9230 -0.0758  1.7280
10709SOL    HW232971   7.067   4.074   6.958 -0.5024 -1.1948 -1.8278
10710SOL     OW32972   6.208   3.896   7.184  0.0606 -0.2609 -0.6307
10710SOL    HW132973   6.301   3.900   7.207  0.3390 -1.7629 -1.3934
10710SOL    HW232974   6.172   3.980   7.213  1.3724 -0.1853  0.8943
10711SOL     OW32975   7.563   7.923   2.439 -0.2274  0.6152 -0.0597
10711SOL    HW132976   7.570   7.998   2.379 -0.3664  1.4348  0.9044
10711SOL    HW232977   7.646   7.878   2.431  0.7848  2.1849  0.9762
10712SOL     OW32978   3.473   7.474   3.226 -0.6424  1.0667 -0.2274
10712SOL    HW132979   3.461   7.433   3.140 -0.9322 -2.0543  1.1720
10712SOL    HW232980   3.563   7.505   3.225  0.0700 -0.8476 -0.9739
10713SOL     OW32981   6.119   6.420   2.383 -0.5325  0.0404 -0.2478
10713SOL    HW132982   6.188   6.485   2.387 -0.1985 -0.3287  0.0600
10713SOL    HW232983   6.156   6.350   2.328 -1.2076  0.4896 -1.2992
10714SOL     OW32984   1.770   3.798   3.706 -0.1408 -0.1956  0.1787
10714SOL    HW132985   1.819   3.865   3.659  0.3378  0.7920  2.0269
10714SOL    HW232986   1.806   3.798   3.794 -1.4608 -1.5353  0.7694
10715SOL     OW32987   3.382   1.858   2.021  0.1420  0.3426  0.3582
10715SOL    HW132988   3.291   1.852   2.049 -0.1677  0.6628 -0.5414
10715SOL    HW232989   3.432   1.831   2.097 -0.7054  0.1606  0.8668
10716SOL     OW32990   7.884   3.111   4.567 -0.3360  0.1587  0.2505
10716SOL    HW132991   7.851   3.047   4.629  0.0545  0.1319  0.4299
10716SOL    HW232992   7.910   3.059   4.490 -0.4261  0.1482  0.2270
10717SOL     OW32993   0.842   4.142   8.137 -0.5206 -0.0214 -0.3539
10717SOL    HW132994   0.870   4.121   8.226 -0.6855  1.7298  0.1519
10717SOL    HW232995   0.747   4.156   8.145 -0.4910  0.4369 -0.7242
10718SOL     OW32996   1.685   7.918   2.067 -0.7672 -0.5377 -0.2601
10718SOL    HW132997   1.760   7.876   2.109 -0.1406  0.4083 -0.4037
10718SOL    HW232998   1.677   7.874   1.983 -0.4893 -0.7634 -0.1714
10719SOL     OW32999   8.052   3.715   0.923  0.1992  0.5121  0.0080
10719SOL    HW133000   8.085   3.678   0.840 -2.7367 -0.0888 -1.0202
10719SOL    HW233001   8.111   3.680   0.989  0.5340 -2.0330 -1.4800
10720SOL     OW33002   7.137   5.057   5.329 -0.0572 -0.3186 -0.1862
10720SOL    HW133003   7.227   5.037   5.355 -0.1793 -2.7143 -1.3207
10720SOL    HW233004   7.087   4.980   5.358 -1.6159  0.6338 -0.2599
10721SOL     OW33005   7.281   1.924   3.506  0.0811 -0.1725 -0.5814
10721SOL    HW133006   7.217   1.874   3.556 -0.0894 -2.2138 -2.7182
10721SOL    HW233007   7.363   1.875   3.516  0.6382  0.7785 -0.3074
10722SOL     OW33008   5.206   6.889   5.764 -0.7587 -0.3587 -0.2790
10722SOL    HW133009   5.118   6.850   5.758 -1.3095  0.9195 -0.9459
10722SOL    HW233010   5.260   6.819   5.801 -2.4313 -0.5854  1.9853
10723SOL     OW33011   0.907   7.393   6.584 -0.9233  0.5195  0.2259
10723SOL    HW133012   1.002   7.403   6.586 -0.7222 -1.1774  2.2888
10723SOL    HW233013   0.893   7.303   6.553 -1.8412  0.5699  0.4742
10724SOL     OW33014   3.750   1.339   7.097  0.6728  0.5738 -0.3321
10724SOL    HW133015   3.706   1.290   7.028  0.8789 -0.7750  0.4498
10724SOL    HW233016   3.843   1.323   7.082  0.7858  1.4118 -0.5478
10725SOL     OW33017   1.803   0.063   0.403 -0.2040 -0.0629 -0.3346
10725SOL    HW133018   1.788   0.157   0.392 -1.0837 -0.0719  0.6444
10725SOL    HW233019   1.883   0.046   0.353  1.0183  1.5560  0.9570
10726SOL     OW33020   3.243   3.327   2.452 -0.7758 -0.0389 -0.1424
10726SOL    HW133021   3.217   3.308   2.542  0.4288  1.0401  0.4535
10726SOL    HW233022   3.275   3.244   2.418 -0.7607 -0.3420  0.5931
10727SOL     OW33023   5.527   1.298   0.240 -0.2893  0.7595  0.4313
10727SOL    HW133024   5.491   1.240   0.173 -1.6435  0.8080  1.0721
10727SOL    HW233025   5.597   1.345   0.196 -0.2863 -0.1430 -0.5752
10728SOL     OW33026   6.654   5.831   0.639  0.3493 -0.4458 -0.0472
10728SOL    HW133027   6.739   5.798   0.608  1.1149 -0.7373  2.2136
10728SOL    HW233028   6.590   5.774   0.596  1.1891  0.2165 -2.3459
10729SOL     OW33029   3.018   3.488   6.099  0.0272 -0.6789 -0.5074
10729SOL    HW133030   3.067   3.512   6.020 -0.2265  0.5856 -0.2911
10729SOL    HW233031   2.945   3.550   6.102  0.5448 -0.1144  1.2127
10730SOL     OW33032   0.045   6.818   5.317  0.4706  0.2204 -0.2392
10730SOL    HW133033   0.024   6.911   5.326 -0.9610 -0.2569  2.8121
10730SOL    HW233034   0.020   6.795   5.227 -1.7792  2.2089 -0.2165
10731SOL     OW33035   2.519   6.934   2.325 -0.1126 -0.3375 -0.1006
10731SOL    HW133036   2.556   7.018   2.352  0.9210 -1.0665  0.8285
10731SOL    HW233037   2.491   6.948   2.235 -1.3932  1.4479  0.5045
10732SOL     OW33038   2.471   1.752   5.885 -0.2642 -0.4386 -0.5254
10732SOL    HW133039   2.515   1.674   5.919  1.0571 -0.1572 -1.5385
10732SOL    HW233040   2.528   1.824   5.911 -1.0705  0.1239 -0.2905
10733SOL     OW33041   1.395   6.585   7.402 -0.1702  0.5018  0.2385
10733SOL    HW133042   1.474   6.533   7.385 -1.0103 -0.1129 -2.2839
10733SOL    HW233043   1.428   6.669   7.433  1.6387  0.7361 -1.9878
10734SOL     OW33044   0.751   3.308   7.389 -0.2436  0.1255 -0.4326
10734SOL    HW133045   0.716   3.376   7.447  1.5520  0.9516 -0.2574
10734SOL    HW233046   0.692   3.309   7.313 -1.2805  0.6218  0.3556
10735SOL     OW33047   3.536   1.282   7.507 -0.6559  0.8277  0.3029
10735SOL    HW133048   3.604   1.286   7.574  0.2239  0.5579 -0.5571
10735SOL    HW233049   3.553   1.357   7.451  0.0979 -0.2746 -0.9905
10736SOL     OW33050   5.558   2.780   3.460 -0.3550  0.0655 -0.3226
10736SOL    HW133051   5.633   2.823   3.419  1.1639 -0.4502  1.7403
10736SOL    HW233052   5.498   2.851   3.484  0.3277  0.6634 -0.3681
10737SOL     OW33053   6.210   1.004   0.376 -0.1464  0.0897  0.1076
10737SOL    HW133054   6.279   1.013   0.442  0.4598  0.3248 -0.5458
10737SOL    HW233055   6.219   1.083   0.322 -1.4500  0.5197  0.4965
10738SOL     OW33056   5.739   1.253   8.082  0.2245 -0.3386 -0.0952
10738SOL    HW133057   5.692   1.183   8.037 -0.1579  1.3025 -2.4657
10738SOL    HW233058   5.672   1.318   8.103  0.7003 -0.2451  1.1896
10739SOL     OW33059   1.222   6.145   5.568 -0.1846 -0.1678 -0.1738
10739SOL    HW133060   1.288   6.196   5.616  2.6173 -3.2346 -0.3621
10739SOL    HW233061   1.249   6.153   5.476 -2.4481  1.5261 -0.7695
10740SOL     OW33062   1.527   0.658   1.259  0.7024  0.6306  0.3660
10740SOL    HW133063   1.445   0.662   1.308  0.8598  2.8756  0.5222
10740SOL    HW233064   1.586   0.719   1.303  1.5697  1.0967 -1.3380
10741SOL     OW33065   4.032   1.537   1.953 -1.0977  0.3468 -0.3940
10741SOL    HW133066   4.125   1.517   1.945 -1.1038 -1.1714  2.2573
10741SOL    HW233067   4.001   1.542   1.863  1.4849  0.6342 -1.3398
10742SOL     OW33068   2.504   5.879   4.100 -0.2565 -0.0404  0.1874
10742SOL    HW133069   2.478   5.829   4.023  1.8326  0.3486 -0.8398
10742SOL    HW233070   2.426   5.880   4.155 -1.0677 -2.4589 -0.7743
10743SOL     OW33071   6.305   2.351   0.729  0.8318 -0.4672 -0.3733
10743SOL    HW133072   6.294   2.362   0.823  1.9339  1.0682 -0.3727
10743SOL    HW233073   6.217   2.332   0.696  0.5232 -1.5671  1.0086
10744SOL     OW33074   3.431   3.414   4.837 -0.5196  0.1149  0.0779
10744SOL    HW133075   3.483   3.350   4.789 -1.7561 -0.3166 -0.7192
10744SOL    HW233076   3.344   3.410   4.798 -1.3409  0.3920  1.7577
10745SOL     OW33077   5.392   1.134   3.483 -0.7016  0.6318  0.7276
10745SOL    HW133078   5.320   1.189   3.453  1.3898  3.4563  0.3917
10745SOL    HW233079   5.362   1.044   3.470 -2.4193  1.6037 -3.9009
10746SOL     OW33080   4.448   4.442   1.162 -0.2608  0.4193  0.0792
10746SOL    HW133081   4.374   4.389   1.133  1.1942 -2.2111  0.8774
10746SOL    HW233082   4.419   4.479   1.245 -0.1499 -1.9929  1.2642
10747SOL     OW33083   2.678   2.967   3.850  1.1316 -0.0353  0.2980
10747SOL    HW133084   2.617   2.942   3.919  0.0910 -0.5780 -0.7847
10747SOL    HW233085   2.736   3.031   3.891 -0.5563  0.9874  1.1993
10748SOL     OW33086   2.316   4.394   4.961  0.2288  0.8172 -0.2144
10748SOL    HW133087   2.353   4.378   4.874  0.3272 -0.4279  0.0393
10748SOL    HW233088   2.331   4.487   4.977 -0.1592  1.1663 -1.6976
10749SOL     OW33089   1.223   1.780   5.117  0.2742  0.1305  0.1102
10749SOL    HW133090   1.214   1.861   5.169  0.3809  0.1218  0.1429
10749SOL    HW233091   1.180   1.713   5.171  3.5082 -0.6717  1.9907
10750SOL     OW33092   3.955   3.906   4.312  0.3510  0.0545 -0.2670
10750SOL    HW133093   3.907   3.988   4.321  4.7176  3.0613 -0.9658
10750SOL    HW233094   3.969   3.897   4.218 -1.8334 -2.8596 -0.4350
10751SOL     OW33095   4.384   7.671   4.535 -0.2490 -0.4072 -0.1872
10751SOL    HW133096   4.409   7.601   4.475  2.8067 -0.2851  0.7596
10751SOL    HW233097   4.295   7.696   4.508 -0.2496 -2.5421 -2.4863
10752SOL     OW33098   4.545   3.659   2.838  0.1485  0.1957 -0.4903
10752SOL    HW133099   4.493   3.723   2.886 -0.4435  0.2556 -1.1983
10752SOL    HW233100   4.630   3.701   2.827 -0.0239  0.5834 -0.3648
10753SOL     OW33101   4.249   4.321   0.401  0.1296  0.2791 -0.0209
10753SOL    HW133102   4.237   4.416   0.399 -2.6455  0.1673  3.0649
10753SOL    HW233103   4.174   4.286   0.353 -0.6406 -0.2907  1.5110
10754SOL     OW33104   1.130   5.875   0.485 -0.1645 -0.3827  0.2994
10754SOL    HW133105   1.211   5.888   0.437  0.0369  1.0317  0.9743
10754SOL    HW233106   1.078   5.954   0.468 -0.9309 -0.7715  0.7596
10755SOL     OW33107   0.568   1.088   6.861 -0.0396 -0.1884 -0.1209
10755SOL    HW133108   0.522   1.115   6.941  1.6751  0.6569  0.6234
10755SOL    HW233109   0.563   1.164   6.804  1.0054  0.1506  0.2323
10756SOL     OW33110   0.866   7.801   1.743  0.5136 -0.0925  0.0713
10756SOL    HW133111   0.928   7.755   1.688 -0.7281  3.0249 -4.5277
10756SOL    HW233112   0.780   7.767   1.717 -0.1009 -0.3740  2.2023
10757SOL     OW33113   1.516   3.456   7.094  0.2414  0.1860 -0.2909
10757SOL    HW133114   1.472   3.397   7.032  1.6586  0.5556 -1.7060
10757SOL    HW233115   1.597   3.410   7.117  0.0598  0.3689  0.7838
10758SOL     OW33116   7.709   0.867   7.326 -0.3293 -0.2933 -0.0131
10758SOL    HW133117   7.711   0.956   7.291 -0.1971  0.2105  1.2235
10758SOL    HW233118   7.680   0.813   7.253  0.9355  0.5611 -1.1801
10759SOL     OW33119   1.642   4.772   2.219 -0.2841 -0.6283  0.4246
10759SOL    HW133120   1.553   4.798   2.242 -0.9455 -3.0820  0.9667
10759SOL    HW233121   1.636   4.745   2.127  0.3147  0.8100 -0.0509
10760SOL     OW33122   3.838   0.514   0.878 -0.5022 -0.0694 -0.7415
10760SOL    HW133123   3.815   0.603   0.904 -0.1461 -0.2169  0.1175
10760SOL    HW233124   3.774   0.491   0.811 -1.5932  0.2392  0.1738
10761SOL     OW33125   1.423   3.616   4.903 -0.2359  0.4259  0.6316
10761SOL    HW133126   1.388   3.682   4.963 -0.7650  0.8260 -0.0990
10761SOL    HW233127   1.517   3.637   4.896  0.1668 -0.5454  2.4627
10762SOL     OW33128   4.274   4.500   0.898  0.3169  0.3453  0.0734
10762SOL    HW133129   4.349   4.472   0.845 -0.1839 -0.3300 -0.2849
10762SOL    HW233130   4.206   4.520   0.834  0.8697  3.2226  0.2157
10763SOL     OW33131   1.518   0.805   0.889 -0.0591 -0.4628 -0.4328
10763SOL    HW133132   1.573   0.881   0.869  1.4022 -1.2492  0.3733
10763SOL    HW233133   1.482   0.779   0.804 -1.9763  2.0651 -0.5108
10764SOL     OW33134   8.116   1.571   0.666  0.0427  0.1907 -0.3521
10764SOL    HW133135   8.063   1.553   0.589 -0.8633 -0.2995  0.3702
10764SOL    HW233136   8.127   1.487   0.709  4.0370 -0.3776 -2.0282
10765SOL     OW33137   0.106   7.448   3.455 -0.4124  0.4507  0.1718
10765SOL    HW133138   0.160   7.372   3.476 -0.2410  0.2441 -0.9343
10765SOL    HW233139   0.043   7.416   3.391 -0.3107  1.2350 -0.3479
10766SOL     OW33140   5.636   4.934   3.118 -0.9818  0.1438 -0.3003
10766SOL    HW133141   5.715   4.987   3.110 -0.7085 -0.4349 -1.5882
10766SOL    HW233142   5.649   4.861   3.058 -0.8321 -2.0920  2.2779
10767SOL     OW33143   0.400   0.256   6.833  0.5152  0.1434  0.0507
10767SOL    HW133144   0.416   0.302   6.915 -1.8957 -0.0270  0.6970
10767SOL    HW233145   0.457   0.299   6.769  1.8028  0.8510  1.6102
10768SOL     OW33146   3.412   0.622   4.711  0.0198 -0.6209  1.0390
10768SOL    HW133147   3.463   0.550   4.673 -1.1427 -0.8617 -0.1658
10768SOL    HW233148   3.360   0.581   4.780 -1.5312 -1.2499 -0.4267
10769SOL     OW33149   5.267   4.455   3.931 -0.0240 -0.0275  0.2000
10769SOL    HW133150   5.263   4.383   3.868 -0.6738  0.2852 -0.1265
10769SOL    HW233151   5.244   4.533   3.880  1.3469  0.5341  0.3789
10770SOL     OW33152   3.890   4.866   3.102  0.1160 -0.5434 -0.0843
10770SOL    HW133153   3.931   4.909   3.178  0.7150 -0.2126 -0.5872
10770SOL    HW233154   3.818   4.924   3.078  0.4031 -0.2464 -0.2389
10771SOL     OW33155   4.032   1.270   7.105 -0.2623 -0.2016  0.2227
10771SOL    HW133156   4.109   1.309   7.144  0.9843 -1.5257 -0.7662
10771SOL    HW233157   3.996   1.213   7.173  0.4236 -0.5748  0.2849
10772SOL     OW33158   7.988   7.665   0.686  0.2294 -0.3542 -0.0027
10772SOL    HW133159   8.000   7.597   0.620  0.8989 -1.7578  1.4660
10772SOL    HW233160   8.077   7.696   0.704 -0.0880  1.0491 -0.7651
10773SOL     OW33161   2.440   4.943   0.332  0.0921 -0.0966 -0.1181
10773SOL    HW133162   2.409   5.026   0.368 -1.6793 -0.9368  0.4194
10773SOL    HW233163   2.416   4.946   0.239  1.1513  0.4641 -0.3959
10774SOL     OW33164   6.348   3.854   2.568 -0.4561 -0.1265  0.0434
10774SOL    HW133165   6.428   3.803   2.570  0.2600  0.9492 -0.4468
10774SOL    HW233166   6.376   3.945   2.580 -1.8260  0.0851  2.6189
10775SOL     OW33167   0.319   5.763   1.923 -0.6005  0.1981  0.1566
10775SOL    HW133168   0.258   5.692   1.945 -0.2198 -0.0350  0.4776
10775SOL    HW233169   0.313   5.772   1.828 -2.2060  1.1439  0.3102
10776SOL     OW33170   1.360   1.518   2.787 -0.5189 -0.1888  0.7072
10776SOL    HW133171   1.449   1.546   2.806 -1.3763  1.8504  2.0335
10776SOL    HW233172   1.348   1.438   2.839  0.7378 -0.8872 -0.0527
10777SOL     OW33173   0.491   6.545   1.901 -0.2863  0.1352  0.5305
10777SOL    HW133174   0.492   6.600   1.979 -0.8025  0.0211  0.6203
10777SOL    HW233175   0.558   6.583   1.844 -0.4642  0.7027  0.6926
10778SOL     OW33176   5.608   6.597   4.767  0.3216 -0.2769 -0.1258
10778SOL    HW133177   5.571   6.685   4.759 -0.7909 -0.7838 -0.8758
10778SOL    HW233178   5.633   6.573   4.678  2.5820  0.0692  0.3767
10779SOL     OW33179   2.194   2.785   7.344  0.6154 -0.3577 -0.0248
10779SOL    HW133180   2.283   2.752   7.332  0.4702 -0.6747 -0.2423
10779SOL    HW233181   2.167   2.812   7.256 -0.3030 -2.3030 -0.3903
10780SOL     OW33182   0.872   6.791   4.790 -0.5242 -0.5213 -0.1861
10780SOL    HW133183   0.887   6.753   4.703 -0.5460  1.8451 -1.3019
10780SOL    HW233184   0.780   6.818   4.789 -0.4118 -0.0883  0.3885
10781SOL     OW33185   1.497   0.285   1.310  0.7877  0.7048  0.3087
10781SOL    HW133186   1.466   0.225   1.242 -0.1274  1.1420  0.3269
10781SOL    HW233187   1.585   0.310   1.282  0.2477  1.2484 -0.9913
10782SOL     OW33188   3.769   5.393   4.276  0.4193  0.3774  0.5502
10782SOL    HW133189   3.713   5.339   4.332  1.2695 -1.0349  0.1100
10782SOL    HW233190   3.737   5.377   4.187  2.3213 -1.6333  0.1147
10783SOL     OW33191   4.341   3.203   5.303  0.1950  0.6103 -0.2942
10783SOL    HW133192   4.298   3.286   5.281  0.1190  0.9791  1.1952
10783SOL    HW233193   4.269   3.147   5.332  0.5240  0.7691  0.8544
10784SOL     OW33194   5.911   0.826   4.578  0.3437 -0.0477  0.2108
10784SOL    HW133195   5.998   0.829   4.619 -0.1105 -0.6854  1.2429
10784SOL    HW233196   5.929   0.807   4.486  1.3297  0.4469  0.2873
10785SOL     OW33197   1.020   6.361   3.654 -0.6332  0.0320  0.2695
10785SOL    HW133198   1.080   6.295   3.688 -0.0509  0.8560  0.8861
10785SOL    HW233199   1.034   6.361   3.560 -1.6696 -1.7013  0.0739
10786SOL     OW33200   3.489   2.357   5.490  0.0441  0.3848  0.3504
10786SOL    HW133201   3.577   2.393   5.494 -0.2774  1.2878 -0.3791
10786SOL    HW233202   3.483   2.318   5.403  0.0460 -0.5596  0.7625
10787SOL     OW33203   7.523   2.110   1.664 -0.0253 -0.8064 -0.2571
10787SOL    HW133204   7.529   2.032   1.609  0.7965 -0.2644 -0.9610
10787SOL    HW233205   7.524   2.183   1.602 -0.0925 -0.2123  0.4289
10788SOL     OW33206   7.262   3.276   7.728  0.0788 -0.4845 -0.2489
10788SOL    HW133207   7.190   3.216   7.710  0.4872 -1.4061  1.0676
10788SOL    HW233208   7.224   3.342   7.787 -0.1627  0.1098 -1.0584
10789SOL     OW33209   4.932   3.840   7.881 -0.2669  0.4999 -0.0658
10789SOL    HW133210   4.935   3.934   7.903  1.6731 -0.0188  2.3362
10789SOL    HW233211   4.848   3.810   7.916  0.6134  0.7262  2.4437
10790SOL     OW33212   3.879   6.483   6.832 -0.7450  0.4587 -0.2360
10790SOL    HW133213   3.963   6.462   6.872  0.5757  2.3292 -1.8512
10790SOL    HW233214   3.855   6.404   6.784 -0.4392 -0.4296  1.0133
10791SOL     OW33215   4.072   7.771   7.968  0.1178  0.0610 -0.2896
10791SOL    HW133216   4.002   7.802   8.024 -1.4091  0.5989 -2.3852
10791SOL    HW233217   4.063   7.821   7.887  0.3833 -2.6298 -2.1134
10792SOL     OW33218   4.051   6.828   5.481 -0.2802  0.5396  0.0653
10792SOL    HW133219   4.068   6.870   5.566  0.3394  0.5251 -0.0492
10792SOL    HW233220   4.135   6.830   5.436  0.5159 -3.2300  1.0992
10793SOL     OW33221   0.994   6.523   7.589  0.3628 -0.1353  0.0866
10793SOL    HW133222   1.020   6.484   7.672  0.2425  0.3030  0.3335
10793SOL    HW233223   0.933   6.593   7.613  1.5749  1.0791 -0.2365
10794SOL     OW33224   4.602   1.497   3.356  0.5560  0.1130 -0.0511
10794SOL    HW133225   4.566   1.545   3.282  0.1984 -0.5698 -0.3308
10794SOL    HW233226   4.601   1.560   3.428  1.7302  1.0633 -0.8236
10795SOL     OW33227   7.632   3.102   2.303 -0.1680  0.3882  0.7274
10795SOL    HW133228   7.540   3.129   2.293  0.1543  1.1489 -0.3768
10795SOL    HW233229   7.627   3.011   2.331 -1.2700  0.1649 -0.0997
10796SOL     OW33230   6.960   1.306   5.273 -0.3616  0.1539 -0.0980
10796SOL    HW133231   6.900   1.231   5.267  0.7670 -0.6982 -1.0881
10796SOL    HW233232   6.905   1.381   5.250 -1.4837 -0.3587  0.7703
10797SOL     OW33233   6.256   7.236   6.828  0.5137 -0.1314 -0.0163
10797SOL    HW133234   6.216   7.158   6.867  0.9362 -0.4760 -0.2678
10797SOL    HW233235   6.182   7.295   6.814 -0.2672 -1.4742 -2.1845
10798SOL     OW33236   0.955   4.289   7.287  0.5807 -0.1819  0.1466
10798SOL    HW133237   0.901   4.221   7.247 -0.6480  0.6474  0.3098
10798SOL    HW233238   0.906   4.370   7.271  0.7113  0.3503  2.1481
10799SOL     OW33239   0.281   3.382   3.140 -0.7025  0.3440  0.3393
10799SOL    HW133240   0.315   3.370   3.229 -0.8556  1.2255  0.5248
10799SOL    HW233241   0.272   3.477   3.131  1.8521  0.4986 -1.5656
10800SOL     OW33242   7.860   3.660   4.064 -0.4655  0.3458 -0.6603
10800SOL    HW133243   7.786   3.672   4.123 -1.2040 -0.8740 -1.2937
10800SOL    HW233244   7.932   3.631   4.121 -1.1077 -0.6153 -0.3184
10801SOL     OW33245   1.419   3.311   3.979  0.1433 -0.6605 -0.2486
10801SOL    HW133246   1.391   3.344   3.894 -0.3941 -0.6703 -0.0816
10801SOL    HW233247   1.338   3.307   4.031  0.2333 -1.9671 -0.1798
10802SOL     OW33248   1.287   3.773   2.629  0.0270  1.0672  0.2041
10802SOL    HW133249   1.207   3.734   2.663 -1.4086  3.1823 -0.5604
10802SOL    HW233250   1.324   3.822   2.703  0.1360  0.8142  0.3172
10803SOL     OW33251   7.042   5.513   1.894 -0.2940  0.3874  0.2528
10803SOL    HW133252   7.079   5.437   1.938 -0.6217 -0.4787 -0.9306
10803SOL    HW233253   6.962   5.480   1.852 -1.0757  1.6521  0.6809
10804SOL     OW33254   3.336   2.892   1.923 -0.5236  0.1772  0.2006
10804SOL    HW133255   3.309   2.978   1.955 -0.8149 -0.2027  1.0330
10804SOL    HW233256   3.431   2.897   1.916 -0.3314  0.0049  2.0842
10805SOL     OW33257   7.043   2.175   3.397 -0.5536  0.9036  0.2246
10805SOL    HW133258   7.046   2.086   3.361 -1.3943  0.6672  0.7032
10805SOL    HW233259   7.118   2.219   3.358 -0.0317 -0.0610  0.0896
10806SOL     OW33260   3.002   5.873   4.315  0.6772 -0.6610  0.2703
10806SOL    HW133261   3.074   5.894   4.256  0.9445 -0.2655  0.7295
10806SOL    HW233262   2.932   5.842   4.258  0.8105  0.0395 -0.2892
10807SOL     OW33263   1.713   4.261   3.771  0.3001  0.1121 -0.9474
10807SOL    HW133264   1.680   4.245   3.860  0.9891 -0.0313 -0.7141
10807SOL    HW233265   1.712   4.357   3.763 -0.7273  0.0946 -1.1624
10808SOL     OW33266   8.050   2.828   6.012 -0.0019 -0.6888 -0.4109
10808SOL    HW133267   8.045   2.813   6.107  0.2905  0.0624 -0.2725
10808SOL    HW233268   8.075   2.743   5.976 -0.3180 -1.0347  0.1635
10809SOL     OW33269   5.444   2.290   7.238  0.5413 -0.1194  0.6175
10809SOL    HW133270   5.505   2.338   7.181 -1.5197  0.8496 -0.8852
10809SOL    HW233271   5.364   2.342   7.237  0.1068 -0.5689  3.7549
10810SOL     OW33272   5.200   1.043   8.191 -0.1781 -0.5368  0.0333
10810SOL    HW133273   5.285   1.061   8.231 -0.5750 -0.0786  0.6722
10810SOL    HW233274   5.222   1.021   8.100  0.5763  0.2471  0.0026
10811SOL     OW33275   0.211   1.720   0.609 -0.1569 -0.2423  0.3938
10811SOL    HW133276   0.178   1.809   0.599  1.1962  0.1606 -0.6740
10811SOL    HW233277   0.283   1.713   0.547 -0.4194 -2.1914  0.2323
10812SOL     OW33278   3.992   1.770   6.137 -0.5794  0.4660 -0.0740
10812SOL    HW133279   3.932   1.740   6.069 -0.7298  0.4176  0.0798
10812SOL    HW233280   4.044   1.693   6.160 -0.5935  0.4588 -0.0657
10813SOL     OW33281   1.378   6.035   2.789 -0.6752 -0.0093  0.3684
10813SOL    HW133282   1.323   5.969   2.747 -0.7642  0.0057  0.4596
10813SOL    HW233283   1.332   6.118   2.771 -1.1943 -0.0916  1.2547
10814SOL     OW33284   5.178   1.403   0.336 -0.1636  0.0484  0.6362
10814SOL    HW133285   5.123   1.465   0.383  0.8540  0.0647  1.8636
10814SOL    HW233286   5.207   1.341   0.402 -1.6399 -2.1694 -0.6730
10815SOL     OW33287   2.068   6.678   7.782  0.0903 -0.0727  0.0273
10815SOL    HW133288   2.066   6.759   7.733 -0.3858 -1.9096 -3.2877
10815SOL    HW233289   2.154   6.676   7.823 -0.1084  2.2948  0.7001
10816SOL     OW33290   4.434   5.110   7.484 -0.4523 -0.0150  0.4056
10816SOL    HW133291   4.468   5.090   7.396 -2.0446 -1.3741  0.0440
10816SOL    HW233292   4.419   5.204   7.483 -0.4616 -0.0116 -0.7829
10817SOL     OW33293   3.328   2.334   0.721  0.3115  0.1013  0.3520
10817SOL    HW133294   3.421   2.312   0.714  0.3367  0.2454  0.2277
10817SOL    HW233295   3.299   2.289   0.800  0.6556  0.6600  0.7996
10818SOL     OW33296   6.915   0.656   4.513  0.1838 -0.4427  0.1790
10818SOL    HW133297   6.961   0.738   4.528  1.2814 -0.5955 -1.9228
10818SOL    HW233298   6.856   0.674   4.440  0.0847 -1.3846  0.0066
10819SOL     OW33299   8.166   4.672   2.386  0.2457  0.2309 -0.1301
10819SOL    HW133300   8.206   4.760   2.386  2.6511 -0.7805  0.1396
10819SOL    HW233301   8.122   4.666   2.471 -2.1876  2.0550 -1.1679
10820SOL     OW33302   4.021   6.282   3.473  0.6496 -0.3758  0.6955
10820SOL    HW133303   4.056   6.280   3.384 -1.4698  0.4807 -0.2199
10820SOL    HW233304   4.024   6.190   3.501 -1.1402 -1.1539 -1.3434
10821SOL     OW33305   6.404   6.454   3.675 -0.1112 -0.1455 -0.0294
10821SOL    HW133306   6.487   6.418   3.645  0.2294 -0.5334  1.2842
10821SOL    HW233307   6.344   6.444   3.601  0.1219 -2.8974  0.0544
10822SOL     OW33308   2.513   5.437   3.256  0.2629 -0.6282  0.0646
10822SOL    HW133309   2.433   5.453   3.306  1.7464  1.1280  2.0741
10822SOL    HW233310   2.501   5.488   3.175  0.4199  2.0229  1.6016
10823SOL     OW33311   6.459   1.546   6.094  0.1844 -0.7626  0.4617
10823SOL    HW133312   6.486   1.461   6.130 -0.5298 -0.7051  1.1751
10823SOL    HW233313   6.499   1.610   6.152  2.1639 -0.5237 -1.0781
10824SOL     OW33314   0.324   3.810   5.012  0.2087  0.3237  0.1903
10824SOL    HW133315   0.393   3.793   4.948 -0.4954 -0.5915 -0.3443
10824SOL    HW233316   0.249   3.759   4.982 -0.1262 -0.1986  1.7855
10825SOL     OW33317   6.557   2.328   2.289  0.2026 -0.5854 -0.7754
10825SOL    HW133318   6.593   2.411   2.258  1.0527 -0.8373 -0.4916
10825SOL    HW233319   6.509   2.293   2.214  0.4615 -0.1846 -1.1317
10826SOL     OW33320   1.109   3.172   2.895 -0.3359 -0.5313  0.3185
10826SOL    HW133321   1.111   3.258   2.937 -2.2943 -0.3095  0.0742
10826SOL    HW233322   1.162   3.182   2.816 -0.1517  0.3146  0.5413
10827SOL     OW33323   0.760   0.630   4.849  0.5500  0.2015  0.0250
10827SOL    HW133324   0.733   0.712   4.807 -0.4321 -0.5353 -0.8166
10827SOL    HW233325   0.685   0.605   4.904  0.0095 -1.1557 -1.2731
10828SOL     OW33326   6.841   6.918   0.168  0.0768 -0.3138 -0.0628
10828SOL    HW133327   6.818   6.950   0.256  0.8992 -1.0204  0.4235
10828SOL    HW233328   6.927   6.957   0.151  0.1084 -0.5234 -0.3797
10829SOL     OW33329   4.158   3.556   5.481 -0.2595  0.0534  0.0837
10829SOL    HW133330   4.070   3.557   5.518 -1.2471  2.1557 -2.0234
10829SOL    HW233331   4.174   3.647   5.454  2.0510 -0.5195 -0.7617
10830SOL     OW33332   1.569   4.918   6.167  0.3116 -0.5008 -0.0261
10830SOL    HW133333   1.645   4.940   6.113 -0.1645 -0.4712 -0.7040
10830SOL    HW233334   1.552   4.997   6.218 -0.0495 -0.0539 -0.8245
10831SOL     OW33335   4.333   1.739   6.130  0.2737 -0.3439 -0.4763
10831SOL    HW133336   4.339   1.735   6.035  0.5110  0.5973 -0.5117
10831SOL    HW233337   4.281   1.662   6.154  1.4289 -1.4000 -1.2324
10832SOL     OW33338   7.698   0.770   4.624  0.0174 -1.3348 -0.2938
10832SOL    HW133339   7.727   0.678   4.621 -0.2529 -1.4911  1.3173
10832SOL    HW233340   7.664   0.782   4.712 -1.4636 -0.1253 -0.9813
10833SOL     OW33341   7.497   1.465   6.401 -0.2334 -0.0050  0.0299
10833SOL    HW133342   7.568   1.405   6.424 -0.1542  0.0880  0.0274
10833SOL    HW233343   7.482   1.449   6.308  0.0397  0.2407 -0.0597
10834SOL     OW33344   5.024   0.938   2.309  0.0721  0.9008  0.3143
10834SOL    HW133345   5.005   0.877   2.380  0.8725 -0.8958 -0.9329
10834SOL    HW233346   4.944   0.940   2.257  0.4767 -0.1887 -0.3835
10835SOL     OW33347   1.318   3.406   1.730 -0.1074 -0.3992 -0.2532
10835SOL    HW133348   1.224   3.388   1.727  0.5542 -4.8963 -1.8868
10835SOL    HW233349   1.357   3.325   1.764  3.3109 -0.0775 -2.8251
10836SOL     OW33350   4.760   4.184   5.382 -0.1648  0.2950 -0.0704
10836SOL    HW133351   4.746   4.175   5.288  0.2119  2.0361 -0.3146
10836SOL    HW233352   4.675   4.211   5.416  0.0087  0.8638 -0.0882
10837SOL     OW33353   3.281   0.714   7.682  0.2343 -0.3307  0.5072
10837SOL    HW133354   3.198   0.755   7.655  0.0338 -0.3574  1.0741
10837SOL    HW233355   3.321   0.777   7.741  0.7916 -0.1650 -0.0345
10838SOL     OW33356   3.687   7.033   0.629 -0.0091  0.1996  0.1526
10838SOL    HW133357   3.646   7.117   0.650  0.2626 -0.1398  2.2960
10838SOL    HW233358   3.735   7.049   0.548 -2.0474  1.3635 -0.8975
10839SOL     OW33359   1.274   2.507   7.959  0.8220  0.3831  0.1796
10839SOL    HW133360   1.336   2.442   7.925  0.6481 -0.0727  0.7092
10839SOL    HW233361   1.209   2.454   8.007  1.2823  1.0360  1.5692
10840SOL     OW33362   0.348   4.039   1.292 -0.3997  0.5111  0.2208
10840SOL    HW133363   0.426   4.093   1.286  0.6286 -1.0464 -1.0705
10840SOL    HW233364   0.296   4.063   1.215  1.2005 -1.9281 -1.7747
10841SOL     OW33365   7.834   1.486   3.465  0.3741  0.5378  0.5772
10841SOL    HW133366   7.771   1.450   3.403  1.8864  0.0359 -0.7462
10841SOL    HW233367   7.833   1.424   3.538  0.0863 -0.0537  0.0870
10842SOL     OW33368   4.401   3.926   6.290 -0.3178  0.3239  0.1486
10842SOL    HW133369   4.358   4.000   6.248 -0.5196 -0.3875 -0.9411
10842SOL    HW233370   4.340   3.898   6.358 -1.3815 -0.3608 -1.0538
10843SOL     OW33371   2.331   4.332   2.552  0.5067 -0.2615 -0.3444
10843SOL    HW133372   2.247   4.285   2.544  1.4296 -1.8917 -0.8758
10843SOL    HW233373   2.332   4.363   2.642 -0.7508 -0.0287 -0.3834
10844SOL     OW33374   6.024   4.441   4.776 -0.2417 -0.3409  0.0206
10844SOL    HW133375   5.968   4.479   4.844  1.1583  2.2096 -0.1484
10844SOL    HW233376   5.963   4.398   4.717 -1.7956  0.2810  1.0969
10845SOL     OW33377   3.469   3.292   7.700  0.3410  0.1610 -0.6956
10845SOL    HW133378   3.410   3.367   7.689  1.5902  1.5363  1.1791
10845SOL    HW233379   3.438   3.227   7.638 -2.6845  1.0784 -0.3045
10846SOL     OW33380   5.671   4.534   7.845 -0.5231  0.4090  0.1538
10846SOL    HW133381   5.754   4.512   7.888 -0.0315  0.3936 -0.7805
10846SOL    HW233382   5.637   4.450   7.814 -1.3417  0.2967  1.3019
10847SOL     OW33383   6.703   7.741   8.060 -0.3261 -0.5881 -0.4940
10847SOL    HW133384   6.656   7.661   8.036  0.7838 -2.0498  1.8071
10847SOL    HW233385   6.634   7.801   8.088 -1.1141 -1.0986 -1.2552
10848SOL     OW33386   0.569   6.255   1.892 -0.4953  0.5171  0.1081
10848SOL    HW133387   0.565   6.348   1.871 -1.2676  0.2619 -0.9450
10848SOL    HW233388   0.528   6.249   1.978  0.4030  1.2585  0.6086
10849SOL     OW33389   3.213   8.052   5.688 -0.0904 -0.6239 -0.4450
10849SOL    HW133390   3.294   8.052   5.738 -0.5521  2.1626  0.4433
10849SOL    HW233391   3.235   8.094   5.605 -0.5343 -0.2746 -0.3909
10850SOL     OW33392   3.440   2.471   2.995  0.7389 -0.8644  0.3706
10850SOL    HW133393   3.483   2.479   2.910  1.4240 -0.9950  0.6999
10850SOL    HW233394   3.428   2.561   3.025  0.6325 -0.8229  0.2054
10851SOL     OW33395   6.289   1.382   2.333 -0.8578  0.1730 -0.3066
10851SOL    HW133396   6.232   1.347   2.265  0.1286 -0.5662 -0.7797
10851SOL    HW233397   6.377   1.359   2.304 -0.2087  2.3987 -0.2554
10852SOL     OW33398   0.302   7.351   4.865 -0.2331  0.2314  0.4840
10852SOL    HW133399   0.242   7.405   4.814  1.7984  1.3651 -0.8287
10852SOL    HW233400   0.387   7.363   4.823  0.0243 -6.3838 -1.9402
10853SOL     OW33401   0.372   3.010   0.776 -0.5558  0.3143 -0.6118
10853SOL    HW133402   0.359   3.105   0.780 -0.8799  0.2491 -0.1063
10853SOL    HW233403   0.457   2.996   0.816 -0.2308  0.4493 -1.2430
10854SOL     OW33404   7.792   4.932   3.780 -0.4781 -0.3048  0.1289
10854SOL    HW133405   7.757   5.013   3.815 -0.1534 -0.6283  1.2378
10854SOL    HW233406   7.718   4.871   3.782 -1.5653  0.6322 -3.3291
10855SOL     OW33407   0.342   1.370   1.717  0.0117  0.2490 -0.1636
10855SOL    HW133408   0.380   1.352   1.803  0.1214 -1.2571 -0.5085
10855SOL    HW233409   0.251   1.394   1.735  0.2707  0.8100  0.4249
10856SOL     OW33410   3.331   4.800   4.864  0.7345  0.1521  0.3217
10856SOL    HW133411   3.398   4.732   4.874  0.6092  0.1283  1.0174
10856SOL    HW233412   3.379   4.874   4.826  1.0351 -0.0613  0.2770
10857SOL     OW33413   3.226   7.679   6.802 -0.0258 -0.1447 -0.0975
10857SOL    HW133414   3.177   7.758   6.824  0.4366 -0.4619  2.2878
10857SOL    HW233415   3.193   7.612   6.861  2.3273 -0.7004  0.7126
10858SOL     OW33416   5.104   4.857   6.795 -0.4512 -0.1909 -0.3498
10858SOL    HW133417   5.041   4.786   6.782 -0.9392 -0.3960  2.4745
10858SOL    HW233418   5.062   4.934   6.756 -0.7391 -1.0508 -1.8033
10859SOL     OW33419   6.445   0.698   0.688  0.2642  0.1227 -0.1114
10859SOL    HW133420   6.444   0.606   0.714  1.0407 -0.0699 -0.7266
10859SOL    HW233421   6.469   0.697   0.596 -0.6668  0.9012 -0.3729
10860SOL     OW33422   3.502   0.372   2.129  0.8234 -0.3864  0.0017
10860SOL    HW133423   3.513   0.443   2.191 -2.1246 -1.3192  1.7957
10860SOL    HW233424   3.432   0.402   2.070  3.3040  0.3331 -2.8389
10861SOL     OW33425   5.342   3.316   2.026 -0.2333  0.2532  0.0747
10861SOL    HW133426   5.378   3.370   1.955 -0.5648 -0.4168 -0.6248
10861SOL    HW233427   5.408   3.318   2.094  0.2652  0.5985 -0.4101
10862SOL     OW33428   5.085   8.075   7.147  0.3425 -0.5913  0.2302
10862SOL    HW133429   5.102   7.983   7.163  1.3104 -0.5052 -0.2338
10862SOL    HW233430   5.169   8.111   7.118 -0.3562  0.1104 -1.0359
10863SOL     OW33431   1.950   3.177   5.807  0.1295 -0.5550  0.0612
10863SOL    HW133432   1.954   3.151   5.899 -0.6085 -2.0980 -0.3029
10863SOL    HW233433   2.026   3.234   5.794  0.1496 -0.1952  1.6536
10864SOL     OW33434   0.135   0.782   2.701  0.7576  0.3065  0.7302
10864SOL    HW133435   0.174   0.774   2.788 -2.6695  1.3940  2.5600
10864SOL    HW233436   0.103   0.694   2.681 -1.2135  0.6237  2.1458
10865SOL     OW33437   6.293   0.212   2.469 -0.0921 -0.2102 -0.1820
10865SOL    HW133438   6.324   0.154   2.400  0.0380  1.0905 -1.2535
10865SOL    HW233439   6.202   0.233   2.445 -0.2176 -0.1606  0.3170
10866SOL     OW33440   3.016   0.239   5.280  0.2440  0.1506  0.4800
10866SOL    HW133441   2.926   0.253   5.309  0.0486  1.1534 -0.5441
10866SOL    HW233442   3.067   0.238   5.361 -0.5579  0.5476  1.0040
10867SOL     OW33443   2.327   7.469   0.160  0.3502  0.5653 -0.5776
10867SOL    HW133444   2.236   7.498   0.163  0.1814 -0.0003  1.3975
10867SOL    HW233445   2.325   7.389   0.107 -0.0406  1.3119 -1.7217
10868SOL     OW33446   2.853   4.306   3.624  0.2555  0.5332 -0.0413
10868SOL    HW133447   2.881   4.397   3.631  3.2875 -0.1596 -1.3583
10868SOL    HW233448   2.880   4.267   3.707 -1.5392  0.8923  0.7472
10869SOL     OW33449   7.462   6.408   5.572 -0.1182 -0.3508 -0.0926
10869SOL    HW133450   7.448   6.314   5.561 -0.0501 -0.3589 -0.1096
10869SOL    HW233451   7.513   6.415   5.653  1.2232 -0.4307 -0.8983
10870SOL     OW33452   3.277   3.292   3.669 -0.1810  0.3358 -0.3916
10870SOL    HW133453   3.242   3.277   3.581 -0.1764 -0.9701 -0.1905
10870SOL    HW233454   3.371   3.305   3.656 -0.0903 -0.4308 -0.5355
10871SOL     OW33455   6.881   0.424   0.183 -0.0517 -0.4063 -0.3630
10871SOL    HW133456   6.894   0.519   0.181 -0.2769 -0.2512  2.4476
10871SOL    HW233457   6.968   0.387   0.169  0.4478  0.2901  0.7970
10872SOL     OW33458   6.112   0.398   0.992  0.1246 -0.2967 -0.7932
10872SOL    HW133459   6.162   0.425   0.914 -0.6725  0.1138 -1.1676
10872SOL    HW233460   6.175   0.347   1.043  0.6837 -0.5275 -1.6806
10873SOL     OW33461   7.584   0.532   6.942  0.5609 -0.1088  0.1942
10873SOL    HW133462   7.545   0.445   6.955  1.1964 -0.4286 -0.0094
10873SOL    HW233463   7.589   0.543   6.847  3.2635 -1.1545  0.1316
10874SOL     OW33464   5.839   1.623   2.027  0.3760  0.0030  0.4027
10874SOL    HW133465   5.747   1.638   2.050 -0.8261  0.2260 -3.6648
10874SOL    HW233466   5.857   1.533   2.054  0.1440  0.9248  4.1572
10875SOL     OW33467   6.617   3.727   2.539 -0.1797  0.8133  0.8276
10875SOL    HW133468   6.589   3.636   2.548  0.4511  0.3929 -0.9996
10875SOL    HW233469   6.585   3.752   2.452  2.0385  1.4259  0.1401
10876SOL     OW33470   6.789   2.547   3.858 -0.2233 -0.5280  0.0275
10876SOL    HW133471   6.715   2.554   3.918 -1.9786 -0.3008 -2.0458
10876SOL    HW233472   6.780   2.461   3.817  2.4033 -1.7810  1.7653
10877SOL     OW33473   4.645   3.424   7.019 -0.5280  0.5400 -0.4097
10877SOL    HW133474   4.591   3.358   6.976 -0.3754 -0.3549  0.7403
10877SOL    HW233475   4.682   3.380   7.095  1.6306  1.2121 -0.9951
10878SOL     OW33476   6.082   3.323   3.902  0.0743 -0.0922 -0.2403
10878SOL    HW133477   5.989   3.314   3.921 -0.2169  0.2650 -1.4836
10878SOL    HW233478   6.103   3.248   3.847  0.2308  0.5178 -1.0233
10879SOL     OW33479   1.479   6.990   0.864  0.2857  0.2815  0.6110
10879SOL    HW133480   1.534   7.018   0.792 -0.8744  0.1601 -0.3630
10879SOL    HW233481   1.420   7.064   0.879 -0.6599 -0.3716  0.2054
10880SOL     OW33482   2.249   4.218   7.105 -0.7008 -0.0156  0.6749
10880SOL    HW133483   2.250   4.125   7.130 -0.3695  0.0283  0.8286
10880SOL    HW233484   2.188   4.258   7.167 -0.1196  0.0360  1.2346
10881SOL     OW33485   2.167   4.343   3.913 -0.1241 -0.9000  0.0649
10881SOL    HW133486   2.227   4.333   3.838 -2.0509 -1.3002 -1.5030
10881SOL    HW233487   2.114   4.419   3.891 -0.0127 -0.3505  1.5951
10882SOL     OW33488   1.693   8.185   2.156 -0.5941 -0.3429 -0.6024
10882SOL    HW133489   1.750   8.181   2.233 -0.8181  0.2693 -0.3985
10882SOL    HW233490   1.677   8.093   2.133  0.1531 -0.5231 -0.4278
10883SOL     OW33491   7.473   8.051   0.843 -0.9232 -0.4102 -0.7731
10883SOL    HW133492   7.396   7.997   0.823 -1.0550  0.2184 -2.0358
10883SOL    HW233493   7.544   8.011   0.793  0.0306 -2.0361  1.7240
10884SOL     OW33494   4.433   0.580   2.804 -0.5038 -0.3066 -0.0956
10884SOL    HW133495   4.505   0.518   2.788 -1.1040 -0.5793 -1.9417
10884SOL    HW233496   4.405   0.607   2.717  0.2677  3.2756  0.6022
10885SOL     OW33497   2.127   6.835   1.721  0.0833  0.8133  0.2140
10885SOL    HW133498   2.145   6.805   1.632 -0.6794 -0.9716  0.6178
10885SOL    HW233499   2.212   6.829   1.766  0.8494  3.2323 -0.7167
10886SOL     OW33500   3.057   3.961   2.700  0.7055 -0.5747  0.2668
10886SOL    HW133501   3.109   3.942   2.623  1.4095 -2.4746  1.1355
10886SOL    HW233502   3.075   4.053   2.720  1.1383 -0.2899 -1.3358
10887SOL     OW33503   7.567   0.321   1.605  0.2466 -0.4412  0.2283
10887SOL    HW133504   7.521   0.243   1.576 -1.3823  0.2334  0.8826
10887SOL    HW233505   7.578   0.374   1.526 -0.9695 -0.1974  0.2134
10888SOL     OW33506   5.077   4.855   1.415  0.1578 -0.3551  0.1313
10888SOL    HW133507   5.146   4.790   1.399 -0.6466 -1.0619 -0.6136
10888SOL    HW233508   4.996   4.803   1.418 -0.7306  0.7537 -2.2364
10889SOL     OW33509   2.008   8.062   0.928  0.2638  0.3313 -0.1327
10889SOL    HW133510   2.054   8.083   1.010  0.3110  1.5496 -0.4465
10889SOL    HW233511   2.006   8.145   0.880 -0.2984 -0.2261 -1.1069
10890SOL     OW33512   3.828   1.370   3.930 -0.2352  0.3000  0.0977
10890SOL    HW133513   3.919   1.399   3.934  0.1840 -0.9053 -0.2408
10890SOL    HW233514   3.813   1.325   4.013 -0.7937  1.1942  0.5016
10891SOL     OW33515   2.686   4.991   5.024 -0.0451 -1.0939  0.2360
10891SOL    HW133516   2.645   5.064   5.069  1.5480 -0.6414  1.0456
10891SOL    HW233517   2.736   5.031   4.953  0.6498 -1.3816  0.5437
10892SOL     OW33518   8.198   7.866   7.967  0.4806  0.0911 -0.1362
10892SOL    HW133519   8.185   7.818   8.048  0.9914  1.2746  0.6757
10892SOL    HW233520   8.291   7.890   7.968  0.2357  1.1155 -0.4807
10893SOL     OW33521   4.452   1.637   5.009 -0.0796  0.4591 -0.2225
10893SOL    HW133522   4.465   1.730   5.026  0.3716  0.1977  1.0125
10893SOL    HW233523   4.446   1.630   4.914  0.8469  1.6231 -0.3883
10894SOL     OW33524   1.113   4.332   0.688 -0.4022  0.5661  0.4368
10894SOL    HW133525   1.141   4.276   0.761 -2.8119 -0.7371  0.4644
10894SOL    HW233526   1.121   4.421   0.723 -2.4246 -0.0380  2.7928
10895SOL     OW33527   0.196   2.878   7.401  0.0555 -0.2851 -0.7504
10895SOL    HW133528   0.248   2.825   7.461 -0.8392 -0.2842  0.0450
10895SOL    HW233529   0.198   2.829   7.319  0.6884 -0.6503 -0.5308
10896SOL     OW33530   2.123   7.499   3.372  0.0528 -0.1462 -0.0486
10896SOL    HW133531   2.041   7.521   3.327  0.9979  1.8610 -0.8883
10896SOL    HW233532   2.112   7.533   3.461  0.4218  1.3296 -0.5346
10897SOL     OW33533   7.927   1.725   3.618  0.0685  0.0042  0.1443
10897SOL    HW133534   7.896   1.815   3.607  0.4848  0.1977  0.5115
10897SOL    HW233535   7.915   1.685   3.532 -2.9194 -0.4892  0.6844
10898SOL     OW33536   7.380   5.457   1.696 -0.1282 -0.2160 -0.0620
10898SOL    HW133537   7.328   5.536   1.713 -0.6161 -0.5134 -0.1549
10898SOL    HW233538   7.470   5.484   1.713 -0.3066  0.3182  0.0660
10899SOL     OW33539   6.799   6.361   3.853  0.5441  0.3838 -0.0800
10899SOL    HW133540   6.824   6.270   3.836  0.6888  0.6020 -1.0444
10899SOL    HW233541   6.874   6.398   3.898  1.2875  0.5608 -1.4314
10900SOL     OW33542   2.226   4.052   2.866  0.4223 -0.3087  0.1742
10900SOL    HW133543   2.264   4.036   2.779 -0.8883 -2.0707 -0.1246
10900SOL    HW233544   2.157   4.116   2.850  0.0221 -0.8126 -0.1321
10901SOL     OW33545   4.500   3.746   6.869  0.3459  0.8353  0.2105
10901SOL    HW133546   4.557   3.823   6.875  1.4283  0.4082 -2.6397
10901SOL    HW233547   4.545   3.688   6.807 -0.6464 -1.9393  1.8876
10902SOL     OW33548   4.534   4.679   4.688  0.1669 -0.0694 -0.0415
10902SOL    HW133549   4.516   4.644   4.601  1.3043  1.8707 -1.1218
10902SOL    HW233550   4.611   4.734   4.676 -0.7254  1.7050  1.7940
10903SOL     OW33551   4.418   1.453   5.949  0.3123 -0.1435  0.4441
10903SOL    HW133552   4.486   1.429   6.012  2.1300  0.4541 -1.2296
10903SOL    HW233553   4.433   1.395   5.874  0.0975  1.2008 -0.6655
10904SOL     OW33554   5.711   5.851   5.256 -0.3407  0.1837 -0.0751
10904SOL    HW133555   5.665   5.844   5.340 -3.0037  1.4065 -1.3165
10904SOL    HW233556   5.699   5.765   5.215 -1.2946  0.3924 -0.2519
10905SOL     OW33557   6.119   6.697   1.152 -0.0621 -0.2881  0.2736
10905SOL    HW133558   6.124   6.792   1.150 -0.4160 -0.2055  2.1861
10905SOL    HW233559   6.081   6.676   1.237  3.9641 -2.2751  1.8736
10906SOL     OW33560   0.151   8.129   2.241 -0.1214  0.2334  0.2855
10906SOL    HW133561   0.192   8.215   2.233  1.0714 -0.1721  1.6714
10906SOL    HW233562   0.070   8.137   2.190  1.0033  1.4744 -1.4038
10907SOL     OW33563   2.406   6.376   6.723  0.0955  0.1685  0.2287
10907SOL    HW133564   2.494   6.343   6.707 -0.4620 -1.3194 -0.0153
10907SOL    HW233565   2.354   6.297   6.737 -1.2630  0.9923  0.0015
10908SOL     OW33566   2.977   2.946   0.779 -0.8360 -0.0020  0.3782
10908SOL    HW133567   2.955   3.035   0.750 -3.1334 -0.7073 -0.2245
10908SOL    HW233568   2.948   2.943   0.870 -0.2032  0.0188  0.5879
10909SOL     OW33569   4.825   2.478   5.228  0.4287  0.3150 -0.1041
10909SOL    HW133570   4.919   2.478   5.208  0.4556 -1.3657 -0.0701
10909SOL    HW233571   4.805   2.571   5.243  1.9252  0.7987 -0.7988
10910SOL     OW33572   1.014   1.156   3.926 -0.9190 -0.3620 -0.2070
10910SOL    HW133573   1.106   1.141   3.906 -0.5856  0.1302  0.9109
10910SOL    HW233574   0.976   1.185   3.843 -0.3097 -1.5681 -0.9389
10911SOL     OW33575   1.775   4.006   3.164 -0.1794  0.0500  0.0112
10911SOL    HW133576   1.779   3.925   3.215  0.2871  0.2487  0.3003
10911SOL    HW233577   1.708   3.989   3.097  0.6821 -0.9800 -0.6371
10912SOL     OW33578   3.862   0.753   1.945  0.6852  0.1599 -0.5909
10912SOL    HW133579   3.827   0.834   1.907 -2.2755 -0.6710  0.1090
10912SOL    HW233580   3.895   0.779   2.031  1.3240  0.8903 -1.0428
10913SOL     OW33581   4.303   7.616   3.498 -0.1556  0.5107 -0.4914
10913SOL    HW133582   4.341   7.614   3.410  0.5419  0.4662 -0.1957
10913SOL    HW233583   4.342   7.541   3.543  0.2968  1.1350  0.1774
10914SOL     OW33584   3.448   2.705   5.134  0.1630 -0.3939 -0.0640
10914SOL    HW133585   3.404   2.625   5.106  1.0819 -0.0425 -2.7861
10914SOL    HW233586   3.383   2.752   5.185 -0.9747 -2.0563  0.0824
10915SOL     OW33587   5.142   1.288   6.837 -0.2248  0.4869 -1.0127
10915SOL    HW133588   5.050   1.315   6.834 -0.7445 -0.8298  1.1607
10915SOL    HW233589   5.163   1.286   6.930  1.3587 -1.2914 -1.3641
10916SOL     OW33590   2.182   4.459   0.356  0.1021 -0.7582 -0.1911
10916SOL    HW133591   2.229   4.490   0.434  0.2958 -1.3861 -0.0505
10916SOL    HW233592   2.233   4.493   0.282  0.5024 -1.0134 -0.0388
10917SOL     OW33593   3.354   7.163   4.405 -0.0997 -0.5532 -0.4921
10917SOL    HW133594   3.430   7.190   4.353  1.7079 -1.8424  1.3115
10917SOL    HW233595   3.279   7.175   4.346  0.9737  3.8394 -1.3321
10918SOL     OW33596   7.727   4.281   6.433  0.1050 -0.3411  0.2690
10918SOL    HW133597   7.802   4.333   6.404  0.3026 -0.1403  1.1256
10918SOL    HW233598   7.765   4.210   6.484 -0.3284  0.3005  1.5273
10919SOL     OW33599   2.644   2.569   1.666  0.0528  0.1143  0.3256
10919SOL    HW133600   2.674   2.656   1.692 -1.7182  0.5079  1.1968
10919SOL    HW233601   2.629   2.524   1.750 -4.0954  0.8036  0.1459
10920SOL     OW33602   4.927   3.172   5.884  0.1409 -0.8403 -0.4238
10920SOL    HW133603   5.010   3.147   5.926 -0.0330 -0.1703  0.3485
10920SOL    HW233604   4.860   3.152   5.950  0.0252  2.0710  0.5106
10921SOL     OW33605   3.566   0.778   5.769 -0.0683 -0.0194 -0.4715
10921SOL    HW133606   3.487   0.775   5.717 -0.6737  0.0144  0.4169
10921SOL    HW233607   3.629   0.722   5.723 -0.2881  0.7198 -1.6865
10922SOL     OW33608   2.700   3.145   7.213  0.2432 -0.4139  0.2337
10922SOL    HW133609   2.729   3.127   7.123  0.1204 -0.9045  0.2901
10922SOL    HW233610   2.615   3.102   7.220  0.0005  0.0892  0.4165
10923SOL     OW33611   8.006   3.669   6.276 -0.5909 -0.5938  0.1479
10923SOL    HW133612   8.094   3.703   6.260 -1.0757  1.2670  1.1742
10923SOL    HW233613   7.959   3.741   6.319 -2.5768 -1.5845 -0.2252
10924SOL     OW33614   1.587   7.802   4.266  0.1693 -0.4000  0.1567
10924SOL    HW133615   1.638   7.769   4.340 -1.3825  1.2437  2.0839
10924SOL    HW233616   1.510   7.746   4.262  0.0972 -0.2900 -0.0055
10925SOL     OW33617   1.556   1.342   1.960  0.2129  0.0708  0.1116
10925SOL    HW133618   1.619   1.373   1.895 -0.4984  0.3039 -0.4888
10925SOL    HW233619   1.604   1.340   2.042  1.4312 -1.2264 -0.5991
10926SOL     OW33620   5.492   1.770   1.356 -0.0414  0.0524  0.0183
10926SOL    HW133621   5.430   1.700   1.338 -0.9482  0.4266  1.5388
10926SOL    HW233622   5.569   1.749   1.303  0.1739 -2.7224  1.2736
10927SOL     OW33623   5.884   1.973   7.803 -0.2412 -0.2206 -0.6476
10927SOL    HW133624   5.790   1.980   7.784  0.1120 -0.6194 -2.7776
10927SOL    HW233625   5.924   2.041   7.748  0.6864  0.4251  0.7759
10928SOL     OW33626   8.094   2.730   8.214  0.1501  0.0691  0.9717
10928SOL    HW133627   8.034   2.761   8.146  1.0456  0.8799  0.5362
10928SOL    HW233628   8.102   2.804   8.274  1.8783  0.5462  0.2154
10929SOL     OW33629   2.464   7.118   5.015  0.3070  0.2496  0.2483
10929SOL    HW133630   2.374   7.121   5.048 -0.3841  1.6599 -1.6041
10929SOL    HW233631   2.498   7.035   5.047 -2.4510 -1.5020 -0.9711
10930SOL     OW33632   1.907   6.665   1.680 -0.2504 -0.4908  0.2800
10930SOL    HW133633   1.895   6.698   1.591  1.1901 -1.3804 -0.2824
10930SOL    HW233634   1.964   6.729   1.722  0.7321 -1.0825 -0.1096
10931SOL     OW33635   2.761   2.104   3.188  0.1442 -0.0636 -0.4850
10931SOL    HW133636   2.762   2.009   3.199  0.6724 -0.0433 -0.3481
10931SOL    HW233637   2.674   2.123   3.152 -0.2779 -0.5105  0.2842
10932SOL     OW33638   5.279   1.064   6.213  0.3874 -0.1477 -0.0113
10932SOL    HW133639   5.231   1.042   6.293 -0.4932 -0.6256 -0.6524
10932SOL    HW233640   5.343   0.993   6.203  0.7567  0.1141  0.4642
10933SOL     OW33641   2.534   7.209   1.195 -0.5039  0.3132 -0.0896
10933SOL    HW133642   2.590   7.284   1.178 -0.0259  0.0647  0.3729
10933SOL    HW233643   2.593   7.141   1.226 -0.7870 -0.5951 -1.4880
10934SOL     OW33644   1.467   0.665   3.913 -0.1455  0.1600  0.0689
10934SOL    HW133645   1.378   0.676   3.878 -0.8290 -2.5951  0.6620
10934SOL    HW233646   1.458   0.593   3.975  2.2570  0.8132  1.2529
10935SOL     OW33647   7.372   3.933   4.644  0.1835 -1.0482 -0.1147
10935SOL    HW133648   7.373   4.022   4.680  2.2581 -0.5376 -1.2602
10935SOL    HW233649   7.397   3.877   4.717 -3.0009 -1.0509  1.1642
10936SOL     OW33650   2.235   6.953   6.785  0.3084  0.3576 -0.2597
10936SOL    HW133651   2.228   7.049   6.780  0.9857  0.3979 -0.5390
10936SOL    HW233652   2.164   6.927   6.845 -0.8107  0.8973 -1.3084
10937SOL     OW33653   0.600   5.578   0.534 -0.5908  0.3250  0.2699
10937SOL    HW133654   0.602   5.482   0.543 -1.2992  0.3206  0.4114
10937SOL    HW233655   0.564   5.609   0.617  1.1685  0.8295  0.8997
10938SOL     OW33656   8.161   4.329   0.529  1.0057 -0.1752  0.1634
10938SOL    HW133657   8.229   4.284   0.578  0.5436  1.7772  2.8146
10938SOL    HW233658   8.083   4.323   0.585 -0.5708 -0.8257 -1.9723
10939SOL     OW33659   3.086   5.400   0.888  0.0294  0.4139 -0.1714
10939SOL    HW133660   3.054   5.387   0.799  0.1420  0.5883 -0.2375
10939SOL    HW233661   3.172   5.359   0.889 -1.4118 -3.0440  0.8952
10940SOL     OW33662   5.392   4.654   6.694  0.1923 -0.1860  0.0502
10940SOL    HW133663   5.434   4.720   6.639  0.4868  1.1029  1.7546
10940SOL    HW233664   5.299   4.661   6.673  0.3560 -0.0784 -0.6537
10941SOL     OW33665   1.413   3.405   5.312 -0.2234  0.0529  0.2295
10941SOL    HW133666   1.457   3.489   5.299  0.2827 -0.3179 -0.5102
10941SOL    HW233667   1.380   3.408   5.402  0.1668  0.8653  0.3464
10942SOL     OW33668   6.471   8.033   4.134 -0.5156  0.0244 -0.4173
10942SOL    HW133669   6.500   8.122   4.113  0.1526  0.2436  1.2433
10942SOL    HW233670   6.477   8.028   4.230 -0.7377 -1.7442 -0.4586
10943SOL     OW33671   1.372   5.659   5.945  0.1464 -0.0528 -0.4483
10943SOL    HW133672   1.307   5.605   5.989  0.0686  0.0946 -0.3828
10943SOL    HW233673   1.334   5.747   5.945 -0.3203 -0.2305 -1.7050
10944SOL     OW33674   3.596   0.622   1.591  0.4504 -0.5596 -0.1859
10944SOL    HW133675   3.574   0.630   1.498 -0.7958 -2.5017 -0.1070
10944SOL    HW233676   3.687   0.592   1.591  0.6756  0.0894 -0.7428
10945SOL     OW33677   5.792   1.952   0.029 -0.4234 -0.4574  0.1467
10945SOL    HW133678   5.807   1.993   0.114 -2.6986 -0.5751  0.6566
10945SOL    HW233679   5.850   2.000  -0.031  2.8166 -1.7202  2.0048
10946SOL     OW33680   7.191   7.618   4.229 -0.3570 -0.7040  0.5228
10946SOL    HW133681   7.216   7.577   4.312 -0.7951 -2.1718 -0.0425
10946SOL    HW233682   7.270   7.615   4.175 -0.6319 -1.6536  0.1621
10947SOL     OW33683   2.572   4.922   3.250  0.0166  0.6811  0.3455
10947SOL    HW133684   2.506   4.908   3.317  0.0919 -1.2672  0.0681
10947SOL    HW233685   2.526   4.907   3.167  1.0838 -2.3710  0.1938
10948SOL     OW33686   2.363   2.530   7.193  0.6157 -0.4548 -0.0416
10948SOL    HW133687   2.290   2.469   7.188 -1.8924  2.3115  0.0915
10948SOL    HW233688   2.428   2.496   7.131 -0.8231 -2.9275 -0.2896
10949SOL     OW33689   3.433   0.115   7.914 -0.0582  0.3297  0.2871
10949SOL    HW133690   3.347   0.139   7.949 -0.6931 -0.2536 -0.8213
10949SOL    HW233691   3.424   0.022   7.892  0.4679  0.5523 -0.9232
10950SOL     OW33692   2.146   6.980   4.402  0.0397 -0.2485  0.2576
10950SOL    HW133693   2.181   6.971   4.313 -0.7803 -0.7473 -0.0264
10950SOL    HW233694   2.207   7.039   4.446  0.8341 -0.5408 -0.4288
10951SOL     OW33695   0.722   7.341   7.259 -0.6482 -0.2780 -0.6252
10951SOL    HW133696   0.746   7.426   7.294  1.7416 -1.0863 -0.0919
10951SOL    HW233697   0.739   7.279   7.330  1.4674 -1.6075 -2.1464
10952SOL     OW33698   2.410   2.420   2.808 -0.5335 -0.2058  0.4935
10952SOL    HW133699   2.348   2.346   2.809 -0.3673 -0.3556  1.4997
10952SOL    HW233700   2.355   2.497   2.791 -0.7495 -0.5255 -0.2851
10953SOL     OW33701   3.384   0.906   2.439  0.4218 -0.6024 -0.3067
10953SOL    HW133702   3.360   0.929   2.350  1.3186 -0.8422 -0.6223
10953SOL    HW233703   3.480   0.908   2.439  0.4645 -1.9576  0.2872
10954SOL     OW33704   6.441   5.966   1.765  0.3119  0.2981  0.0145
10954SOL    HW133705   6.348   5.980   1.778  0.2962  0.7982 -0.6426
10954SOL    HW233706   6.482   6.002   1.844 -0.1095 -0.9038  0.8216
10955SOL     OW33707   5.224   5.783   7.442 -0.1904  0.4357 -0.1519
10955SOL    HW133708   5.222   5.871   7.405 -0.7625 -0.2589 -1.8951
10955SOL    HW233709   5.278   5.732   7.381  2.3116  0.0731  2.1527
10956SOL     OW33710   4.675   7.712   7.649 -0.3614  0.4543 -0.2056
10956SOL    HW133711   4.623   7.712   7.729  2.8710  0.8802  2.0730
10956SOL    HW233712   4.673   7.803   7.619 -0.6465  0.5302  0.0349
10957SOL     OW33713   6.213   1.423   0.267  0.3701 -0.0552  0.3156
10957SOL    HW133714   6.219   1.515   0.241  1.0975  0.0763  0.9147
10957SOL    HW233715   6.277   1.414   0.338 -1.0401 -0.5589  1.5860
10958SOL     OW33716   6.330   1.884   6.731  0.2057 -0.2601  0.3640
10958SOL    HW133717   6.269   1.931   6.787  1.5246  1.8565  0.1195
10958SOL    HW233718   6.353   1.806   6.781 -1.3622 -0.2283  1.1824
10959SOL     OW33719   4.921   5.584   4.571 -0.2071 -0.2194  0.0635
10959SOL    HW133720   4.891   5.674   4.564 -1.2451 -0.6692 -2.1165
10959SOL    HW233721   4.842   5.531   4.568  0.4814 -1.3005 -2.6681
10960SOL     OW33722   0.734   1.460   2.329 -0.4356  0.1127 -0.1558
10960SOL    HW133723   0.776   1.541   2.300 -1.2147  0.9707  1.0506
10960SOL    HW233724   0.642   1.469   2.301 -0.6567 -0.0981  0.4980
10961SOL     OW33725   0.020   1.252   3.617 -0.0266  0.2488  0.4492
10961SOL    HW133726   0.089   1.215   3.562 -1.6346 -0.9807 -0.8556
10961SOL    HW233727  -0.044   1.286   3.554 -1.8091 -0.9728  1.5026
10962SOL     OW33728   1.757   0.362   0.308  0.0094  0.0837  0.0013
10962SOL    HW133729   1.807   0.312   0.244  1.6611  1.0528  0.4603
10962SOL    HW233730   1.739   0.446   0.265  0.9562  0.6658  0.7079
10963SOL     OW33731   6.994   6.892   3.008 -0.5022 -0.6587  0.3479
10963SOL    HW133732   6.949   6.865   3.088  0.0498 -1.5442  0.3790
10963SOL    HW233733   7.000   6.987   3.014 -0.1165 -0.7462  1.5620
10964SOL     OW33734   3.893   3.976   6.917 -0.4677 -0.1281  0.1167
10964SOL    HW133735   3.842   4.050   6.948 -0.8158 -1.2721  2.5133
10964SOL    HW233736   3.968   3.972   6.977 -0.1038 -1.3125 -0.3887
10965SOL     OW33737   8.083   6.405   7.938  0.3563 -0.3582  0.1532
10965SOL    HW133738   8.064   6.313   7.957  0.0446 -0.6036 -1.2318
10965SOL    HW233739   8.002   6.451   7.960 -0.4395 -0.8085 -1.6014
10966SOL     OW33740   5.122   5.729   3.575  0.0989  0.1543 -0.3134
10966SOL    HW133741   5.153   5.730   3.485 -1.3614  1.0444 -0.8384
10966SOL    HW233742   5.154   5.647   3.611  0.3381 -0.4115 -1.7669
10967SOL     OW33743   7.584   0.535   6.657  0.0975  0.4410  0.6828
10967SOL    HW133744   7.543   0.462   6.610 -0.4201  0.8441  0.5000
10967SOL    HW233745   7.559   0.613   6.608 -0.3258  0.8574  1.5301
10968SOL     OW33746   0.980   8.193   2.566 -0.3379  0.1670 -0.1586
10968SOL    HW133747   0.940   8.275   2.536  0.5726  0.2500 -1.2127
10968SOL    HW233748   1.000   8.145   2.485 -2.4315 -1.9014  0.4602
10969SOL     OW33749   5.066   3.176   4.195 -0.1942  0.1247 -0.0437
10969SOL    HW133750   5.044   3.215   4.110 -0.3547  2.1465  0.8682
10969SOL    HW233751   5.057   3.082   4.181  0.5053  0.3387 -2.4761
10970SOL     OW33752   4.710   5.325   2.942  0.3694 -0.8692 -0.3253
10970SOL    HW133753   4.801   5.299   2.930  0.7754  0.3138  0.0853
10970SOL    HW233754   4.683   5.359   2.857  1.2331  1.4403  0.2417
10971SOL     OW33755   7.055   2.737   7.689  0.1958  0.2025  0.1875
10971SOL    HW133756   7.070   2.693   7.772  1.9839 -0.8102 -0.6170
10971SOL    HW233757   6.994   2.680   7.641  2.1761 -1.2713 -0.6840
10972SOL     OW33758   5.178   0.512   0.967  0.0755 -0.2942 -0.2774
10972SOL    HW133759   5.185   0.606   0.979 -1.0507 -0.2762  0.3270
10972SOL    HW233760   5.249   0.476   1.020 -0.6110  0.1417  0.9902
10973SOL     OW33761   7.268   3.251   4.921 -0.3383 -0.0110  0.2724
10973SOL    HW133762   7.284   3.331   4.870  1.7572  0.0243  0.8908
10973SOL    HW233763   7.255   3.282   5.010  0.0488 -0.3285  0.4408
10974SOL     OW33764   5.689   0.945   1.623 -0.6239 -0.5811 -0.0793
10974SOL    HW133765   5.758   0.920   1.684 -0.5110  0.2655  0.1612
10974SOL    HW233766   5.624   0.875   1.629  0.7313 -1.9930 -1.1753
10975SOL     OW33767   6.744   7.319   6.481 -0.3110 -0.0011 -0.1678
10975SOL    HW133768   6.763   7.226   6.474  1.5585  0.3779 -0.6483
10975SOL    HW233769   6.810   7.361   6.427  0.7017  1.7728  2.2699
10976SOL     OW33770   5.955   0.900   2.099  0.4886 -0.7453  0.5627
10976SOL    HW133771   6.045   0.868   2.086  0.8758  0.5848 -0.2025
10976SOL    HW233772   5.912   0.884   2.016  0.2756 -0.5432  0.6361
10977SOL     OW33773   6.135   0.412   2.028  0.1215 -0.4683 -0.1484
10977SOL    HW133774   6.218   0.403   1.982 -0.1829 -1.8590 -0.4508
10977SOL    HW233775   6.070   0.376   1.968 -0.2385 -2.6652  1.4449
10978SOL     OW33776   1.245   3.801   6.562  0.0474  0.0647 -0.1989
10978SOL    HW133777   1.339   3.814   6.552 -0.1771  0.7516 -1.5503
10978SOL    HW233778   1.238   3.731   6.627  1.4674  0.4786  0.4351
10979SOL     OW33779   4.946   0.292   3.938 -0.0006  0.0176  0.5117
10979SOL    HW133780   5.020   0.318   3.993 -0.3691  0.5104  0.7823
10979SOL    HW233781   4.934   0.199   3.956 -1.5700  0.6090  3.0580
10980SOL     OW33782   6.880   1.204   7.687 -0.3865  0.4227 -0.4571
10980SOL    HW133783   6.933   1.233   7.761  0.8522 -1.7461 -0.3898
10980SOL    HW233784   6.790   1.208   7.718  0.1601 -1.4100  1.6046
10981SOL     OW33785   4.662   5.258   7.156  0.2010  0.6314  0.5558
10981SOL    HW133786   4.596   5.281   7.091  0.8642  0.5262 -0.1642
10981SOL    HW233787   4.653   5.163   7.167  0.5896  0.5355  0.0584
10982SOL     OW33788   2.948   4.787   4.380  0.2449 -0.2847 -0.0789
10982SOL    HW133789   3.011   4.717   4.400  0.7682 -0.2605 -1.5253
10982SOL    HW233790   2.996   4.868   4.399  0.6447 -0.2699 -1.0648
10983SOL     OW33791   1.302   2.507   5.986 -0.4537 -0.2599  0.6786
10983SOL    HW133792   1.307   2.531   5.893 -2.3688 -2.5606 -0.0916
10983SOL    HW233793   1.390   2.476   6.007  0.0326  0.4033 -0.3024
10984SOL     OW33794   5.117   5.633   2.804  0.0138  0.6488 -0.4033
10984SOL    HW133795   5.182   5.699   2.779 -0.4901  0.5686 -2.0796
10984SOL    HW233796   5.055   5.632   2.731 -0.0796 -1.5641 -0.3613
10985SOL     OW33797   3.014   1.339   1.213  0.3697 -0.2589  0.0886
10985SOL    HW133798   3.027   1.253   1.252  1.7413  0.6526  1.8055
10985SOL    HW233799   3.041   1.329   1.122  0.0442 -1.7316  0.1340
10986SOL     OW33800   1.758   5.189   1.264  0.1803  0.5594 -0.1524
10986SOL    HW133801   1.744   5.245   1.188 -0.5286 -0.0498 -0.4841
10986SOL    HW233802   1.847   5.210   1.293 -0.2821  2.3352  0.1363
10987SOL     OW33803   0.220   3.333   3.649 -0.0336 -0.2393  0.2844
10987SOL    HW133804   0.212   3.241   3.624  0.5678 -0.2697  0.1757
10987SOL    HW233805   0.294   3.335   3.710 -0.8111 -0.0047  1.2497
10988SOL     OW33806   6.586   4.221   0.747  0.3610  1.0240  0.3255
10988SOL    HW133807   6.614   4.140   0.704  0.0648  1.0754  0.0305
10988SOL    HW233808   6.514   4.194   0.803  0.7690  0.9510  0.8193
10989SOL     OW33809   7.505   3.537   5.904  0.2687  0.3946 -0.1552
10989SOL    HW133810   7.472   3.609   5.851  0.1887  0.2527 -0.2952
10989SOL    HW233811   7.589   3.514   5.864  2.2153  2.9466  2.1023
10990SOL     OW33812   4.580   6.854   0.746  0.8787  0.1655 -0.3509
10990SOL    HW133813   4.582   6.807   0.829  0.1662  0.7499  0.0067
10990SOL    HW233814   4.494   6.894   0.743  1.3276  1.1278 -0.8281
10991SOL     OW33815   4.116   2.931   2.411 -0.0723 -0.6094  0.6360
10991SOL    HW133816   4.048   2.886   2.361 -0.9576 -0.5191  1.7087
10991SOL    HW233817   4.114   2.888   2.497 -1.5934  2.0273  2.0272
10992SOL     OW33818   4.766   7.121   5.811 -0.1680 -0.6086  0.2062
10992SOL    HW133819   4.758   7.188   5.879 -1.7594 -0.9153  0.3541
10992SOL    HW233820   4.808   7.166   5.738  2.4822 -0.5192  1.6698
10993SOL     OW33821   1.001   3.733   4.754  0.5077  0.2917 -0.1537
10993SOL    HW133822   0.973   3.811   4.801  0.4577  1.1756 -1.5812
10993SOL    HW233823   1.095   3.745   4.740  0.4871  0.1313 -0.4370
10994SOL     OW33824   6.895   4.270   7.348  0.3517 -0.5613 -0.2391
10994SOL    HW133825   6.989   4.262   7.329  0.4594  0.4011 -0.1410
10994SOL    HW233826   6.857   4.190   7.312  0.8342  0.1800 -2.5601
10995SOL     OW33827   3.805   0.060   0.590 -0.5417  0.0632  0.2974
10995SOL    HW133828   3.759   0.052   0.506 -0.8829  0.0716  0.4808
10995SOL    HW233829   3.770  -0.011   0.643 -0.3301  0.0614  0.4356
10996SOL     OW33830   5.310   1.128   2.638 -0.2725  0.2473  0.5635
10996SOL    HW133831   5.258   1.050   2.658  1.4326 -1.1280 -0.0913
10996SOL    HW233832   5.322   1.125   2.543  0.8651  0.5804  0.6797
10997SOL     OW33833   2.060   3.038   4.587  0.1639 -0.3767 -0.2048
10997SOL    HW133834   1.973   3.025   4.547  0.7052 -1.2674 -1.1290
10997SOL    HW233835   2.103   2.954   4.579  1.3794  0.2422 -0.4063
10998SOL     OW33836   1.264   2.933   7.290  0.2556  0.2952  1.0935
10998SOL    HW133837   1.178   2.905   7.323 -0.1582 -0.7404 -0.7221
10998SOL    HW233838   1.301   2.854   7.252  0.9959  1.2628 -0.2581
10999SOL     OW33839   0.153   6.395   3.854 -0.0094 -0.0623  0.3955
10999SOL    HW133840   0.077   6.436   3.813 -0.5491  0.4396  1.8240
10999SOL    HW233841   0.178   6.325   3.794  0.2168  1.5752 -1.5536
11000SOL     OW33842   7.722   6.936   1.054  0.3401  0.2701  0.3706
11000SOL    HW133843   7.650   6.978   1.100 -1.1334 -0.5614 -1.0782
11000SOL    HW233844   7.758   7.006   0.998 -0.2490  0.3540  0.0859
11001SOL     OW33845   6.030   1.899   5.730  0.0825 -0.2072  0.0014
11001SOL    HW133846   5.960   1.901   5.795 -1.0760 -2.7013 -1.0441
11001SOL    HW233847   6.110   1.909   5.780 -0.7585 -2.2159  1.9050
11002SOL     OW33848   6.593   2.830   4.519 -0.3152  0.1768 -0.1803
11002SOL    HW133849   6.600   2.735   4.508  0.1132 -0.0195  1.4717
11002SOL    HW233850   6.500   2.845   4.534 -0.3191 -0.0570  0.0500
11003SOL     OW33851   2.894   5.463   3.871 -0.0226  0.1168 -0.4170
11003SOL    HW133852   2.903   5.407   3.948 -0.7910 -2.7691 -2.2719
11003SOL    HW233853   2.824   5.524   3.893 -1.5712 -1.9055  0.5473
11004SOL     OW33854   7.900   7.324   4.433 -0.0592  0.2197 -0.0811
11004SOL    HW133855   7.879   7.361   4.347 -2.8950 -0.6575  0.1369
11004SOL    HW233856   7.948   7.243   4.413  0.9287  0.9320 -0.7219
11005SOL     OW33857   1.548   5.226   1.543 -0.4741  0.1912 -0.1392
11005SOL    HW133858   1.472   5.236   1.486  0.0032  0.3531 -0.7596
11005SOL    HW233859   1.560   5.313   1.582 -1.7892 -0.3021  1.5254
11006SOL     OW33860   3.293   2.869   5.263 -0.4759 -0.0262 -0.2342
11006SOL    HW133861   3.210   2.824   5.278 -0.6441  0.1472 -0.6527
11006SOL    HW233862   3.291   2.944   5.323 -0.3378 -0.3798  0.2241
11007SOL     OW33863   4.645   8.204   2.647 -0.9393  0.5181  0.1564
11007SOL    HW133864   4.678   8.116   2.627 -1.8729 -0.0678  1.0521
11007SOL    HW233865   4.691   8.229   2.727 -0.5323  0.9385 -0.2032
11008SOL     OW33866   2.569   0.032   2.723  0.6479 -0.2959 -0.4115
11008SOL    HW133867   2.591   0.089   2.650  0.1938 -2.8529 -2.7180
11008SOL    HW233868   2.653   0.009   2.762  0.8958  1.0771 -0.0779
11009SOL     OW33869   5.653   7.152   5.985  0.5659 -0.3776 -0.3692
11009SOL    HW133870   5.650   7.244   5.962 -2.3919 -0.5661 -1.1249
11009SOL    HW233871   5.593   7.109   5.923  0.8930 -2.6104  0.7379
11010SOL     OW33872   5.692   7.875   6.056 -0.1974  0.4693  0.0624
11010SOL    HW133873   5.748   7.846   5.984 -0.1995 -1.5138  0.7910
11010SOL    HW233874   5.752   7.887   6.130 -0.4965  0.1741  0.3546
11011SOL     OW33875   4.145   3.784   8.215  0.0294 -0.5103 -0.1772
11011SOL    HW133876   4.064   3.760   8.169  0.2319 -1.0221 -0.2681
11011SOL    HW233877   4.214   3.770   8.150  0.1398  0.4654 -0.2796
11012SOL     OW33878   6.402   1.849   3.814  0.3744 -0.3605 -0.8995
11012SOL    HW133879   6.363   1.823   3.730 -0.8852 -1.5940  0.0232
11012SOL    HW233880   6.450   1.771   3.843 -0.8407 -0.6509  0.4307
11013SOL     OW33881   7.099   4.463   0.791 -0.0267  0.6073  0.2815
11013SOL    HW133882   7.091   4.370   0.770 -2.2392  0.5477  1.1452
11013SOL    HW233883   7.133   4.465   0.880  1.1012  0.6846 -0.1316
11014SOL     OW33884   6.809   3.943   6.885  0.3690  0.4847  0.1201
11014SOL    HW133885   6.880   3.925   6.947  0.6460  1.7575  0.1833
11014SOL    HW233886   6.847   3.928   6.799  0.2171 -0.4683  0.1995
11015SOL     OW33887   6.510   7.614   3.556 -0.5453  0.5984  0.1590
11015SOL    HW133888   6.497   7.670   3.478 -0.4841 -0.4824 -0.6508
11015SOL    HW233889   6.599   7.633   3.585 -0.7713  1.4430  0.3257
11016SOL     OW33890   0.632   7.686   1.598  0.3878 -0.1231 -0.0804
11016SOL    HW133891   0.624   7.781   1.602  1.3858 -0.0664  2.4005
11016SOL    HW233892   0.645   7.666   1.505  0.6781  2.2025 -0.5848
11017SOL     OW33893   6.621   3.756   1.289 -0.2291 -0.3787  0.3080
11017SOL    HW133894   6.553   3.698   1.325 -1.0686 -1.1641 -2.3498
11017SOL    HW233895   6.660   3.706   1.217  0.9467  1.3270 -0.2966
11018SOL     OW33896   1.958   7.968   2.672 -0.0292 -0.0666 -0.2922
11018SOL    HW133897   2.009   8.031   2.723 -0.7700  0.8141 -0.6255
11018SOL    HW233898   1.994   7.882   2.698 -0.3565  0.3451  1.6774
11019SOL     OW33899   7.924   3.417   3.573  0.0124  0.5766 -0.1389
11019SOL    HW133900   7.894   3.504   3.549  3.0332  2.0962  0.9942
11019SOL    HW233901   7.916   3.413   3.668 -1.8109 -1.1824 -0.2969
11020SOL     OW33902   4.310   1.400   4.967  0.1195  0.5138  0.1199
11020SOL    HW133903   4.349   1.486   4.985 -1.4689  1.1693  0.6781
11020SOL    HW233904   4.216   1.417   4.966 -0.2692 -1.3406  0.9382
11021SOL     OW33905   1.266   0.813   3.108  0.0257  0.0568  0.3367
11021SOL    HW133906   1.268   0.906   3.129 -2.3235  0.0129  1.0466
11021SOL    HW233907   1.220   0.772   3.181  0.5593 -1.5924 -0.1982
11022SOL     OW33908   6.416   0.976   0.538 -0.1201 -0.1826  0.4940
11022SOL    HW133909   6.392   0.887   0.563  2.0774 -1.8082 -2.4949
11022SOL    HW233910   6.511   0.980   0.552 -0.0318  1.3363 -0.3529
11023SOL     OW33911   0.867   4.431   4.249 -0.2199 -0.1473 -0.7148
11023SOL    HW133912   0.963   4.439   4.251  0.0584 -2.8177  0.0345
11023SOL    HW233913   0.836   4.504   4.302  1.3528  0.9474 -1.2187
11024SOL     OW33914   3.394   1.273   5.480 -0.3463 -0.2684  0.4806
11024SOL    HW133915   3.465   1.210   5.491  0.0942  0.0891 -0.2615
11024SOL    HW233916   3.374   1.272   5.387  0.3464  1.3947  0.2712
11025SOL     OW33917   0.804   6.170   1.669 -0.3841 -0.0014  0.4138
11025SOL    HW133918   0.744   6.235   1.705 -1.8215 -0.2259 -1.4084
11025SOL    HW233919   0.885   6.218   1.653 -0.5036  0.6487  1.6557
11026SOL     OW33920   1.806   5.307   7.391  0.1989 -0.2295  0.3253
11026SOL    HW133921   1.895   5.304   7.426 -0.1999 -1.0291  1.3501
11026SOL    HW233922   1.759   5.366   7.449 -0.6607 -2.1542  1.7050
11027SOL     OW33923   4.082   5.695   5.840  0.0792 -0.0932 -0.4573
11027SOL    HW133924   4.116   5.711   5.928 -1.0132 -0.9589  0.1480
11027SOL    HW233925   4.081   5.781   5.799  1.7032  0.1569 -0.0394
11028SOL     OW33926   6.982   7.748   4.015  0.0668 -0.0917 -0.0448
11028SOL    HW133927   7.020   7.691   4.083  0.7520 -0.1580 -0.4726
11028SOL    HW233928   7.056   7.798   3.981 -0.6225  1.5461  0.7609
11029SOL     OW33929   0.513   5.266   5.468 -0.3648  0.4816  0.2099
11029SOL    HW133930   0.581   5.314   5.421 -0.1137 -1.6797 -1.8104
11029SOL    HW233931   0.555   5.239   5.550  0.4656  1.0879  0.0011
11030SOL     OW33932   6.821   2.612   4.349  0.1269  0.2249  0.7543
11030SOL    HW133933   6.861   2.526   4.338 -3.1641 -1.2118 -1.7039
11030SOL    HW233934   6.756   2.600   4.419 -0.9981  0.3827 -0.2307
11031SOL     OW33935   0.951   0.851   0.063 -0.4219  0.3198  0.0023
11031SOL    HW133936   0.893   0.927   0.056 -0.9115 -0.1278 -0.8452
11031SOL    HW233937   0.906   0.781   0.018 -0.1512 -0.6067  1.1184
11032SOL     OW33938   1.726   7.333   5.992  0.0339  0.1057  0.7293
11032SOL    HW133939   1.728   7.342   5.897  0.6381  0.1323  0.7460
11032SOL    HW233940   1.807   7.289   6.014  0.0522  0.4011  1.2640
11033SOL     OW33941   5.280   2.353   7.613 -0.0344 -0.0045  0.0176
11033SOL    HW133942   5.371   2.382   7.623  0.3822 -0.9475 -0.8363
11033SOL    HW233943   5.279   2.304   7.531 -1.0052 -1.1658  0.6775
11034SOL     OW33944   0.192   1.464   4.436 -0.0641 -0.1037 -0.4684
11034SOL    HW133945   0.150   1.530   4.381  1.1044  0.8873 -0.1923
11034SOL    HW233946   0.285   1.472   4.417  0.1672 -1.1014  0.1953
11035SOL     OW33947   6.568   1.979   7.705 -0.2287 -0.2966  0.0975
11035SOL    HW133948   6.553   1.892   7.669  1.1122 -0.0401 -1.1885
11035SOL    HW233949   6.612   2.027   7.634  1.1673  0.7048  1.5891
11036SOL     OW33950   1.163   6.325   2.382  0.3605  0.0124  0.1416
11036SOL    HW133951   1.218   6.312   2.305 -0.9922  0.6157 -0.9790
11036SOL    HW233952   1.180   6.416   2.408  0.0457  0.1315 -0.0732
11037SOL     OW33953   7.438   3.617   1.736 -0.3532 -0.3525  0.0343
11037SOL    HW133954   7.511   3.619   1.798  0.0680  2.6053 -0.4323
11037SOL    HW233955   7.370   3.567   1.781  0.6900 -0.1198  1.9792
11038SOL     OW33956   0.141   7.064   7.256 -0.0909 -0.3446 -0.3273
11038SOL    HW133957   0.225   7.023   7.236 -0.1885 -1.2763  1.0681
11038SOL    HW233958   0.093   6.998   7.306 -1.0000  0.7868  0.3362
11039SOL     OW33959   7.200   0.504   4.138  0.3589 -0.4981 -0.0095
11039SOL    HW133960   7.270   0.502   4.203  0.5245  2.2325  0.0280
11039SOL    HW233961   7.245   0.508   4.054  0.1679 -1.8288 -0.1942
11040SOL     OW33962   1.026   6.966   2.934 -0.3420 -0.2204 -0.2797
11040SOL    HW133963   1.042   6.968   2.840 -1.7139  2.5061 -0.5391
11040SOL    HW233964   1.097   7.019   2.971  0.0446 -1.0705  0.2230
11041SOL     OW33965   4.899   1.331   0.629 -0.0237  0.5126  0.7091
11041SOL    HW133966   4.938   1.404   0.581 -0.4247  0.6956  0.6551
11041SOL    HW233967   4.809   1.328   0.598  0.4328 -1.1278 -0.6300
11042SOL     OW33968   2.593   2.117   0.463 -0.4378 -0.4090 -0.5626
11042SOL    HW133969   2.677   2.072   0.460 -0.2241 -0.0264 -0.3718
11042SOL    HW233970   2.599   2.186   0.397 -0.3927 -0.0304 -0.1690
11043SOL     OW33971   7.596   2.027   7.705 -0.4942 -0.4589  0.3015
11043SOL    HW133972   7.518   2.083   7.694 -0.1118  0.2423  1.0506
11043SOL    HW233973   7.654   2.078   7.761  1.8489  0.3721 -2.6529
11044SOL     OW33974   6.773   7.034   3.940 -0.5692 -0.5804  0.0601
11044SOL    HW133975   6.687   6.998   3.918 -1.2732  0.6350  0.7449
11044SOL    HW233976   6.833   6.992   3.878 -1.4357 -2.4195  0.4220
11045SOL     OW33977   2.131   2.330   1.979 -0.8533 -0.4756 -0.5573
11045SOL    HW133978   2.065   2.262   1.994  1.0849 -2.2881  0.3325
11045SOL    HW233979   2.118   2.392   2.050 -1.5478 -0.8406 -0.3561
11046SOL     OW33980   5.715   7.802   4.893 -0.7404  0.4338 -0.8685
11046SOL    HW133981   5.636   7.768   4.936 -0.1278 -0.7728 -0.6562
11046SOL    HW233982   5.738   7.735   4.829  1.4181 -0.3638  0.6564
11047SOL     OW33983   5.671   7.371   5.708  0.3899 -0.3979 -0.2836
11047SOL    HW133984   5.644   7.352   5.619  0.7836  0.2993 -0.5685
11047SOL    HW233985   5.591   7.369   5.760  0.2434 -1.3961 -0.5416
11048SOL     OW33986   4.270   7.188   3.374  0.2617  0.1199  0.0436
11048SOL    HW133987   4.313   7.105   3.391  1.1736  0.7660  1.0419
11048SOL    HW233988   4.177   7.169   3.380  0.3315 -1.3144 -2.1890
11049SOL     OW33989   7.636   3.983   7.010  0.0248  0.1896 -0.0164
11049SOL    HW133990   7.608   3.962   6.921  0.6624  1.4329 -0.5364
11049SOL    HW233991   7.674   3.902   7.043 -0.2944 -0.3079 -0.8388
11050SOL     OW33992   5.869   6.643   7.296 -0.6510 -0.0802 -0.4288
11050SOL    HW133993   5.892   6.553   7.320 -0.6058 -0.2157 -0.9578
11050SOL    HW233994   5.800   6.668   7.358  1.1418  0.4696  1.4464
11051SOL     OW33995   4.796   0.609   2.847  0.2766 -0.5308 -0.1094
11051SOL    HW133996   4.852   0.537   2.874 -0.6122 -1.1022  0.2388
11051SOL    HW233997   4.786   0.598   2.753  0.2809 -0.7632 -0.0830
11052SOL     OW33998   3.005   7.189   0.183  0.0381 -0.3036  0.2789
11052SOL    HW133999   3.052   7.226   0.109  0.6632 -0.4986  0.5703
11052SOL    HW234000   2.948   7.259   0.213 -0.6684 -0.4119 -0.7535
11053SOL     OW34001   3.953   4.453   7.384 -0.4237 -0.2756  0.2156
11053SOL    HW134002   3.931   4.530   7.331  1.3240 -0.0297 -0.2034
11053SOL    HW234003   3.972   4.385   7.320  0.1830 -0.4251  0.5525
11054SOL     OW34004   6.770   4.723   0.578 -0.2420  0.2670 -0.0812
11054SOL    HW134005   6.852   4.708   0.530 -0.7798  0.0395 -0.9687
11054SOL    HW234006   6.791   4.702   0.669  0.1553 -1.9628 -0.6140
11055SOL     OW34007   5.588   2.259   0.550 -0.9457 -0.0706 -0.1930
11055SOL    HW134008   5.608   2.193   0.484 -2.0674 -0.2468 -0.3791
11055SOL    HW234009   5.542   2.211   0.619 -1.9246  0.5209 -0.4092
11056SOL     OW34010   2.464   7.928   4.877  0.2934  0.3162 -0.2775
11056SOL    HW134011   2.405   7.972   4.938  1.9993 -0.3251  2.0165
11056SOL    HW234012   2.520   7.998   4.843  0.7610  0.4085  0.6554
11057SOL     OW34013   5.590   2.218   6.151 -0.5613 -0.6389  0.3398
11057SOL    HW134014   5.661   2.272   6.186 -0.4341 -0.3952 -0.2813
11057SOL    HW234015   5.601   2.224   6.056  0.6994 -3.3446  0.2087
11058SOL     OW34016   7.511   1.327   2.546  0.2499 -0.7712 -0.7100
11058SOL    HW134017   7.460   1.408   2.541  1.4629 -0.0543 -2.3323
11058SOL    HW234018   7.476   1.281   2.622 -1.1077  0.8354 -0.3143
11059SOL     OW34019   0.283   4.484   4.634 -0.0037 -0.3374 -0.1047
11059SOL    HW134020   0.377   4.474   4.622  0.2843  0.2517  1.3728
11059SOL    HW234021   0.272   4.576   4.659 -0.9479 -0.4382 -0.1044
11060SOL     OW34022   2.870   2.625   0.898 -0.5754  0.1728  0.5172
11060SOL    HW134023   2.822   2.564   0.841 -2.2345 -0.2541  2.2901
11060SOL    HW234024   2.835   2.609   0.985 -0.0779  2.7258  1.2585
11061SOL     OW34025   3.450   4.008   3.110  0.6086  0.4395  0.0662
11061SOL    HW134026   3.521   4.027   3.171 -0.2062 -0.1273  1.2118
11061SOL    HW234027   3.423   3.919   3.131 -1.2091  1.0436  0.4176
11062SOL     OW34028   5.177   4.661   6.500  0.7054  0.3148  0.2648
11062SOL    HW134029   5.146   4.749   6.479 -0.0563  0.4216  1.7261
11062SOL    HW234030   5.142   4.606   6.429  1.6706  1.2530 -0.9698
11063SOL     OW34031   1.679   2.941   1.353  0.2172  0.2356 -0.3075
11063SOL    HW134032   1.754   2.915   1.407 -0.5766 -2.0369 -0.2330
11063SOL    HW234033   1.602   2.909   1.401 -0.7863  1.6937 -0.8601
11064SOL     OW34034   1.722   7.297   7.047 -0.0737 -0.0628 -0.1205
11064SOL    HW134035   1.701   7.378   7.094  1.4944  0.2356  0.1268
11064SOL    HW234036   1.680   7.307   6.961  1.4851  1.8027 -0.7283
11065SOL     OW34037   5.759   3.708   1.813 -0.3128  0.0925 -0.8666
11065SOL    HW134038   5.852   3.705   1.790 -0.1910 -1.6884 -0.2532
11065SOL    HW234039   5.742   3.801   1.831  1.0213  0.6358 -2.1904
11066SOL     OW34040   1.351   2.668   2.314  0.1671 -0.1597 -0.1538
11066SOL    HW134041   1.339   2.626   2.399 -0.4611 -1.1866 -0.7222
11066SOL    HW234042   1.279   2.731   2.308 -1.5850 -2.1278 -1.0811
11067SOL     OW34043   4.033   5.472   4.395  0.2683  0.3831 -0.0709
11067SOL    HW134044   3.944   5.448   4.370  0.2353  0.6899 -0.2567
11067SOL    HW234045   4.063   5.401   4.451  0.3223 -0.2810 -0.9225
11068SOL     OW34046   4.817   3.120   2.558  0.3324 -0.0307  1.2098
11068SOL    HW134047   4.888   3.059   2.539 -0.2970 -0.3355 -0.2466
11068SOL    HW234048   4.834   3.195   2.501 -1.8874 -1.1890 -1.1368
11069SOL     OW34049   3.631   4.823   4.047 -0.3187  0.0637 -0.0611
11069SOL    HW134050   3.634   4.738   4.092 -1.1367  0.1750  0.2066
11069SOL    HW234051   3.575   4.877   4.102  0.9775  1.0916  0.2930
11070SOL     OW34052   6.614   2.774   2.959 -0.4116 -0.3201  0.2579
11070SOL    HW134053   6.531   2.815   2.933 -0.1726  1.5938  2.2858
11070SOL    HW234054   6.674   2.794   2.887 -0.8175  1.3337  0.3482
11071SOL     OW34055   4.765   0.944   1.794  0.1589  0.2706  0.1467
11071SOL    HW134056   4.849   0.984   1.816 -0.4763  1.4196  0.5396
11071SOL    HW234057   4.757   0.956   1.699  0.4133  0.1892  0.1138
11072SOL     OW34058   5.969   7.583   6.953  0.2152 -0.3047 -0.0414
11072SOL    HW134059   5.929   7.496   6.962 -2.9006  1.0192  0.1498
11072SOL    HW234060   5.936   7.632   7.029  0.0496  1.6897 -1.3444
11073SOL     OW34061   2.354   0.145   2.848  0.5423  0.6384  0.6993
11073SOL    HW134062   2.339   0.226   2.798  0.3357  0.2271  0.0836
11073SOL    HW234063   2.421   0.099   2.798 -1.3000 -0.8682 -0.5341
11074SOL     OW34064   4.017   2.521   3.379  0.1843  0.3088  0.1034
11074SOL    HW134065   3.973   2.458   3.321 -0.8246 -0.7336  1.9085
11074SOL    HW234066   4.014   2.480   3.465  4.5723  0.2429  0.4389
11075SOL     OW34067   5.324   5.822   0.514 -0.3854 -0.0081  0.3142
11075SOL    HW134068   5.232   5.843   0.526 -0.1340  0.4151  1.7215
11075SOL    HW234069   5.343   5.848   0.424 -0.9201  2.8154  0.9067
11076SOL     OW34070   4.223   8.141   1.138 -0.7115 -0.0825 -0.4890
11076SOL    HW134071   4.283   8.215   1.147  0.1579 -0.5828 -1.8985
11076SOL    HW234072   4.275   8.072   1.097 -2.1136 -0.6855 -1.3467
11077SOL     OW34073   4.232   3.431   5.254  0.3448  0.1577 -0.0851
11077SOL    HW134074   4.219   3.468   5.341 -2.7072  0.5439 -0.5980
11077SOL    HW234075   4.150   3.450   5.208  1.9588  0.2312 -3.1559
11078SOL     OW34076   0.924   3.987   5.752 -0.3917  0.2922  0.3730
11078SOL    HW134077   0.909   3.892   5.754 -1.2774  0.4267  0.5021
11078SOL    HW234078   1.017   3.996   5.732 -0.7113 -0.5785 -1.7393
11079SOL     OW34079   0.351   2.449   3.409 -0.7723  0.5312 -0.2103
11079SOL    HW134080   0.275   2.395   3.387 -1.7880  1.5617  0.5987
11079SOL    HW234081   0.424   2.388   3.411 -1.5267 -0.4659 -1.2120
11080SOL     OW34082   1.642   2.381   4.135  0.2910 -0.5453  0.3954
11080SOL    HW134083   1.731   2.382   4.100  0.0773 -1.4913 -0.2154
11080SOL    HW234084   1.592   2.435   4.073  0.2942 -0.6177  0.3298
11081SOL     OW34085   6.809   5.080   4.282 -0.1060 -0.6696 -0.4689
11081SOL    HW134086   6.808   5.149   4.348 -0.4691 -1.1728  0.0622
11081SOL    HW234087   6.835   5.124   4.201 -2.0391  0.4609 -0.5434
11082SOL     OW34088   5.303   6.248   3.519  0.2042 -0.3213 -0.1615
11082SOL    HW134089   5.304   6.291   3.434  1.9814 -1.8496 -0.9935
11082SOL    HW234090   5.288   6.319   3.582 -3.3603  0.5790 -1.7803
11083SOL     OW34091   1.026   1.223   2.669 -0.0377 -0.2990 -0.6496
11083SOL    HW134092   1.096   1.207   2.606 -1.7089 -0.0255 -2.6945
11083SOL    HW234093   0.955   1.260   2.617 -1.6231 -0.3146  1.3670
11084SOL     OW34094   2.651   0.356   0.343 -0.2711 -0.2237  0.4995
11084SOL    HW134095   2.743   0.381   0.333 -0.4970  0.0514 -1.0893
11084SOL    HW234096   2.651   0.297   0.419  0.4198  3.8849  4.0885
11085SOL     OW34097   1.285   0.287   1.460  0.2032 -0.5387 -0.8636
11085SOL    HW134098   1.362   0.276   1.406 -0.2749 -0.1441 -1.6355
11085SOL    HW234099   1.243   0.367   1.429  1.8190  1.8475  2.4711
11086SOL     OW34100   1.580   4.998   0.193  0.2215 -0.0017 -0.1383
11086SOL    HW134101   1.536   5.081   0.212 -0.3981  0.2916 -2.4588
11086SOL    HW234102   1.628   4.977   0.273  0.5189  2.6752  0.4946
11087SOL     OW34103   2.775   3.765   6.664  0.3149  0.6636 -0.0602
11087SOL    HW134104   2.760   3.834   6.728 -0.9395 -0.6724  1.1844
11087SOL    HW234105   2.769   3.808   6.579 -1.3669  1.9222  0.6549
11088SOL     OW34106   4.714   1.660   5.740 -0.2035 -0.8069  0.2461
11088SOL    HW134107   4.681   1.747   5.762  1.4743  0.0709 -0.5328
11088SOL    HW234108   4.739   1.622   5.823 -1.6586 -0.8651  0.6771
11089SOL     OW34109   7.789   4.526   7.737  0.4061  0.5036 -0.2731
11089SOL    HW134110   7.810   4.434   7.723 -0.5260 -0.0894  1.7712
11089SOL    HW234111   7.697   4.535   7.711 -0.3423  0.1438  1.9870
11090SOL     OW34112   1.692   6.501   0.702  0.0201 -0.4822 -0.4832
11090SOL    HW134113   1.708   6.569   0.637  0.4984 -1.1468 -1.0820
11090SOL    HW234114   1.682   6.420   0.650 -0.6122 -0.8618  0.2004
11091SOL     OW34115   3.792   4.571   4.325  0.0903 -0.3047 -0.1398
11091SOL    HW134116   3.876   4.618   4.328 -0.8711  1.6622 -1.4857
11091SOL    HW234117   3.728   4.637   4.354 -1.1219 -1.3979 -0.2728
11092SOL     OW34118   4.142   6.426   5.121  0.3095  0.5702  0.2719
11092SOL    HW134119   4.127   6.476   5.201 -2.5680 -0.7201  0.6506
11092SOL    HW234120   4.092   6.473   5.054 -1.8846 -1.3054  0.4904
11093SOL     OW34121   8.091   5.317   5.359  0.5019  0.1325 -0.2892
11093SOL    HW134122   8.113   5.312   5.266 -0.8280 -3.3454 -0.5648
11093SOL    HW234123   8.002   5.284   5.365  0.9904 -1.0070  2.3286
11094SOL     OW34124   7.852   3.014   1.642  0.3109  0.0676  0.5154
11094SOL    HW134125   7.885   2.925   1.630  1.3101  0.6444 -1.3388
11094SOL    HW234126   7.877   3.037   1.731  0.2647 -1.4069  0.9382
11095SOL     OW34127   3.798   0.136   4.080 -0.5931  0.0577 -0.4915
11095SOL    HW134128   3.739   0.210   4.068  0.2458  0.7061 -0.6736
11095SOL    HW234129   3.751   0.078   4.141 -1.6223  0.3163 -1.0135
11096SOL     OW34130   0.617   3.384   0.122  0.1650  0.8187  0.0922
11096SOL    HW134131   0.642   3.431   0.042  0.1294 -0.7719 -0.9001
11096SOL    HW234132   0.525   3.360   0.107  0.1694  0.4759  0.5970
11097SOL     OW34133   4.543   4.273   2.130 -0.2331 -0.4193  0.4648
11097SOL    HW134134   4.474   4.209   2.143 -1.9917  0.9581 -1.3594
11097SOL    HW234135   4.528   4.340   2.197  0.5943 -1.0621  1.3204
11098SOL     OW34136   7.364   0.702   0.497  0.0103 -0.1761 -0.6297
11098SOL    HW134137   7.340   0.777   0.442 -0.5979  1.5351  1.7848
11098SOL    HW234138   7.309   0.711   0.575  0.8292 -2.4662  0.2929
11099SOL     OW34139   2.177   2.069   1.754  0.3438 -0.0481 -0.5370
11099SOL    HW134140   2.220   2.008   1.695  1.7391 -0.7704  1.1355
11099SOL    HW234141   2.225   2.151   1.744 -1.2467  0.7186 -2.4522
11100SOL     OW34142   7.932   2.764   7.802 -0.0358  0.1414 -0.6916
11100SOL    HW134143   7.903   2.817   7.727  0.2690  2.1435  0.5426
11100SOL    HW234144   8.027   2.775   7.802  0.0593 -0.6614 -0.5744
11101SOL     OW34145   1.574   2.717   7.906 -1.0514 -0.2960  0.4250
11101SOL    HW134146   1.495   2.712   7.853 -0.7491 -1.7248  0.0647
11101SOL    HW234147   1.643   2.743   7.844 -1.1884  0.8318  0.7149
11102SOL     OW34148   6.216   7.748   2.845 -0.0317  0.3993 -0.5935
11102SOL    HW134149   6.136   7.753   2.897 -0.6785 -1.7329 -1.2888
11102SOL    HW234150   6.186   7.721   2.758  1.3814  0.1475 -1.0223
11103SOL     OW34151   8.051   0.755   4.570 -0.0885  0.2853  0.2079
11103SOL    HW134152   8.006   0.675   4.542 -0.1644  0.5795 -0.5167
11103SOL    HW234153   8.016   0.772   4.657 -1.3713  0.4962 -0.3315
11104SOL     OW34154   2.763   1.008   2.878  0.2215 -0.4436 -0.4357
11104SOL    HW134155   2.713   1.087   2.901  1.6304  0.6167 -0.8711
11104SOL    HW234156   2.802   1.029   2.794  0.0698 -1.9020 -0.8908
11105SOL     OW34157   7.467   6.328   3.314 -0.1496 -0.2524  0.4432
11105SOL    HW134158   7.494   6.290   3.230 -0.6307  1.2064 -0.4111
11105SOL    HW234159   7.450   6.252   3.370  0.2935 -1.2651 -0.7355
11106SOL     OW34160   3.678   5.516   2.764  0.1782 -0.7357 -0.0258
11106SOL    HW134161   3.655   5.588   2.823 -0.6404 -1.1315  0.1681
11106SOL    HW234162   3.697   5.443   2.823  0.3765 -0.8513 -0.2333
11107SOL     OW34163   2.077   7.982   5.528  0.2143  0.4089  0.2235
11107SOL    HW134164   1.998   7.999   5.580  0.4014 -0.7577  0.9355
11107SOL    HW234165   2.141   7.951   5.591  1.0330  0.6902 -0.4547
11108SOL     OW34166   3.557   5.341   6.542  0.0505 -0.6464  0.1062
11108SOL    HW134167   3.553   5.280   6.468  2.0153 -0.7815  0.0449
11108SOL    HW234168   3.490   5.311   6.603  0.2020 -2.1728 -0.4513
11109SOL     OW34169   8.168   3.322   2.051 -0.1991  0.9848  0.4346
11109SOL    HW134170   8.181   3.364   1.966 -0.9250 -0.3431 -0.3754
11109SOL    HW234171   8.234   3.362   2.108  1.7642  0.4148 -1.2992
11110SOL     OW34172   1.941   0.672   3.606 -0.1499 -0.1733 -0.2790
11110SOL    HW134173   1.969   0.585   3.636  1.5247  0.0099 -1.1572
11110SOL    HW234174   1.887   0.654   3.529  0.8747 -0.4374 -0.9574
11111SOL     OW34175   8.207   6.498   7.707  0.2914 -0.1110 -0.3904
11111SOL    HW134176   8.134   6.478   7.766 -1.3006 -1.5958 -2.6939
11111SOL    HW234177   8.192   6.589   7.681 -1.5778 -0.7542 -1.8030
11112SOL     OW34178   5.062   0.376   3.506 -0.3662  0.0764  0.5617
11112SOL    HW134179   5.139   0.417   3.544 -0.0499 -0.1913  0.2180
11112SOL    HW234180   5.005   0.448   3.480 -1.0539  0.2679  2.4677
11113SOL     OW34181   3.681   2.644   7.168  0.4922 -0.1746 -0.1353
11113SOL    HW134182   3.707   2.626   7.078  2.1264 -0.4120  0.3486
11113SOL    HW234183   3.687   2.739   7.177  0.2366 -0.1415 -0.2827
11114SOL     OW34184   7.637   4.862   0.723  0.2682 -0.4026 -0.0291
11114SOL    HW134185   7.570   4.835   0.786  0.9228  1.8016  1.7248
11114SOL    HW234186   7.665   4.780   0.683 -2.2007 -1.5865  0.4457
11115SOL     OW34187   4.025   7.471   4.495 -0.1114 -0.0774 -0.2985
11115SOL    HW134188   3.968   7.494   4.422 -0.4799  0.1187  0.0478
11115SOL    HW234189   3.980   7.399   4.540  0.8284 -1.2124 -1.1202
11116SOL     OW34190   2.485   1.411   7.284  0.1497  0.3406 -0.0941
11116SOL    HW134191   2.544   1.343   7.317  1.9463  1.9731  0.2190
11116SOL    HW234192   2.540   1.465   7.227 -0.9514  2.0970  0.4386
11117SOL     OW34193   5.008   2.078   1.955 -0.1395  0.2810  0.4242
11117SOL    HW134194   5.052   2.039   1.880 -2.9260 -0.7690 -0.7842
11117SOL    HW234195   4.989   2.004   2.013  0.0623  0.7700  1.1259
11118SOL     OW34196   4.062   5.000   1.317  0.1301 -0.2577  0.2193
11118SOL    HW134197   4.041   4.989   1.224  0.1164 -0.2971  0.2274
11118SOL    HW234198   4.065   4.911   1.352 -0.9692 -0.1963  0.4995
11119SOL     OW34199   0.636   3.010   5.291 -0.6971 -0.2833  0.3731
11119SOL    HW134200   0.561   3.052   5.335 -0.1338  0.1939  0.8953
11119SOL    HW234201   0.688   3.083   5.258 -0.3446 -0.6083  0.2073
11120SOL     OW34202   2.511   4.374   0.734  0.1703  0.0357 -0.0564
11120SOL    HW134203   2.603   4.372   0.709  0.3257  0.1121  0.5033
11120SOL    HW234204   2.493   4.285   0.765  0.4722  0.4258  1.2945
11121SOL     OW34205   7.013   5.953   4.429 -0.2865 -0.2064 -0.0849
11121SOL    HW134206   7.031   5.979   4.519  2.2911 -1.5865 -0.1203
11121SOL    HW234207   6.951   5.880   4.436  0.2182 -0.5729  0.5932
11122SOL     OW34208   4.207   4.054   4.108  0.7135  0.1078  0.1746
11122SOL    HW134209   4.199   4.149   4.099 -0.3738  0.0570  0.4990
11122SOL    HW234210   4.130   4.018   4.064  2.0950 -0.7539 -1.6960
11123SOL     OW34211   3.512   7.515   6.893 -0.7346  0.7070 -0.3649
11123SOL    HW134212   3.436   7.562   6.859  0.0423  1.8054 -0.6476
11123SOL    HW234213   3.584   7.543   6.837  0.3590  1.6232  1.3948
11124SOL     OW34214   7.659   7.167   5.057  0.2792 -0.2264  0.4177
11124SOL    HW134215   7.710   7.241   5.092  1.4507  0.0635 -1.7210
11124SOL    HW234216   7.570   7.202   5.047  0.8600  0.9950 -0.7405
11125SOL     OW34217   2.055   0.383   6.665 -0.1167 -0.0180  0.0385
11125SOL    HW134218   2.127   0.334   6.624  1.9182  2.6351  0.1650
11125SOL    HW234219   2.086   0.399   6.754 -1.0547  0.8475  0.2139
11126SOL     OW34220   4.415   7.026   2.070  0.4824  0.3549  0.0726
11126SOL    HW134221   4.449   6.999   2.155 -1.3989 -0.7032  0.5334
11126SOL    HW234222   4.452   6.964   2.008  0.6395  0.1843  0.3363
11127SOL     OW34223   1.461   4.345   4.768 -0.6515 -0.1777 -0.4543
11127SOL    HW134224   1.462   4.346   4.864 -1.9167 -0.0209 -0.4228
11127SOL    HW234225   1.489   4.256   4.745  2.4575  0.5793 -0.0624
11128SOL     OW34226   3.037   4.390   0.854  0.2183 -0.1173 -0.6027
11128SOL    HW134227   3.079   4.447   0.920  0.1838 -1.1779  0.3657
11128SOL    HW234228   3.091   4.312   0.852 -0.7261 -0.7842 -0.6245
11129SOL     OW34229   7.293   4.173   5.335 -0.2244  0.2877  0.7173
11129SOL    HW134230   7.306   4.251   5.390  1.3923 -0.7349  1.8617
11129SOL    HW234231   7.260   4.106   5.395  0.3486 -0.4814  0.1947
11130SOL     OW34232   4.540   8.159   1.291 -0.1060  0.4446 -0.4664
11130SOL    HW134233   4.635   8.157   1.283  0.0213 -1.8456  0.8501
11130SOL    HW234234   4.511   8.213   1.217  2.1315  0.2611 -1.5708
11131SOL     OW34235   5.151   0.101   5.580  0.5993  0.2618 -0.1298
11131SOL    HW134236   5.207   0.159   5.632  0.3191 -1.7805  2.7009
11131SOL    HW234237   5.062   0.129   5.601  0.4896 -0.0200 -0.2241
11132SOL     OW34238   2.257   8.211   6.257 -0.0982 -0.1513  0.7695
11132SOL    HW134239   2.318   8.253   6.197  0.7190 -1.5605  0.5739
11132SOL    HW234240   2.221   8.137   6.207 -1.5076  0.2916  1.0896
11133SOL     OW34241   6.578   1.177   0.198 -0.5084  0.2486 -0.1255
11133SOL    HW134242   6.600   1.203   0.287  0.5738  2.9271 -1.0791
11133SOL    HW234243   6.483   1.164   0.199 -0.3669 -1.0601  1.6514
11134SOL     OW34244   5.381   4.866   1.139  0.3799 -0.2190 -0.1760
11134SOL    HW134245   5.365   4.960   1.140  0.4073 -0.2117 -0.4572
11134SOL    HW234246   5.379   4.840   1.232 -0.5336 -0.0958 -0.1475
11135SOL     OW34247   6.016   7.145   0.660  0.0121  0.2807  0.2416
11135SOL    HW134248   6.068   7.198   0.600  0.1995 -0.1601  0.0085
11135SOL    HW234249   6.028   7.055   0.628 -1.4594  0.2413 -0.2521
11136SOL     OW34250   1.912   1.073   0.800 -0.4229  0.5909 -0.2492
11136SOL    HW134251   1.966   1.149   0.821  1.6784 -1.0189  0.4012
11136SOL    HW234252   1.894   1.083   0.706  2.0968  0.5661 -0.8094
11137SOL     OW34253   4.276   2.268   0.359 -0.2551 -0.2429 -0.0799
11137SOL    HW134254   4.290   2.207   0.286 -0.1252 -0.9985  0.5554
11137SOL    HW234255   4.181   2.275   0.367 -0.3306 -1.6811  0.8617
11138SOL     OW34256   5.246   6.692   4.871 -0.4973  0.0875  0.3721
11138SOL    HW134257   5.167   6.740   4.843  0.7286  1.4332 -0.9775
11138SOL    HW234258   5.313   6.760   4.880  0.6350 -1.0805  1.0941
11139SOL     OW34259   6.307   0.343   3.816  0.1215 -0.1346 -0.2243
11139SOL    HW134260   6.248   0.303   3.880  1.2424 -0.8917  0.3641
11139SOL    HW234261   6.362   0.402   3.868 -2.0999  3.0078 -1.1774
11140SOL     OW34262   7.367   6.816   2.188 -0.1820 -0.1547 -0.0078
11140SOL    HW134263   7.345   6.908   2.197 -0.7946 -0.3039  0.1265
11140SOL    HW234264   7.338   6.776   2.270  0.5292 -0.3878  0.1372
11141SOL     OW34265   7.882   3.238   0.838  0.3994  0.1949  0.4658
11141SOL    HW134266   7.834   3.299   0.893 -0.4499 -0.9984  1.1018
11141SOL    HW234267   7.836   3.239   0.754  0.3844  0.4136  0.4767
11142SOL     OW34268   1.419   7.121   4.157 -0.0716 -0.5149  0.3385
11142SOL    HW134269   1.412   7.061   4.082 -1.0189 -0.7842  0.6271
11142SOL    HW234270   1.329   7.130   4.188  0.3618 -0.7676  1.7321
11143SOL     OW34271   0.872   4.185   2.355  0.1882  0.0292  0.0379
11143SOL    HW134272   0.798   4.163   2.412  1.3486 -1.4208  1.0633
11143SOL    HW234273   0.914   4.260   2.398 -0.5549  0.7419 -0.4527
11144SOL     OW34274   5.576   3.442   0.840 -0.2450  0.2614  0.1111
11144SOL    HW134275   5.491   3.485   0.832 -0.3449  0.0686  0.1526
11144SOL    HW234276   5.618   3.457   0.755 -0.8789 -0.8592 -0.4242
11145SOL     OW34277   4.866   6.993   3.217 -0.1144 -0.4010 -0.1677
11145SOL    HW134278   4.779   6.963   3.246  0.4177 -1.4443  0.4050
11145SOL    HW234279   4.916   7.004   3.298  0.0267  1.0900 -0.4375
11146SOL     OW34280   0.178   3.080   5.014  0.1475  0.2774  0.3884
11146SOL    HW134281   0.199   2.988   5.034  1.4620  0.2114 -1.1326
11146SOL    HW234282   0.231   3.130   5.076  2.8454  0.0448 -1.5815
11147SOL     OW34283   5.678   5.029   7.588  0.4329 -0.3378  0.2808
11147SOL    HW134284   5.749   5.032   7.653 -0.2268  1.6781  0.9968
11147SOL    HW234285   5.600   5.008   7.639  0.1026  0.0098 -0.0798
11148SOL     OW34286   8.049   6.630   3.966  0.1862  0.3316 -0.1580
11148SOL    HW134287   8.041   6.686   4.043 -0.0666  1.6688 -1.1057
11148SOL    HW234288   8.120   6.669   3.915  0.7857 -0.9127 -0.3098
11149SOL     OW34289   4.954   0.394   6.924 -0.5434  0.3848  0.9190
11149SOL    HW134290   4.918   0.344   6.851 -1.0049 -2.4173  2.9035
11149SOL    HW234291   5.049   0.382   6.917 -0.4977  1.1129  0.1605
11150SOL     OW34292   7.752   5.743   3.809  0.0583  0.3217  0.3945
11150SOL    HW134293   7.715   5.744   3.721  0.7943 -1.0003  0.0409
11150SOL    HW234294   7.842   5.713   3.797  0.3292  0.6187  1.5518
11151SOL     OW34295   6.849   2.359   5.162 -0.2389 -0.5069 -0.2633
11151SOL    HW134296   6.856   2.337   5.069  0.3405 -1.9297  0.1015
11151SOL    HW234297   6.761   2.330   5.187  0.1285 -1.4335 -0.0363
11152SOL     OW34298   6.934   3.835   1.790 -0.9576 -0.4203 -0.2897
11152SOL    HW134299   6.854   3.783   1.791 -1.5878  0.5211 -0.3978
11152SOL    HW234300   6.994   3.786   1.734 -1.3214 -1.3320  0.1140
11153SOL     OW34301   1.970   7.646   4.516  0.4125 -0.1572  0.3609
11153SOL    HW134302   1.942   7.605   4.433  1.2862 -1.8408  0.8473
11153SOL    HW234303   1.894   7.698   4.543 -1.0253 -1.9268 -0.0204
11154SOL     OW34304   1.364   7.380   2.620 -0.0356 -0.7033 -0.5521
11154SOL    HW134305   1.380   7.474   2.617 -0.7594 -0.5981 -1.3719
11154SOL    HW234306   1.301   7.363   2.550 -0.8679 -1.6080  0.3695
11155SOL     OW34307   6.493   4.705   6.571 -0.4848 -0.1614  0.2066
11155SOL    HW134308   6.418   4.692   6.629 -1.5794  0.0968 -1.0957
11155SOL    HW234309   6.540   4.622   6.575 -0.6529 -0.2250  1.2788
11156SOL     OW34310   6.424   5.383   2.517  0.3384 -0.1844 -0.4573
11156SOL    HW134311   6.499   5.429   2.554  0.2409  0.8386 -1.4892
11156SOL    HW234312   6.379   5.345   2.593  1.3709 -0.0339  0.2482
11157SOL     OW34313   6.156   7.073   7.032  0.4042  0.7861 -0.1587
11157SOL    HW134314   6.242   7.041   7.057  0.2694 -0.6006 -1.3510
11157SOL    HW234315   6.096   7.032   7.094  0.5074  1.1101  0.1627
11158SOL     OW34316   6.121   1.652   4.047 -0.4697 -0.2708 -0.8721
11158SOL    HW134317   6.086   1.648   3.959 -2.1751  0.8664 -0.2976
11158SOL    HW234318   6.091   1.736   4.081 -1.0346 -1.2671  1.2612
11159SOL     OW34319   5.291   6.129   4.217  0.4789  0.1233  0.5141
11159SOL    HW134320   5.239   6.075   4.158 -1.0116 -0.7779  2.5457
11159SOL    HW234321   5.263   6.219   4.199 -0.4757 -0.1996  0.3501
11160SOL     OW34322   4.558   2.016   2.348 -0.1034  0.5805  0.3488
11160SOL    HW134323   4.577   1.926   2.376 -2.9496 -0.1103  0.3451
11160SOL    HW234324   4.637   2.065   2.371  2.3824 -2.2133 -1.3993
11161SOL     OW34325   1.718   7.637   3.464  0.2436 -0.1045 -0.4814
11161SOL    HW134326   1.743   7.553   3.502 -0.1121 -0.2871 -0.6525
11161SOL    HW234327   1.633   7.656   3.502  0.7950  0.7053  0.4045
11162SOL     OW34328   2.908   3.701   1.055  0.1599 -0.5319 -0.1388
11162SOL    HW134329   2.965   3.691   1.131 -1.1557  1.5056  1.2166
11162SOL    HW234330   2.824   3.663   1.082 -0.5695  0.9408 -0.1966
11163SOL     OW34331   5.900   7.526   0.492  0.2927 -0.1218 -0.4133
11163SOL    HW134332   5.818   7.522   0.542 -0.4328  1.3801 -1.3984
11163SOL    HW234333   5.966   7.489   0.550 -1.1639 -1.8980  0.2023
11164SOL     OW34334   3.925   0.543   2.875  0.0128  0.3330  0.2348
11164SOL    HW134335   3.989   0.593   2.926 -0.4936 -1.0836  2.4060
11164SOL    HW234336   3.881   0.488   2.940 -3.1752  0.9659 -1.2010
11165SOL     OW34337   1.278   2.156   2.270  0.3661  0.1163  0.4287
11165SOL    HW134338   1.243   2.241   2.241 -1.2587 -0.1909  1.3369
11165SOL    HW234339   1.323   2.121   2.193 -2.4787 -0.0191 -1.3211
11166SOL     OW34340   1.182   0.249   3.509 -0.0710  0.4600 -0.1336
11166SOL    HW134341   1.255   0.281   3.562 -0.9218  1.1071  0.6744
11166SOL    HW234342   1.104   0.283   3.553 -0.7960  1.2507 -1.9491
11167SOL     OW34343   4.995   4.082   6.382 -0.0821 -0.1150 -0.1086
11167SOL    HW134344   5.000   4.143   6.456 -1.5769  2.4733 -1.9954
11167SOL    HW234345   5.077   4.096   6.334 -0.3564  0.2860 -0.4589
11168SOL     OW34346   2.186   7.066   0.114  0.5765 -0.7566 -0.8704
11168SOL    HW134347   2.242   7.039   0.186  0.9557  0.9820 -0.4717
11168SOL    HW234348   2.121   7.123   0.154  0.2794 -0.4323 -1.7853
11169SOL     OW34349   2.040   1.365   0.802  0.2397 -0.1685  0.1197
11169SOL    HW134350   2.026   1.394   0.712  3.2328 -0.2483 -0.4829
11169SOL    HW234351   1.964   1.398   0.850 -1.3132  0.1003 -2.3459
11170SOL     OW34352   7.327   3.001   7.929 -0.5288 -0.0064 -0.1791
11170SOL    HW134353   7.298   2.926   7.981  1.9576 -0.5210  0.5692
11170SOL    HW234354   7.298   2.981   7.840 -3.0514 -0.0695  0.5624
11171SOL     OW34355   6.091   0.599   0.666 -0.0906  0.2598  0.3264
11171SOL    HW134356   6.112   0.662   0.597 -1.4169 -0.6383 -0.9756
11171SOL    HW234357   6.146   0.523   0.646 -0.8450 -0.1939 -0.0745
11172SOL     OW34358   0.459   3.921   4.439 -0.1720 -0.0187  0.4812
11172SOL    HW134359   0.508   3.956   4.513 -1.1841 -0.1707  1.2374
11172SOL    HW234360   0.416   3.843   4.473  0.7010 -1.0602 -0.7316
11173SOL     OW34361   1.493   7.117   6.140 -0.5324  0.9391 -0.1216
11173SOL    HW134362   1.422   7.057   6.163 -1.2999  1.4064 -1.1702
11173SOL    HW234363   1.571   7.078   6.180 -1.1199 -0.4112 -0.2241
11174SOL     OW34364   7.723   5.587   1.138  0.0949 -0.4348 -0.2540
11174SOL    HW134365   7.640   5.612   1.179 -1.0632  0.2471 -2.7936
11174SOL    HW234366   7.712   5.495   1.116 -0.9251  0.1533 -2.4668
11175SOL     OW34367   2.525   1.882   6.372  0.4571 -0.9776  0.1247
11175SOL    HW134368   2.513   1.790   6.395 -2.5327 -0.4544  1.0902
11175SOL    HW234369   2.475   1.931   6.437  0.5721  1.2361 -1.3069
11176SOL     OW34370   0.287   6.042   3.185  0.2289 -0.2495  0.1679
11176SOL    HW134371   0.370   6.087   3.201 -0.4556  0.4069  2.1749
11176SOL    HW234372   0.223   6.113   3.175 -0.4681 -0.7369  0.9998
11177SOL     OW34373   6.325   2.393   6.391 -0.1280 -0.2303  0.0496
11177SOL    HW134374   6.405   2.432   6.357  0.2086 -0.6419  0.3544
11177SOL    HW234375   6.255   2.425   6.333 -0.2252  2.7171  1.6503
11178SOL     OW34376   1.439   1.583   5.067  0.5238 -0.0018 -0.4494
11178SOL    HW134377   1.365   1.644   5.067 -0.2317 -0.8236 -2.3432
11178SOL    HW234378   1.444   1.551   5.157 -1.5426 -0.0174 -0.2862
11179SOL     OW34379   7.914   4.436   5.344 -0.1640 -0.0645 -0.2252
11179SOL    HW134380   7.889   4.378   5.272 -2.9031 -1.9181  1.9801
11179SOL    HW234381   8.000   4.404   5.371 -1.4569 -3.1532  0.7205
11180SOL     OW34382   7.599   6.083   2.356 -0.6219 -0.1307  0.4927
11180SOL    HW134383   7.667   6.019   2.376  1.2365  1.5153 -0.2755
11180SOL    HW234384   7.552   6.045   2.282  0.6819 -0.4492 -0.2017
11181SOL     OW34385   4.534   7.009   4.146 -0.2052  0.3288 -0.6992
11181SOL    HW134386   4.545   6.959   4.065 -0.5719  1.2166 -1.3090
11181SOL    HW234387   4.454   6.975   4.185 -0.9859  1.0750 -1.6006
11182SOL     OW34388   1.079   2.505   1.119 -0.5677  0.3584 -0.0324
11182SOL    HW134389   1.119   2.422   1.093  0.2594  0.9118 -0.5866
11182SOL    HW234390   1.114   2.522   1.206 -0.1696  0.4756 -0.2130
11183SOL     OW34391   2.483   0.259   4.502  0.3464 -0.2394 -0.5272
11183SOL    HW134392   2.414   0.193   4.511 -0.3588  0.5328 -0.0980
11183SOL    HW234393   2.444   0.328   4.449  0.5708  0.4818  0.2208
11184SOL     OW34394   4.564   6.054   2.702  0.7723  0.7447  0.0450
11184SOL    HW134395   4.533   6.025   2.788 -1.1455 -0.3908 -0.9504
11184SOL    HW234396   4.561   6.149   2.706  0.2783  0.7024  1.0941
11185SOL     OW34397   1.103   5.270   6.748 -0.1879  0.0432  0.2429
11185SOL    HW134398   1.196   5.246   6.740 -0.9068 -2.6114 -1.2022
11185SOL    HW234399   1.089   5.336   6.681  0.3461 -0.6994 -0.6239
11186SOL     OW34400   0.655   1.699   3.038  0.2170 -0.0513 -0.1944
11186SOL    HW134401   0.656   1.614   2.994  0.1738  0.9733 -2.3610
11186SOL    HW234402   0.621   1.682   3.125  1.3274 -2.4193 -0.1625
11187SOL     OW34403   2.313   0.542   5.743 -0.3247  0.0323  0.2184
11187SOL    HW134404   2.324   0.461   5.792 -1.7198 -0.2295  0.1269
11187SOL    HW234405   2.358   0.608   5.795  0.0291 -0.6225  0.7614
11188SOL     OW34406   1.413   4.000   4.316 -0.4119  0.1240 -0.1392
11188SOL    HW134407   1.381   3.936   4.252  2.0192 -1.6146  0.2531
11188SOL    HW234408   1.407   4.084   4.270 -3.4750 -0.3183 -0.7629
11189SOL     OW34409   5.499   8.172   1.094 -0.0494  0.2071 -0.6257
11189SOL    HW134410   5.525   8.097   1.040 -1.2852 -0.3858 -0.4443
11189SOL    HW234411   5.577   8.193   1.145  0.2796 -1.0756 -0.5686
11190SOL     OW34412   2.693   1.721   7.550 -0.0411 -0.3606 -0.0300
11190SOL    HW134413   2.720   1.751   7.637  0.9723 -0.0979 -0.4217
11190SOL    HW234414   2.617   1.775   7.528  0.1926  0.1326  0.3520
11191SOL     OW34415   5.297   5.126   5.417  0.2722  0.1025 -0.2408
11191SOL    HW134416   5.332   5.212   5.441 -1.1928  0.6974 -0.1577
11191SOL    HW234417   5.345   5.103   5.337  1.1684  0.6761  0.1175
11192SOL     OW34418   6.666   2.644   6.476  0.2482 -0.3373  0.2739
11192SOL    HW134419   6.653   2.738   6.468  2.0050 -0.1727 -1.5026
11192SOL    HW234420   6.678   2.629   6.570  1.7311  1.4907  0.4358
11193SOL     OW34421   0.485   7.248   6.404  0.6635 -0.2126 -0.1378
11193SOL    HW134422   0.553   7.298   6.449 -0.7788 -0.1536  2.0754
11193SOL    HW234423   0.455   7.184   6.468 -1.2574 -0.3564 -1.1054
11194SOL     OW34424   2.452   3.588   2.142  0.5445  0.3458 -0.1241
11194SOL    HW134425   2.523   3.648   2.169 -0.2711 -0.2547  4.1547
11194SOL    HW234426   2.382   3.646   2.111  1.6571  1.1671 -1.1797
11195SOL     OW34427   5.243   3.783   1.461  0.7327 -0.4706  0.4158
11195SOL    HW134428   5.252   3.777   1.556  2.8002  0.1610  0.3117
11195SOL    HW234429   5.333   3.788   1.428  0.0574  1.3282 -1.4212
11196SOL     OW34430   5.788   6.844   3.514  0.7233 -0.5162  0.0127
11196SOL    HW134431   5.788   6.749   3.506  2.1281 -0.7439  1.9637
11196SOL    HW234432   5.857   6.873   3.454 -0.6427 -0.5658 -1.6334
11197SOL     OW34433   8.099   6.505   0.382  0.1531 -0.2306 -0.0171
11197SOL    HW134434   8.042   6.438   0.420 -0.0810  0.9413  1.8148
11197SOL    HW234435   8.184   6.461   0.372 -0.4141 -1.2676 -0.4413
11198SOL     OW34436   7.723   3.566   2.942  0.5530 -0.1207  0.0506
11198SOL    HW134437   7.778   3.511   2.998 -1.0995  0.1548  2.0661
11198SOL    HW234438   7.739   3.655   2.973  0.7720  0.2248 -1.0097
11199SOL     OW34439   5.842   8.158   0.895  0.2485  0.0730 -0.1558
11199SOL    HW134440   5.828   8.161   0.989  0.8051  0.1909 -0.0757
11199SOL    HW234441   5.880   8.243   0.874 -0.4959  0.3090 -0.5921
11200SOL     OW34442   2.419   2.646   3.639 -0.2192 -0.2949  0.1962
11200SOL    HW134443   2.454   2.601   3.716 -1.7363 -0.3668  0.8895
11200SOL    HW234444   2.423   2.739   3.662 -0.2034 -0.2888  0.1681
11201SOL     OW34445   4.725   0.932   6.820  0.7139  0.4254  0.5966
11201SOL    HW134446   4.783   0.942   6.745  2.1015  0.8960  1.6846
11201SOL    HW234447   4.652   0.992   6.803  0.1117 -0.7263 -1.1479
11202SOL     OW34448   6.780   7.246   6.813 -0.0566 -0.3044  0.4593
11202SOL    HW134449   6.865   7.223   6.852 -0.5220 -3.1963 -0.0457
11202SOL    HW234450   6.793   7.235   6.719  0.1870  3.6980 -0.1618
11203SOL     OW34451   5.186   7.611   5.920  0.0337  0.4847 -0.3957
11203SOL    HW134452   5.251   7.648   5.981 -1.5715  0.2289  1.5940
11203SOL    HW234453   5.183   7.674   5.848  0.7497  1.7829  0.6431
11204SOL     OW34454   2.547   6.654   1.440 -0.4056 -0.0242 -0.0028
11204SOL    HW134455   2.517   6.608   1.362 -0.4301 -0.3983  0.2288
11204SOL    HW234456   2.593   6.588   1.492  0.3464  0.4114 -0.0875
11205SOL     OW34457   1.511   3.855   6.695  0.1435 -0.0518 -0.3830
11205SOL    HW134458   1.600   3.832   6.721 -0.3540 -0.0176  1.5730
11205SOL    HW234459   1.521   3.924   6.629  1.5990  1.6966  1.5340
11206SOL     OW34460   1.803   3.907   7.461  0.0035  0.0803 -0.2091
11206SOL    HW134461   1.709   3.896   7.447  0.2735 -0.4402 -1.7816
11206SOL    HW234462   1.833   3.822   7.493 -0.3734  0.8703  2.5772
11207SOL     OW34463   2.453   0.575   2.316 -0.1486  0.2425  0.4638
11207SOL    HW134464   2.515   0.644   2.340  0.6083 -0.3789  0.3306
11207SOL    HW234465   2.376   0.622   2.285  0.2461  1.0297  0.6428
11208SOL     OW34466   1.508   6.977   7.786 -0.4407 -0.1593  0.2427
11208SOL    HW134467   1.533   7.059   7.829  0.8779 -0.6104  0.3829
11208SOL    HW234468   1.423   6.996   7.747 -0.6194  0.9675  1.1129
11209SOL     OW34469   5.967   8.108   5.466 -0.0450  0.0683  0.4250
11209SOL    HW134470   5.989   8.195   5.499  0.2662 -0.2872  1.1726
11209SOL    HW234471   5.888   8.084   5.515 -0.3718  0.1021 -0.0842
11210SOL     OW34472   2.091   6.383   2.180  0.2150 -0.4289 -0.2309
11210SOL    HW134473   2.053   6.359   2.264 -1.7448  0.2074 -0.8687
11210SOL    HW234474   2.115   6.299   2.140 -0.0699 -0.8208  0.4014
11211SOL     OW34475   5.500   1.455   1.912  0.2240  0.3165 -0.2694
11211SOL    HW134476   5.515   1.399   1.836 -0.6236 -0.2734 -0.0219
11211SOL    HW234477   5.421   1.419   1.953 -0.8274  2.1839 -0.5503
11212SOL     OW34478   3.666   4.924   5.976  0.2997  0.0244 -0.0122
11212SOL    HW134479   3.674   5.014   5.944 -3.4957  0.8165  0.7306
11212SOL    HW234480   3.648   4.933   6.069  1.7946 -1.6826  0.4952
11213SOL     OW34481   2.976   4.225   3.033  0.0900  0.1506 -0.0188
11213SOL    HW134482   3.070   4.242   3.029  0.2223 -0.1847  1.2991
11213SOL    HW234483   2.968   4.144   3.083 -0.8548 -0.4916 -1.1628
11214SOL     OW34484   1.484   7.384   6.604 -0.1141  0.3815  0.1104
11214SOL    HW134485   1.520   7.447   6.542 -0.1254  1.7472  1.4382
11214SOL    HW234486   1.459   7.309   6.550  1.4856  0.7997 -1.2945
11215SOL     OW34487   2.689   5.127   8.013  0.1361 -0.1276 -0.7844
11215SOL    HW134488   2.778   5.095   7.997  1.7428  0.8175  4.4629
11215SOL    HW234489   2.639   5.049   8.037  0.6124 -0.2535 -0.1776
11216SOL     OW34490   6.926   5.569   6.216 -0.1579 -0.3836  0.2171
11216SOL    HW134491   6.831   5.556   6.216 -0.1023 -0.8292 -0.3206
11216SOL    HW234492   6.943   5.624   6.139 -0.0222  0.0213  0.5363
11217SOL     OW34493   5.200   1.169   6.568 -0.0198 -0.2984  0.0980
11217SOL    HW134494   5.149   1.237   6.524  0.3861  0.5799  0.9537
11217SOL    HW234495   5.183   1.182   6.661 -0.3748 -1.7401  0.2539
11218SOL     OW34496   3.292   1.534   8.135 -0.7555 -0.1401  0.0370
11218SOL    HW134497   3.318   1.547   8.227 -1.5335 -2.5341  0.6559
11218SOL    HW234498   3.376   1.525   8.088 -0.3255 -1.7096  1.0180
11219SOL     OW34499   6.987   3.366   0.721 -0.1202  0.1864 -0.2455
11219SOL    HW134500   6.902   3.330   0.748 -0.2734  0.6802 -0.0584
11219SOL    HW234501   7.050   3.296   0.738 -0.4840 -0.1673 -0.3462
11220SOL     OW34502   5.412   6.374   1.280 -0.0914  0.0738 -0.7045
11220SOL    HW134503   5.332   6.422   1.259 -1.4460 -0.4195  2.7118
11220SOL    HW234504   5.430   6.322   1.201 -2.8910  0.5158 -1.7614
11221SOL     OW34505   2.642   2.393   2.953 -0.7248 -0.0089 -0.1504
11221SOL    HW134506   2.571   2.398   2.889  0.3323 -0.1591 -1.3964
11221SOL    HW234507   2.610   2.334   3.021 -1.3200 -1.1170 -1.3458
11222SOL     OW34508   0.059   4.614   5.202 -0.2487  0.4465 -0.3775
11222SOL    HW134509   0.034   4.676   5.271 -1.4745  1.0476 -1.3243
11222SOL    HW234510  -0.024   4.581   5.168  0.3302  0.1827 -1.5858
11223SOL     OW34511   6.986   6.483   1.207 -0.4070  0.0003  0.5206
11223SOL    HW134512   7.023   6.409   1.158 -4.4351 -1.1180 -1.2665
11223SOL    HW234513   6.955   6.543   1.140 -0.9783  1.2611  1.8620
11224SOL     OW34514   4.062   6.972   4.167  0.0003 -0.8374 -0.4103
11224SOL    HW134515   3.978   7.016   4.184  0.7148  0.0228  1.0406
11224SOL    HW234516   4.128   7.034   4.197  1.1671 -1.6486 -1.2071
11225SOL     OW34517   6.847   2.944   4.576  0.2922  0.0825 -0.0881
11225SOL    HW134518   6.759   2.911   4.555  0.1278  0.8679 -0.6720
11225SOL    HW234519   6.847   3.034   4.544  0.7500  0.6496  1.4258
11226SOL     OW34520   5.677   2.667   5.007  0.3410 -0.5032 -0.3842
11226SOL    HW134521   5.748   2.677   5.070  1.8289 -0.4307 -1.9923
11226SOL    HW234522   5.682   2.576   4.979  0.4574 -0.2411 -1.2412
11227SOL     OW34523   7.079   4.265   6.603  0.3728 -0.4787  0.0956
11227SOL    HW134524   7.063   4.284   6.695  0.0290 -2.1278  0.4056
11227SOL    HW234525   7.131   4.185   6.603 -0.8042 -1.2938 -1.1451
11228SOL     OW34526   3.074   2.185   3.679  0.2261 -0.3428 -0.3213
11228SOL    HW134527   3.015   2.250   3.716  0.3454 -0.5748  0.2972
11228SOL    HW234528   3.077   2.205   3.585 -1.5494 -0.9029 -0.5375
11229SOL     OW34529   4.070   0.941   6.147 -0.1068 -0.1901  0.0514
11229SOL    HW134530   4.098   0.852   6.169  1.8470  0.1970 -0.6498
11229SOL    HW234531   4.029   0.974   6.227 -1.0546 -1.7745  0.2535
11230SOL     OW34532   6.344   3.607   6.746 -0.1460 -0.0931 -0.0024
11230SOL    HW134533   6.405   3.534   6.760 -0.3091  0.0754  1.9116
11230SOL    HW234534   6.339   3.650   6.831 -0.0428  2.1905 -1.0715
11231SOL     OW34535   6.551   6.451   3.923  0.2940 -0.1472 -0.3294
11231SOL    HW134536   6.630   6.434   3.872 -0.1887  0.4998 -1.3272
11231SOL    HW234537   6.480   6.453   3.858 -0.4503 -0.0944  0.4642
11232SOL     OW34538   6.420   1.395   0.429 -0.0346 -0.3335 -0.7447
11232SOL    HW134539   6.492   1.336   0.449 -0.7573 -1.0902 -0.2815
11232SOL    HW234540   6.453   1.482   0.451  0.5823 -0.7184 -0.1135
11233SOL     OW34541   3.421   7.808   1.235  0.3769 -0.7659  0.1809
11233SOL    HW134542   3.416   7.901   1.257  2.3490 -0.7566  0.7146
11233SOL    HW234543   3.375   7.764   1.307  0.6030 -0.2905  0.6208
11234SOL     OW34544   2.567   3.814   2.894  0.3269 -0.0199  0.3160
11234SOL    HW134545   2.637   3.788   2.834 -0.4744  1.9656 -1.6048
11234SOL    HW234546   2.586   3.905   2.914 -0.5717 -0.0692  1.4663
11235SOL     OW34547   1.430   1.277   5.956 -0.5717  0.3641  0.2406
11235SOL    HW134548   1.498   1.237   5.901 -1.2423  0.1218 -0.4170
11235SOL    HW234549   1.448   1.243   6.043 -0.1075 -0.0407 -0.0025
11236SOL     OW34550   0.405   3.577   2.708  0.1923 -0.1484 -0.3529
11236SOL    HW134551   0.491   3.619   2.702  0.3537 -0.6985 -2.5174
11236SOL    HW234552   0.388   3.544   2.620 -2.3958  0.2144 -0.0520
11237SOL     OW34553   0.938   1.825   6.314 -0.3098  0.0910  0.0989
11237SOL    HW134554   0.855   1.779   6.323  1.0917 -2.4406  1.3516
11237SOL    HW234555   0.960   1.817   6.221 -0.8307 -0.4689  0.0160
11238SOL     OW34556   7.897   3.939   6.344  0.5949  0.0504 -0.4792
11238SOL    HW134557   7.889   3.974   6.255  3.8493 -2.5450 -2.0041
11238SOL    HW234558   7.979   3.977   6.377  1.3383 -1.8193 -0.0744
11239SOL     OW34559   6.632   5.536   1.942 -0.6268  0.3319 -0.7770
11239SOL    HW134560   6.629   5.620   1.896  0.1321  1.3309  0.9032
11239SOL    HW234561   6.687   5.480   1.886 -1.4628  0.7917 -2.1086
11240SOL     OW34562   6.996   6.662   0.381  0.0993  0.3993 -0.1072
11240SOL    HW134563   6.999   6.753   0.410 -0.6486  0.7341 -1.0093
11240SOL    HW234564   7.086   6.643   0.352 -0.2182  1.6417 -2.1254
11241SOL     OW34565   2.187   1.992   3.993  0.2597  0.0959  0.3760
11241SOL    HW134566   2.264   1.974   3.940 -0.6409  0.4765 -1.1172
11241SOL    HW234567   2.128   1.918   3.977  0.1003  0.0501  1.1164
11242SOL     OW34568   1.597   6.641   1.289  0.0412 -0.8148  0.0034
11242SOL    HW134569   1.576   6.734   1.293 -0.0720 -0.8566  0.5677
11242SOL    HW234570   1.670   6.635   1.227 -2.2688 -0.8127 -2.9042
11243SOL     OW34571   1.274   5.273   3.610 -0.1124  0.1464  0.0574
11243SOL    HW134572   1.295   5.212   3.680 -0.6508 -0.3431 -0.2025
11243SOL    HW234573   1.192   5.314   3.637  0.0481  0.4824  0.0486
11244SOL     OW34574   7.310   6.675   6.990  0.1839  0.1753 -0.2052
11244SOL    HW134575   7.392   6.686   6.941  0.4266 -0.6070  0.0050
11244SOL    HW234576   7.242   6.705   6.930  0.6293  0.8618 -0.3709
11245SOL     OW34577   3.182   1.370   3.427 -0.5385 -0.1715  0.0323
11245SOL    HW134578   3.197   1.462   3.407  0.0683 -0.3411 -0.3253
11245SOL    HW234579   3.191   1.365   3.522 -1.8886  0.3652  0.2029
11246SOL     OW34580   5.395   5.034   0.512  0.2244  0.3358 -0.2080
11246SOL    HW134581   5.406   4.939   0.506 -0.8192  0.1766  0.1463
11246SOL    HW234582   5.365   5.060   0.425  0.1861  0.2874 -0.2097
11247SOL     OW34583   3.955   0.443   6.654 -0.7293 -0.1767  0.7082
11247SOL    HW134584   4.037   0.395   6.670 -0.7121 -0.5182 -0.3484
11247SOL    HW234585   3.981   0.535   6.652  0.0695 -0.3922 -1.9329
11248SOL     OW34586   0.646   3.504   2.254  0.1719  0.5346 -0.2824
11248SOL    HW134587   0.579   3.451   2.211  0.0772  0.3512  0.0831
11248SOL    HW234588   0.705   3.532   2.184 -0.5045  1.0254 -0.6700
11249SOL     OW34589   1.648   2.775   1.857 -0.2410 -0.4220 -0.2931
11249SOL    HW134590   1.628   2.718   1.931 -0.5431 -0.0993 -0.1251
11249SOL    HW234591   1.713   2.726   1.806  1.7280  0.3185  1.4093
11250SOL     OW34592   5.191   6.725   4.552  0.1879  0.1360  0.8320
11250SOL    HW134593   5.200   6.637   4.590  0.6378  0.4254  1.4153
11250SOL    HW234594   5.278   6.764   4.562  0.3568  0.1943 -0.6092
11251SOL     OW34595   7.407   3.708   7.295  0.3000 -0.2524 -0.0574
11251SOL    HW134596   7.432   3.716   7.203  2.2191 -2.5208  0.1833
11251SOL    HW234597   7.456   3.632   7.327 -1.0137 -0.0873  2.6165
11252SOL     OW34598   2.010   6.130   3.218 -0.4399  0.4890  0.0411
11252SOL    HW134599   2.068   6.204   3.203 -2.1236  1.9724  0.4360
11252SOL    HW234600   2.062   6.053   3.195  1.5637  1.7353  0.1808
11253SOL     OW34601   3.242   5.302   0.633  0.3576 -0.1582  0.3244
11253SOL    HW134602   3.245   5.266   0.544  0.5026 -0.3629  0.4091
11253SOL    HW234603   3.152   5.287   0.662 -0.2348  1.6866 -0.4978
11254SOL     OW34604   4.339   1.380   1.033 -0.2993 -0.3315  0.2675
11254SOL    HW134605   4.347   1.457   0.976  0.0077  0.6208  1.5215
11254SOL    HW234606   4.246   1.375   1.054 -0.4398 -0.7875 -0.4286
11255SOL     OW34607   3.911   1.558   7.364  0.7621  0.2888  0.2576
11255SOL    HW134608   3.945   1.641   7.397  0.7599  0.1118  0.7149
11255SOL    HW234609   3.942   1.493   7.426  0.3447  0.0089  0.1772
11256SOL     OW34610   7.187   7.605   1.858 -0.2149 -0.1757 -0.0434
11256SOL    HW134611   7.103   7.648   1.878  0.1062  0.3726  0.1363
11256SOL    HW234612   7.217   7.570   1.942  0.3769  0.7758  0.1465
11257SOL     OW34613   5.728   1.373   2.937  0.1612 -0.2116 -0.0590
11257SOL    HW134614   5.759   1.382   3.027  1.1501  0.9273 -0.4835
11257SOL    HW234615   5.633   1.382   2.943  0.1117 -1.2394  0.9758
11258SOL     OW34616   3.435   2.567   0.076  0.4251 -0.0116 -0.0363
11258SOL    HW134617   3.351   2.566   0.121 -0.8077 -0.6021 -2.1722
11258SOL    HW234618   3.426   2.635   0.009  1.0770 -1.0314 -1.2198
11259SOL     OW34619   0.067   4.874   8.193  0.2015  0.2746 -0.0929
11259SOL    HW134620   0.069   4.800   8.255  1.2823  1.0426  0.8302
11259SOL    HW234621  -0.026   4.884   8.172 -0.3345  0.5398  2.1104
11260SOL     OW34622   8.013   7.959   4.684  0.6001  0.0614  0.5346
11260SOL    HW134623   8.083   7.963   4.620  1.6229  0.5246  1.6412
11260SOL    HW234624   7.984   8.050   4.694  0.8374  0.0821  1.1179
11261SOL     OW34625   5.253   6.208   2.542  0.3011  0.3911 -0.2910
11261SOL    HW134626   5.167   6.181   2.575 -0.7513  1.8606 -1.7040
11261SOL    HW234627   5.240   6.297   2.509  3.0994  1.9101  2.1957
11262SOL     OW34628   0.372   8.080   2.081 -1.0648 -0.1954 -0.0275
11262SOL    HW134629   0.289   8.033   2.094 -1.1604 -0.3816 -1.1916
11262SOL    HW234630   0.401   8.053   1.994  1.1384 -1.5100  1.0457
11263SOL     OW34631   0.446   6.744   2.596 -0.0877 -0.1785 -0.3238
11263SOL    HW134632   0.484   6.827   2.569 -1.3383  0.2416 -0.8770
11263SOL    HW234633   0.372   6.769   2.652  0.9515 -0.9797  1.5100
11264SOL     OW34634   6.510   0.828   1.986 -0.4466 -0.1448  0.0749
11264SOL    HW134635   6.435   0.864   1.938  0.2433  2.9712  1.0736
11264SOL    HW234636   6.584   0.840   1.927 -0.2103  0.0008  0.4023
11265SOL     OW34637   2.007   5.139   1.642 -0.0830 -0.5185 -0.4921
11265SOL    HW134638   1.925   5.131   1.593  0.7397 -0.9650 -1.8282
11265SOL    HW234639   2.074   5.154   1.575  0.8112  0.8906  0.6414
11266SOL     OW34640   5.844   4.154   7.504  0.1674 -0.7572 -0.1304
11266SOL    HW134641   5.838   4.094   7.430 -0.2148 -0.3327 -0.4496
11266SOL    HW234642   5.921   4.123   7.553 -1.3610 -2.9604  1.0440
11267SOL     OW34643   4.349   4.937   2.063  0.2558  0.2244 -0.4526
11267SOL    HW134644   4.387   5.005   2.118  0.6138  1.0824 -1.6998
11267SOL    HW234645   4.419   4.912   2.003 -0.1736 -0.5288 -0.6578
11268SOL     OW34646   5.657   7.791   1.867  0.3590 -0.4334 -0.6225
11268SOL    HW134647   5.688   7.779   1.956 -0.4139  1.9441  0.0306
11268SOL    HW234648   5.732   7.825   1.819 -0.3712  2.9881  0.3806
11269SOL     OW34649   7.926   0.699   1.610  0.4650  0.3409  0.0446
11269SOL    HW134650   8.007   0.749   1.617  1.2253 -0.6849 -1.2026
11269SOL    HW234651   7.946   0.614   1.649 -0.5704  0.6569  1.3645
11270SOL     OW34652   6.649   6.456   2.309 -0.0921 -0.3268  0.0148
11270SOL    HW134653   6.600   6.538   2.318  0.4715  0.2694 -1.8963
11270SOL    HW234654   6.723   6.479   2.254  0.6279 -1.9241  0.2852
11271SOL     OW34655   2.732   0.600   1.116 -0.0774  0.1052  0.5415
11271SOL    HW134656   2.703   0.513   1.144  0.3875  0.1619  1.2386
11271SOL    HW234657   2.773   0.586   1.031  1.1399 -0.5809  1.2229
11272SOL     OW34658   0.705   6.790   7.007 -0.3314  0.5546 -0.2934
11272SOL    HW134659   0.691   6.810   6.915  0.8062 -1.3586 -0.9365
11272SOL    HW234660   0.800   6.790   7.018 -0.3806 -0.9511  0.4288
11273SOL     OW34661   2.342   0.719   4.487 -0.1677  0.3365  0.3312
11273SOL    HW134662   2.420   0.711   4.433 -0.5876 -0.4967 -0.1649
11273SOL    HW234663   2.324   0.813   4.488  0.6999  0.5157  0.2602
11274SOL     OW34664   6.193   5.884   1.196 -0.3795  0.1767  0.0007
11274SOL    HW134665   6.185   5.947   1.125 -1.8734  0.4345  0.3759
11274SOL    HW234666   6.135   5.812   1.171  0.9577 -0.8707 -0.2071
11275SOL     OW34667   0.033   7.680   0.407  0.2198 -0.1974  0.2677
11275SOL    HW134668   0.087   7.743   0.360  0.1700  0.7084  1.3930
11275SOL    HW234669   0.055   7.693   0.499 -1.1437 -0.5401  0.6662
11276SOL     OW34670   7.619   7.883   0.491  0.0524  0.0782  0.3895
11276SOL    HW134671   7.693   7.938   0.517 -1.3412  1.0574  2.4677
11276SOL    HW234672   7.606   7.904   0.399  2.3895 -0.2022 -0.0844
11277SOL     OW34673   0.608   5.473   4.094 -0.2083  0.5964 -0.4439
11277SOL    HW134674   0.527   5.424   4.103 -0.1481 -0.0324 -2.6256
11277SOL    HW234675   0.581   5.564   4.088 -0.8579  0.3265 -1.9307
11278SOL     OW34676   3.124   6.402   2.453  0.3946 -0.2590  0.0629
11278SOL    HW134677   3.137   6.329   2.513  0.6339 -0.2091  0.0741
11278SOL    HW234678   3.128   6.480   2.508 -2.3363 -0.3207  0.4523
11279SOL     OW34679   5.182   2.108   4.343 -0.3439 -0.1078  0.5753
11279SOL    HW134680   5.106   2.111   4.400 -1.4429  0.3334 -0.8476
11279SOL    HW234681   5.190   2.016   4.318 -0.1441 -0.2239  1.0567
11280SOL     OW34682   5.609   3.969   3.579 -0.0381 -0.2914 -0.0626
11280SOL    HW134683   5.599   4.059   3.610  1.3396  0.0427 -0.5030
11280SOL    HW234684   5.688   3.972   3.524  0.3661 -1.8921  0.4010
11281SOL     OW34685   2.684   2.023   1.318 -0.3845  0.5451  0.1666
11281SOL    HW134686   2.775   1.994   1.325 -0.4476 -0.4076 -2.0487
11281SOL    HW234687   2.633   1.943   1.309 -1.0125  1.1205 -2.0986
11282SOL     OW34688   6.678   6.808   7.026  0.1354  0.0061 -0.5396
11282SOL    HW134689   6.727   6.846   6.954 -0.6135  2.5949  0.2260
11282SOL    HW234690   6.744   6.781   7.089  0.8254 -2.6353 -2.2353
11283SOL     OW34691   5.603   5.399   7.281 -0.0019  0.0001 -0.0143
11283SOL    HW134692   5.577   5.328   7.222  0.8903 -1.4028  1.1955
11283SOL    HW234693   5.544   5.390   7.356  1.2461 -0.6262  0.9339
11284SOL     OW34694   2.853   7.541   7.104 -0.0064 -0.5117 -0.3281
11284SOL    HW134695   2.914   7.471   7.127  0.1511 -0.0762  0.6552
11284SOL    HW234696   2.790   7.542   7.176 -0.0206  0.3314 -0.3454
11285SOL     OW34697   7.851   7.872   4.417 -0.2124  0.1165  0.2263
11285SOL    HW134698   7.831   7.818   4.494  0.8056  0.9943  1.1431
11285SOL    HW234699   7.850   7.811   4.344 -1.8646 -0.6320  0.8270
11286SOL     OW34700   7.648   0.713   0.460 -0.2726  0.8656  0.0264
11286SOL    HW134701   7.645   0.796   0.506 -0.7600  1.8559 -1.6991
11286SOL    HW234702   7.558   0.699   0.430 -0.6757 -1.3099  1.9194
11287SOL     OW34703   7.690   5.585   3.321 -0.4184  0.5629  0.2716
11287SOL    HW134704   7.710   5.508   3.268 -1.7832 -0.5574  1.3189
11287SOL    HW234705   7.608   5.618   3.285 -1.5947 -0.4651  1.8719
11288SOL     OW34706   1.586   0.271   6.081 -0.1387  0.3080 -1.0928
11288SOL    HW134707   1.541   0.356   6.080 -0.6948  0.0107 -1.7054
11288SOL    HW234708   1.642   0.275   6.159  0.2375  1.4445 -1.4061
11289SOL     OW34709   3.179   0.563   4.882 -0.6340 -0.1565  0.2496
11289SOL    HW134710   3.187   0.509   4.960  0.0574 -1.6392 -0.8037
11289SOL    HW234711   3.138   0.505   4.818 -0.9333  0.9442 -0.5727
11290SOL     OW34712   0.012   7.986   6.943  0.3720  0.4952 -0.4629
11290SOL    HW134713  -0.018   7.897   6.959  1.5467  0.5999  3.3072
11290SOL    HW234714   0.108   7.981   6.947  0.4604  1.9224  0.1763
11291SOL     OW34715   6.468   1.396   6.943 -0.2489  0.7827 -0.3530
11291SOL    HW134716   6.400   1.337   6.912  0.5746 -1.0792  1.1907
11291SOL    HW234717   6.525   1.408   6.867  0.3307 -1.6026 -0.3712
11292SOL     OW34718   5.574   4.930   5.282  0.4792 -0.0543  0.6738
11292SOL    HW134719   5.555   5.017   5.245 -0.2775  0.7895  2.8525
11292SOL    HW234720   5.660   4.908   5.248 -0.6764 -0.0241 -2.6283
11293SOL     OW34721   4.580   4.978   3.882 -0.1638 -0.7645  0.2926
11293SOL    HW134722   4.587   4.938   3.795 -4.1904 -0.5218 -0.2989
11293SOL    HW234723   4.612   4.911   3.942  1.4698 -1.4242 -1.2239
11294SOL     OW34724   0.717   0.900   2.376 -0.2200  0.4868 -0.1179
11294SOL    HW134725   0.692   0.808   2.388  0.1320 -0.1095 -3.1073
11294SOL    HW234726   0.636   0.943   2.349  0.1330  0.4492 -1.2838
11295SOL     OW34727   7.959   2.750   0.546  1.2416  1.1206  0.2052
11295SOL    HW134728   7.874   2.789   0.566  1.7599  1.7264  1.2669
11295SOL    HW234729   7.954   2.730   0.452 -0.5659 -0.1287  0.5198
11296SOL     OW34730   5.297   6.880   3.887 -0.4183  0.3619 -0.5687
11296SOL    HW134731   5.360   6.837   3.945 -1.0862  0.0722 -0.0377
11296SOL    HW234732   5.248   6.807   3.847 -0.6437  0.5922 -0.7159
11297SOL     OW34733   6.545   7.654   4.263  0.0061  0.4369  0.2492
11297SOL    HW134734   6.463   7.637   4.218 -0.9615  0.6246  1.8817
11297SOL    HW234735   6.606   7.677   4.193 -1.2522  0.0804 -1.0149
11298SOL     OW34736   0.827   0.255   7.932  0.3931 -0.1587  0.4017
11298SOL    HW134737   0.814   0.210   7.849  0.9726  1.1906 -0.4458
11298SOL    HW234738   0.906   0.216   7.969 -0.3157 -1.3236  0.7277
11299SOL     OW34739   4.939   7.938   6.496  0.2828  0.2236 -0.5700
11299SOL    HW134740   4.865   7.881   6.476  0.6246 -0.2579 -0.4922
11299SOL    HW234741   5.016   7.883   6.478  0.6099  0.4330  0.1767
11300SOL     OW34742   4.910   6.127   3.763 -0.0373  0.5367 -0.5547
11300SOL    HW134743   4.995   6.168   3.753 -0.2940  2.0496  2.4043
11300SOL    HW234744   4.926   6.052   3.820 -0.8184  1.8235  1.4841
11301SOL     OW34745   5.586   1.514   6.091  0.4876 -0.7564  0.3161
11301SOL    HW134746   5.639   1.571   6.146 -0.0377 -0.7852  0.8530
11301SOL    HW234747   5.542   1.455   6.152 -0.5467 -0.4096 -0.0798
11302SOL     OW34748   6.867   6.183   5.869 -0.2982 -0.1804  0.1399
11302SOL    HW134749   6.849   6.168   5.776  2.5634 -0.9302 -0.3882
11302SOL    HW234750   6.861   6.278   5.880  0.5366  0.0442 -1.1285
11303SOL     OW34751   3.187   0.315   0.855 -0.1751  0.1912 -0.3237
11303SOL    HW134752   3.220   0.304   0.766  1.4844  0.4864  0.2183
11303SOL    HW234753   3.266   0.320   0.909 -1.1427  0.4423  1.1135
11304SOL     OW34754   3.351   4.762   7.751  0.4259  0.1650 -0.8828
11304SOL    HW134755   3.281   4.809   7.705  0.3473 -1.2477 -2.3154
11304SOL    HW234756   3.432   4.805   7.722  0.2669  0.5867 -0.7133
11305SOL     OW34757   5.809   5.920   4.942  0.1879  0.5315 -0.6606
11305SOL    HW134758   5.816   6.001   4.891  1.5286  0.1561 -1.1003
11305SOL    HW234759   5.878   5.928   5.008 -0.2995  0.1619 -0.1011
11306SOL     OW34760   0.129   6.096   6.626  0.2823  0.0509 -0.5305
11306SOL    HW134761   0.068   6.048   6.683 -0.1085 -0.4960 -1.3956
11306SOL    HW234762   0.129   6.048   6.544  0.2132  1.2803 -1.2804
11307SOL     OW34763   6.960   5.369   4.227 -0.1437  0.7347  0.2783
11307SOL    HW134764   7.017   5.302   4.190  0.8200  0.9318  1.3576
11307SOL    HW234765   7.015   5.447   4.233 -0.8449  1.2365  0.3443
11308SOL     OW34766   7.555   0.747   4.870 -0.1004  0.5498  0.5681
11308SOL    HW134767   7.517   0.668   4.832  0.5336  0.0149  1.0507
11308SOL    HW234768   7.490   0.776   4.934 -0.8683  1.0854 -0.4054
11309SOL     OW34769   0.666   5.463   7.011 -0.6724  0.0446  0.0788
11309SOL    HW134770   0.608   5.535   6.988 -2.3098 -0.8737  1.1086
11309SOL    HW234771   0.623   5.421   7.085  0.4050 -1.7742 -0.2721
11310SOL     OW34772   6.673   5.125   5.635  0.6591 -0.1563  0.2490
11310SOL    HW134773   6.686   5.216   5.662 -0.4521  0.4832 -1.2183
11310SOL    HW234774   6.754   5.101   5.589  0.6473  0.3864 -0.0638
11311SOL     OW34775   1.490   2.840   6.953 -0.0348  0.1433  0.2237
11311SOL    HW134776   1.514   2.855   7.044 -1.4935 -1.1568  0.8762
11311SOL    HW234777   1.558   2.782   6.919  0.4017  0.4624  0.5416
11312SOL     OW34778   1.597   2.900   5.417  0.4589  0.6506 -0.3428
11312SOL    HW134779   1.548   2.830   5.460 -0.6825  1.8735  0.4172
11312SOL    HW234780   1.624   2.958   5.488  3.1071  0.0091 -0.7306
11313SOL     OW34781   1.819   4.292   2.629 -0.3292  0.3209 -0.5814
11313SOL    HW134782   1.757   4.248   2.571  2.2742  1.0965 -4.2402
11313SOL    HW234783   1.798   4.385   2.621 -0.3583  0.4086  0.3501
11314SOL     OW34784   6.850   1.116   4.121  0.1409 -0.4673 -0.3229
11314SOL    HW134785   6.913   1.078   4.059 -3.1031 -5.0005 -1.2878
11314SOL    HW234786   6.783   1.155   4.066  0.8270  2.3915  0.6763
11315SOL     OW34787   2.454   5.139   1.399 -0.0654  0.1819 -0.7836
11315SOL    HW134788   2.481   5.054   1.365 -1.8428 -0.6713 -0.2174
11315SOL    HW234789   2.531   5.195   1.389  0.7155 -1.1003 -2.4589
11316SOL     OW34790   1.083   5.672   1.514  0.7445 -0.2309  0.0876
11316SOL    HW134791   1.059   5.590   1.556 -0.6877  0.3377  0.4303
11316SOL    HW234792   1.037   5.739   1.564  0.5569  0.6355 -1.1964
11317SOL     OW34793   5.760   3.359   7.790 -0.2890  0.8671  0.3060
11317SOL    HW134794   5.694   3.357   7.859 -0.5083  0.8763  0.0977
11317SOL    HW234795   5.840   3.389   7.834  0.0229 -0.8104  0.9322
11318SOL     OW34796   7.298   2.182   5.317 -0.1039  0.0221  0.2764
11318SOL    HW134797   7.330   2.258   5.267 -1.6754  0.4111 -0.1953
11318SOL    HW234798   7.327   2.106   5.266  1.8091  0.2570  0.9485
11319SOL     OW34799   4.319   3.800   2.260  0.7750  0.6630 -0.6171
11319SOL    HW134800   4.363   3.754   2.188 -0.3541  0.5149 -1.2330
11319SOL    HW234801   4.279   3.877   2.219 -0.5460  0.1671 -0.3250
11320SOL     OW34802   2.283   6.263   5.252 -0.2869 -0.0836  0.4443
11320SOL    HW134803   2.340   6.232   5.323 -0.0618  0.6019  0.5665
11320SOL    HW234804   2.206   6.296   5.298  0.3495  1.4436  0.4653
11321SOL     OW34805   2.022   0.970   5.188  0.5151 -0.4739 -0.0300
11321SOL    HW134806   2.044   1.063   5.196  0.9653 -0.4051 -1.6041
11321SOL    HW234807   2.103   0.924   5.212 -0.2190 -0.5770  2.5119
11322SOL     OW34808   7.667   6.513   3.356  0.1950  0.0047 -0.6119
11322SOL    HW134809   7.640   6.568   3.429 -0.3386 -2.0569  0.8385
11322SOL    HW234810   7.591   6.457   3.340  0.7380 -0.3654 -1.9835
11323SOL     OW34811   5.029   3.231   0.954 -0.3473  0.0287 -0.3044
11323SOL    HW134812   4.979   3.181   1.019  0.6747 -1.1356 -0.3836
11323SOL    HW234813   5.018   3.182   0.873 -0.5621  0.7751 -0.7363
11324SOL     OW34814   5.686   5.213   4.831 -0.4081  0.3445 -0.1993
11324SOL    HW134815   5.716   5.122   4.834 -2.3534 -0.4006 -1.3034
11324SOL    HW234816   5.730   5.251   4.755 -2.5656 -0.9303 -2.2261
11325SOL     OW34817   1.758   7.608   6.179  0.6667 -0.0229 -0.4403
11325SOL    HW134818   1.803   7.539   6.131 -0.4179 -1.2347  0.2021
11325SOL    HW234819   1.702   7.561   6.241  1.2081  1.4557  1.2670
11326SOL     OW34820   2.552   5.229   6.952 -0.3859  0.4836 -0.0912
11326SOL    HW134821   2.619   5.291   6.923 -0.9598  1.0413 -0.2548
11326SOL    HW234822   2.491   5.282   7.004 -1.1920  0.1846 -0.7057
11327SOL     OW34823   5.100   4.104   0.204  0.4728 -0.3603 -0.3121
11327SOL    HW134824   5.038   4.090   0.275  1.2907 -0.9560  0.3069
11327SOL    HW234825   5.155   4.176   0.235  0.9241 -0.7202 -0.2652
11328SOL     OW34826   5.507   2.571   2.247 -0.0646  0.1426  0.2355
11328SOL    HW134827   5.416   2.559   2.222 -0.0268  0.4690 -0.0501
11328SOL    HW234828   5.553   2.497   2.208 -0.4641 -0.9721  1.7733
11329SOL     OW34829   7.142   7.691   8.084  0.3544  0.2710 -0.8295
11329SOL    HW134830   7.142   7.663   7.992  0.7614 -0.3280 -0.6514
11329SOL    HW234831   7.105   7.779   8.082 -1.2163 -0.3726 -1.3693
11330SOL     OW34832   0.861   7.681   3.720  0.2208  0.5236 -0.1912
11330SOL    HW134833   0.935   7.631   3.685  0.5901  0.6210  0.4323
11330SOL    HW234834   0.784   7.635   3.688  0.5462  0.6710 -1.2075
11331SOL     OW34835   6.386   7.304   7.098  1.0912 -0.0142  0.0433
11331SOL    HW134836   6.351   7.300   7.009 -0.6165 -0.5875  0.7031
11331SOL    HW234837   6.410   7.396   7.111  0.5942  0.2263 -0.7230
11332SOL     OW34838   3.617   6.023   7.477 -0.2727  0.0703 -0.4970
11332SOL    HW134839   3.621   6.057   7.567 -0.7079  1.4075 -0.9644
11332SOL    HW234840   3.551   5.954   7.481 -1.2642  1.0126 -0.0468
11333SOL     OW34841   3.662   4.943   5.327  0.1741  0.9349  0.1257
11333SOL    HW134842   3.667   4.881   5.253  0.0749  2.0552 -0.8483
11333SOL    HW234843   3.735   5.004   5.312 -0.2188  1.5341  0.6226
11334SOL     OW34844   3.383   4.976   7.190 -0.4028  0.4822  0.3211
11334SOL    HW134845   3.333   4.937   7.118 -0.9732  0.7371  0.5717
11334SOL    HW234846   3.359   4.924   7.267 -0.4218  0.7153  0.4748
11335SOL     OW34847   0.999   4.869   1.171 -0.4849 -0.4406 -0.5930
11335SOL    HW134848   1.060   4.799   1.149  0.3156 -0.4181  1.3258
11335SOL    HW234849   0.931   4.827   1.223  0.9609  0.3798  2.1743
11336SOL     OW34850   7.249   4.161   0.646 -0.2477  0.5407  0.4820
11336SOL    HW134851   7.236   4.104   0.722  0.1744 -0.1877  0.0162
11336SOL    HW234852   7.306   4.111   0.588 -0.0525  1.3539 -0.0367
11337SOL     OW34853   0.958   0.824   5.573 -0.1786 -0.2278  0.3921
11337SOL    HW134854   0.908   0.860   5.500  1.9420  1.0343 -0.5258
11337SOL    HW234855   0.942   0.885   5.645 -1.3293 -0.8231  0.6684
11338SOL     OW34856   2.859   6.977   2.412 -0.2112  0.3203  0.2229
11338SOL    HW134857   2.806   7.056   2.405 -2.2436 -1.0974 -2.5629
11338SOL    HW234858   2.808   6.917   2.467  0.7508  0.4644  1.3253
11339SOL     OW34859   4.229   0.410   8.025 -0.0224  0.9051  0.3373
11339SOL    HW134860   4.158   0.469   8.001 -1.0324 -0.9297 -1.4092
11339SOL    HW234861   4.205   0.325   7.988  1.8150 -0.4297  1.9545
11340SOL     OW34862   5.776   0.959   0.448 -0.4037  0.5135 -0.1456
11340SOL    HW134863   5.725   1.031   0.485  0.0258 -0.0656  1.6456
11340SOL    HW234864   5.833   0.930   0.519 -0.3093 -1.3600 -0.9179
11341SOL     OW34865   3.492   2.142   3.498  0.4326  0.0556 -0.0590
11341SOL    HW134866   3.541   2.094   3.431  0.9655  1.2244 -0.5316
11341SOL    HW234867   3.547   2.217   3.519 -0.2888  0.3625  0.8243
11342SOL     OW34868   4.663   4.699   7.099 -0.6479 -0.1851  0.1709
11342SOL    HW134869   4.660   4.630   7.033  0.9869 -0.1788  0.0516
11342SOL    HW234870   4.721   4.665   7.167 -0.9720  0.4992  0.8084
11343SOL     OW34871   5.272   4.625   4.160 -0.1721  0.2697 -0.0691
11343SOL    HW134872   5.296   4.550   4.107 -1.3309 -0.6580  0.6608
11343SOL    HW234873   5.337   4.628   4.230  0.3919  0.4962 -0.5977
11344SOL     OW34874   1.955   5.625   2.330 -0.2546  0.1424  0.0286
11344SOL    HW134875   1.924   5.703   2.284 -0.5073 -0.5387 -0.9888
11344SOL    HW234876   1.989   5.658   2.413 -0.5178  1.3110 -0.3113
11345SOL     OW34877   2.250   1.684   0.881  0.1349 -0.4438  0.1619
11345SOL    HW134878   2.174   1.646   0.926  0.6278 -0.3047  1.1280
11345SOL    HW234879   2.215   1.763   0.839 -0.6516 -1.3404 -0.9366
11346SOL     OW34880   7.429   4.552   1.932 -0.0353  0.4648 -0.0898
11346SOL    HW134881   7.505   4.495   1.937 -0.2622  0.0173 -1.2813
11346SOL    HW234882   7.441   4.616   2.002  0.8503 -0.2940  0.4605
11347SOL     OW34883   1.519   2.848   3.420 -0.3653  0.1843  0.2013
11347SOL    HW134884   1.548   2.938   3.406 -0.8988  0.6462  1.7718
11347SOL    HW234885   1.592   2.806   3.467 -0.4379  0.0421  0.1879
11348SOL     OW34886   4.567   0.448   7.689 -0.0065 -0.0160 -0.1037
11348SOL    HW134887   4.527   0.372   7.730 -0.7615  0.4648  0.0702
11348SOL    HW234888   4.623   0.486   7.757 -1.6687  1.0895  0.7159
11349SOL     OW34889   8.059   1.811   0.811 -0.1309  0.3403 -0.5355
11349SOL    HW134890   8.151   1.835   0.820 -0.4356  2.3652 -2.0553
11349SOL    HW234891   8.060   1.730   0.760  0.8052  0.7776 -1.2479
11350SOL     OW34892   6.630   3.925   5.502  0.1963  0.1855  0.8116
11350SOL    HW134893   6.655   3.957   5.415 -0.2479  0.6592  0.8578
11350SOL    HW234894   6.600   4.002   5.549 -0.6723 -0.2495  0.9995
11351SOL     OW34895   5.910   2.970   5.133  0.8087 -0.2481  0.2773
11351SOL    HW134896   5.843   3.026   5.173  0.2242 -0.8095  0.0988
11351SOL    HW234897   5.972   2.953   5.203  0.7131  0.1959  0.4763
11352SOL     OW34898   3.599   7.204   4.269  0.4932  0.0615  0.2250
11352SOL    HW134899   3.601   7.273   4.202 -0.9806 -0.1786 -0.1022
11352SOL    HW234900   3.653   7.134   4.233  2.7959  1.3332  0.9640
11353SOL     OW34901   4.565   2.202   3.076 -0.4142 -0.4388 -0.3411
11353SOL    HW134902   4.565   2.291   3.042 -0.9647 -0.0792  0.5677
11353SOL    HW234903   4.626   2.155   3.019 -0.5321  0.3755 -1.1755
11354SOL     OW34904   4.308   5.230   2.220  0.1629 -0.1528  0.8718
11354SOL    HW134905   4.358   5.292   2.167 -1.2473  0.3027 -0.0129
11354SOL    HW234906   4.337   5.245   2.309 -0.1105  1.7967  0.6771
11355SOL     OW34907   4.922   4.404   5.653 -0.7102  0.5284 -0.0078
11355SOL    HW134908   4.846   4.409   5.711 -0.7419 -0.9198  0.1027
11355SOL    HW234909   4.956   4.315   5.665  2.2548  1.7212  1.5047
11356SOL     OW34910   2.500   2.823   5.673 -0.1694 -0.1394 -0.5311
11356SOL    HW134911   2.553   2.765   5.619  1.2363  0.9170 -0.3370
11356SOL    HW234912   2.410   2.809   5.643  0.2158 -1.8782 -0.9522
11357SOL     OW34913   6.324   1.581   4.497  0.2024  0.5596  0.5862
11357SOL    HW134914   6.389   1.651   4.491  1.4943 -0.6561 -0.0904
11357SOL    HW234915   6.307   1.556   4.406 -0.6404  0.3332  0.7931
11358SOL     OW34916   3.304   4.181   1.513  0.0374  0.8215  0.7957
11358SOL    HW134917   3.223   4.230   1.526 -0.3896  0.5876 -0.7317
11358SOL    HW234918   3.355   4.235   1.452 -0.1341 -0.2378 -0.3486
11359SOL     OW34919   4.230   7.113   5.199  0.0697  0.6805 -0.0467
11359SOL    HW134920   4.234   7.107   5.294 -1.1622 -2.2071 -0.0788
11359SOL    HW234921   4.259   7.027   5.168 -1.4723  0.8343 -2.1738
11360SOL     OW34922   8.197   2.615   1.410  0.1537 -0.6526 -0.5014
11360SOL    HW134923   8.248   2.677   1.357 -0.6761  1.2586  0.8311
11360SOL    HW234924   8.249   2.603   1.489  0.6704 -2.3133 -1.0610
11361SOL     OW34925   7.986   3.425   1.265  0.3258 -0.3228  0.1279
11361SOL    HW134926   7.919   3.483   1.228  1.6040  0.5106 -0.9758
11361SOL    HW234927   7.937   3.349   1.296 -1.3773  1.1718  1.3345
11362SOL     OW34928   3.497   0.569   1.079  0.8026 -0.3668 -0.0907
11362SOL    HW134929   3.410   0.547   1.046 -0.3120  1.8453  1.1630
11362SOL    HW234930   3.533   0.627   1.012  0.8856 -0.4522 -0.1197
11363SOL     OW34931   6.783   5.706   4.541  0.5884  0.2095  0.1188
11363SOL    HW134932   6.704   5.681   4.495  0.9053  0.0691 -0.3589
11363SOL    HW234933   6.845   5.634   4.523  0.5836 -0.0564  1.1000
11364SOL     OW34934   3.525   7.208   7.396  0.0600  0.3340 -0.4128
11364SOL    HW134935   3.536   7.302   7.412  0.7879  0.3427 -0.9180
11364SOL    HW234936   3.464   7.179   7.464 -0.6667  1.2901 -0.6337
11365SOL     OW34937   1.504   0.144   4.632 -0.6430  0.3151 -0.0524
11365SOL    HW134938   1.591   0.182   4.646  0.0423 -0.7039 -1.3083
11365SOL    HW234939   1.486   0.159   4.539 -2.0249  0.9000  0.2833
11366SOL     OW34940   6.286   3.349   6.488 -0.3395  0.4582 -0.0614
11366SOL    HW134941   6.302   3.305   6.405 -2.2197 -1.9737  0.7757
11366SOL    HW234942   6.372   3.383   6.513  0.8579 -1.1875 -1.6515
11367SOL     OW34943   0.315   5.506   6.059  0.1579  0.4100 -0.2242
11367SOL    HW134944   0.352   5.461   5.983 -0.9122 -0.6276 -0.1744
11367SOL    HW234945   0.239   5.553   6.025 -0.4216 -0.1874  0.2036
11368SOL     OW34946   6.994   4.295   2.156  0.1759  0.5058  0.1285
11368SOL    HW134947   6.922   4.240   2.124  0.3360 -0.0575  0.7123
11368SOL    HW234948   6.957   4.384   2.156  0.4866  0.7342 -2.5587
11369SOL     OW34949   2.543   5.670   0.700  0.1777 -0.2169 -0.4789
11369SOL    HW134950   2.628   5.641   0.733 -0.4641 -1.9484 -0.2300
11369SOL    HW234951   2.563   5.723   0.623  1.5267  0.6425  0.4385
11370SOL     OW34952   6.242   5.412   1.369  0.0589 -0.0712  0.1386
11370SOL    HW134953   6.185   5.481   1.335 -0.4392  0.4051  1.8629
11370SOL    HW234954   6.315   5.458   1.409  1.4115 -0.6662 -1.4990
11371SOL     OW34955   7.474   4.274   7.986  0.3333 -0.1590 -0.4181
11371SOL    HW134956   7.460   4.266   8.080  1.1847 -1.3143 -0.3691
11371SOL    HW234957   7.398   4.324   7.955  0.9802  1.9364  1.1255
11372SOL     OW34958   1.681   3.945   0.248  0.5334  0.4771  0.9208
11372SOL    HW134959   1.602   3.978   0.206  2.1885  0.9612 -2.1852
11372SOL    HW234960   1.702   4.010   0.315 -0.2306  1.8464 -0.1172
11373SOL     OW34961   5.087   6.619   2.132 -0.1792  0.0625 -0.5550
11373SOL    HW134962   5.121   6.534   2.104  0.1750  0.0997 -0.2398
11373SOL    HW234963   5.007   6.599   2.182 -1.7368  0.0643 -2.8739
11374SOL     OW34964   6.863   7.049   5.385  0.1164 -0.0928 -0.0309
11374SOL    HW134965   6.843   7.140   5.405  1.9111  0.0147  1.5159
11374SOL    HW234966   6.922   7.021   5.455  2.1580 -1.4731 -2.1654
11375SOL     OW34967   6.503   4.059   6.788  0.1519  0.0625 -0.0341
11375SOL    HW134968   6.489   3.991   6.723  0.0779  1.5583 -1.6808
11375SOL    HW234969   6.532   4.013   6.866  0.7382 -1.7838 -1.2776
11376SOL     OW34970   2.512   6.004   5.664  0.0702  0.6284  0.3837
11376SOL    HW134971   2.556   5.928   5.701  1.6226  0.0147 -2.4699
11376SOL    HW234972   2.422   5.975   5.651  0.5096 -0.5248 -0.1422
11377SOL     OW34973   0.804   4.506   6.010 -0.4222 -0.1786 -0.1649
11377SOL    HW134974   0.778   4.484   5.920  1.1514 -0.9060 -0.4706
11377SOL    HW234975   0.870   4.574   5.999 -0.4649 -0.0333  0.4730
11378SOL     OW34976   3.764   7.561   2.947  0.3488 -0.6300 -0.3273
11378SOL    HW134977   3.772   7.629   2.880 -0.5346  1.6417  1.6772
11378SOL    HW234978   3.833   7.498   2.926  0.0839 -0.0574 -3.3079
11379SOL     OW34979   3.722   1.520   6.474  0.3672 -0.7611 -0.4787
11379SOL    HW134980   3.793   1.459   6.493  1.0356 -0.0315 -0.5652
11379SOL    HW234981   3.765   1.595   6.433 -0.2157  0.3946  0.9118
11380SOL     OW34982   7.228   1.796   2.401  0.2893 -0.0133 -0.3733
11380SOL    HW134983   7.208   1.717   2.451 -3.2179  0.5381 -0.6634
11380SOL    HW234984   7.314   1.823   2.433  0.3193 -2.3238  1.8324
11381SOL     OW34985   1.441   5.551   1.343  0.5416  0.4440 -0.0452
11381SOL    HW134986   1.480   5.469   1.314  0.0914  0.7618 -1.6541
11381SOL    HW234987   1.514   5.612   1.350  0.9086 -0.1155  1.3679
11382SOL     OW34988   6.274   4.741   1.201  0.3796 -0.1491  0.4210
11382SOL    HW134989   6.201   4.707   1.253 -0.9915  0.4906 -1.0031
11382SOL    HW234990   6.279   4.682   1.126 -0.7602  1.5500 -1.0780
11383SOL     OW34991   0.260   0.766   5.591  0.5910 -0.0090  0.0327
11383SOL    HW134992   0.308   0.736   5.513 -0.5384  2.4698 -1.7460
11383SOL    HW234993   0.168   0.767   5.563  0.2295  1.5042  1.1879
11384SOL     OW34994   8.214   6.554   7.323  0.1630  0.2008  0.3274
11384SOL    HW134995   8.253   6.472   7.292  0.8384  0.3716  0.6867
11384SOL    HW234996   8.200   6.539   7.417 -0.9937  0.0154  0.1384
11385SOL     OW34997   2.778   7.266   2.830 -0.2718  0.5451  0.2669
11385SOL    HW134998   2.831   7.222   2.896  1.1349  0.7359 -0.7083
11385SOL    HW234999   2.815   7.354   2.823 -0.8467  0.7584 -0.2908
11386SOL     OW35000   6.884   5.451   1.228 -0.2611 -0.3030  0.2804
11386SOL    HW135001   6.902   5.393   1.154 -0.9921 -0.1385 -0.0458
11386SOL    HW235002   6.897   5.539   1.193 -0.2149 -0.2362  0.4632
11387SOL     OW35003   2.053   6.880   3.708  0.0909  0.0417 -0.2804
11387SOL    HW135004   1.970   6.840   3.681 -0.6391  0.4127  1.2981
11387SOL    HW235005   2.120   6.826   3.667 -0.9129 -0.7452 -0.9419
11388SOL     OW35006   0.094   7.337   4.283 -0.6607 -0.1345 -0.0973
11388SOL    HW135007   0.109   7.284   4.205  1.5305 -0.7527  0.6716
11388SOL    HW235008   0.175   7.388   4.294 -0.7880 -0.2648  1.9097
11389SOL     OW35009   1.977   0.432   1.437  0.0982 -0.7189 -0.2133
11389SOL    HW135010   1.964   0.411   1.530 -0.7501 -1.3029 -0.4489
11389SOL    HW235011   1.979   0.346   1.394  0.9665 -0.4696 -0.6821
11390SOL     OW35012   0.623   5.702   1.020 -0.6847  0.1868  0.0832
11390SOL    HW135013   0.705   5.653   1.023 -0.8402 -0.1747 -0.9280
11390SOL    HW235014   0.612   5.738   1.108 -0.7093 -1.8485  0.9729
11391SOL     OW35015   4.491   5.781   3.789 -0.3859  0.3133 -1.2387
11391SOL    HW135016   4.495   5.866   3.833 -2.5010  0.9439 -2.1061
11391SOL    HW235017   4.421   5.734   3.835  0.6917 -0.9531 -0.8354
11392SOL     OW35018   7.138   4.608   5.387 -0.3805  0.0286 -0.1001
11392SOL    HW135019   7.109   4.575   5.302  0.7490 -0.3738 -0.3359
11392SOL    HW235020   7.119   4.702   5.384 -0.7472 -0.0570 -0.6162
11393SOL     OW35021   4.494   2.194   4.068 -0.0040  0.6907 -0.8355
11393SOL    HW135022   4.479   2.110   4.024  0.2265  1.0094 -1.5440
11393SOL    HW235023   4.582   2.186   4.105  0.5132  1.0347 -1.9282
11394SOL     OW35024   1.824   5.246   2.688 -0.2367  0.1157 -0.5365
11394SOL    HW135025   1.814   5.316   2.624 -0.3894  0.6549  0.0561
11394SOL    HW235026   1.735   5.230   2.720 -0.1638 -0.1512 -0.4682
11395SOL     OW35027   7.669   0.331   7.776  0.1143  0.2239 -0.4059
11395SOL    HW135028   7.589   0.379   7.800  0.7270  2.1056 -1.8554
11395SOL    HW235029   7.647   0.286   7.695 -0.0781 -1.0335  0.3133
11396SOL     OW35030   6.409   0.069   1.416  0.6265  0.6282  0.0972
11396SOL    HW135031   6.351   0.036   1.484 -2.0060  1.9077 -1.3430
11396SOL    HW235032   6.438  -0.009   1.369 -2.0004 -0.0089 -0.6236
11397SOL     OW35033   0.272   6.581   6.518 -0.0650 -0.6652 -0.4734
11397SOL    HW135034   0.324   6.627   6.452  0.4632 -0.3307  0.1578
11397SOL    HW235035   0.182   6.586   6.486  0.3324 -1.7058 -1.8477
11398SOL     OW35036   3.088   5.981   3.925 -0.1344 -0.1536  0.1379
11398SOL    HW135037   3.041   5.897   3.927  0.9003 -0.8343 -1.5002
11398SOL    HW235038   3.165   5.966   3.980  1.3815 -1.2387 -2.0803
11399SOL     OW35039   7.921   4.211   1.311 -0.3500  0.1773 -0.3590
11399SOL    HW135040   7.939   4.188   1.220 -1.3998 -0.3786 -0.4331
11399SOL    HW235041   7.965   4.142   1.362 -0.6573 -0.1058 -0.4767
11400SOL     OW35042   3.216   0.269   2.494 -0.3449  0.3211  0.3414
11400SOL    HW135043   3.167   0.308   2.566  0.8917  0.2181  1.2616
11400SOL    HW235044   3.226   0.340   2.431  0.4933  1.0685  1.2845
11401SOL     OW35045   2.780   2.786   0.665  0.4231  0.4644 -0.0031
11401SOL    HW135046   2.798   2.729   0.740  0.9834 -0.5551 -0.8854
11401SOL    HW235047   2.858   2.842   0.659  2.3527 -2.1795 -2.2170
11402SOL     OW35048   3.150   0.817   6.023  0.3987 -0.1636  0.7125
11402SOL    HW135049   3.095   0.863   5.959 -0.0927  0.0857  1.2998
11402SOL    HW235050   3.097   0.743   6.052  1.1610 -1.0705 -0.1690
11403SOL     OW35051   6.541   1.266   2.275 -0.2835 -0.6676  0.0132
11403SOL    HW135052   6.592   1.346   2.263 -2.2199  0.8824  1.4095
11403SOL    HW235053   6.606   1.200   2.301  1.0902  1.1124  1.4121
11404SOL     OW35054   0.377   0.167   4.358 -0.2908 -0.2843  0.1625
11404SOL    HW135055   0.331   0.138   4.280 -1.0549  1.2629  0.0132
11404SOL    HW235056   0.314   0.156   4.429 -0.3954  0.4698  0.1905
11405SOL     OW35057   2.184   0.640   3.945  0.0820 -0.1921 -0.0857
11405SOL    HW135058   2.213   0.654   4.036  0.1032 -0.6212 -0.0258
11405SOL    HW235059   2.144   0.553   3.946  0.3574 -0.3253 -0.5537
11406SOL     OW35060   2.712   5.137   1.866  0.0743  0.0344 -0.7510
11406SOL    HW135061   2.724   5.217   1.917 -1.3934 -0.6299  0.7464
11406SOL    HW235062   2.632   5.153   1.815 -0.4150 -0.5708 -0.1931
11407SOL     OW35063   3.501   6.707   6.917  0.5274  0.1419  0.1966
11407SOL    HW135064   3.440   6.780   6.906  0.1344 -0.4003 -1.6172
11407SOL    HW235065   3.479   6.670   7.002 -1.3914  0.2445 -0.1992
11408SOL     OW35066   3.122   6.920   1.920 -0.4224 -0.2693  0.3960
11408SOL    HW135067   3.063   6.985   1.958  1.5188  0.1964  2.8699
11408SOL    HW235068   3.187   6.972   1.872 -0.3512 -0.5603  0.1775
11409SOL     OW35069   1.199   1.277   3.560 -0.1905  0.1486 -0.0915
11409SOL    HW135070   1.113   1.320   3.563 -0.0451  0.4093  0.8550
11409SOL    HW235071   1.261   1.348   3.546 -0.1399 -0.0833 -1.1541
11410SOL     OW35072   6.002   2.403   3.487  0.2632 -0.2488  0.0899
11410SOL    HW135073   5.942   2.477   3.486 -0.0666 -0.5161 -0.1877
11410SOL    HW235074   6.075   2.431   3.431 -0.9701 -1.0130 -2.0524
11411SOL     OW35075   5.413   1.896   7.101 -0.0624 -0.5277  0.4769
11411SOL    HW135076   5.377   1.934   7.181  1.5308 -0.6779  1.2952
11411SOL    HW235077   5.369   1.944   7.030 -1.4651 -0.3652  1.4106
11412SOL     OW35078   5.355   7.006   3.115  0.0278 -0.2024 -0.0050
11412SOL    HW135079   5.287   7.067   3.084  1.1442  0.9489 -0.2605
11412SOL    HW235080   5.436   7.038   3.075  1.7815  1.8915  4.5192
11413SOL     OW35081   3.185   0.329   7.439  0.1444  0.1744  0.3458
11413SOL    HW135082   3.120   0.368   7.497  0.7490  1.5838  0.1143
11413SOL    HW235083   3.153   0.347   7.351  1.1917  1.5316  0.2203
11414SOL     OW35084   4.230   6.214   2.846 -0.3447  0.5501 -0.4651
11414SOL    HW135085   4.207   6.122   2.837 -2.8083  0.9897  0.7064
11414SOL    HW235086   4.301   6.215   2.910 -0.4165 -0.5189 -0.3474
11415SOL     OW35087   4.189   4.506   5.099 -0.3105  1.3594 -0.1318
11415SOL    HW135088   4.270   4.529   5.145 -0.7730 -1.2034  2.2396
11415SOL    HW235089   4.216   4.442   5.033 -0.4098 -0.0186  1.1161
11416SOL     OW35090   6.623   5.659   3.104  0.8885 -0.1187  0.1882
11416SOL    HW135091   6.544   5.661   3.158  0.8876 -0.7978  0.2178
11416SOL    HW235092   6.667   5.578   3.129  0.5991 -0.7529 -1.2498
11417SOL     OW35093   4.265   3.192   6.159 -0.5194  0.2250  0.1364
11417SOL    HW135094   4.233   3.104   6.176  0.2791 -0.3387 -1.1425
11417SOL    HW235095   4.313   3.217   6.239 -1.0921 -0.3252  0.6551
11418SOL     OW35096   5.837   5.430   0.508  0.6358 -0.4972 -0.6293
11418SOL    HW135097   5.742   5.420   0.517  0.4041  2.1909  1.0443
11418SOL    HW235098   5.856   5.404   0.418 -1.8077 -0.4444 -1.2227
11419SOL     OW35099   7.442   4.729   6.911 -0.0816  0.1999 -0.0811
11419SOL    HW135100   7.523   4.741   6.961  0.9191  0.1125 -1.5954
11419SOL    HW235101   7.472   4.716   6.821 -1.7416 -0.9627 -0.5028
11420SOL     OW35102   0.810   0.531   5.776 -0.0077  0.9653 -0.1213
11420SOL    HW135103   0.759   0.609   5.753 -0.1984  0.3155 -2.1094
11420SOL    HW235104   0.889   0.536   5.723  0.8660  0.7178  1.1140
11421SOL     OW35105   2.073   7.522   6.766 -0.3989 -0.1967  0.2819
11421SOL    HW135106   2.017   7.591   6.801  1.7823  2.7122 -1.4551
11421SOL    HW235107   2.160   7.541   6.802  0.0380 -3.1312  1.0586
11422SOL     OW35108   6.903   4.644   0.804  0.1274  0.0013 -0.3426
11422SOL    HW135109   6.869   4.604   0.884  2.3400  1.9854  1.7492
11422SOL    HW235110   6.971   4.584   0.774 -0.1967 -0.3804 -0.3240
11423SOL     OW35111   6.009   3.094   0.462  0.5018  0.4773 -0.4645
11423SOL    HW135112   5.942   3.063   0.400 -0.5929 -1.9292  1.7279
11423SOL    HW235113   5.964   3.161   0.514  0.9526  1.4095 -1.2461
11424SOL     OW35114   1.216   6.558   2.515  0.2951 -0.3229 -0.3145
11424SOL    HW135115   1.299   6.600   2.537  1.1001 -2.4143  0.9429
11424SOL    HW235116   1.169   6.553   2.599  0.2823 -1.9645 -0.3896
11425SOL     OW35117   3.951   6.053   0.806 -0.2550  0.3945 -0.0932
11425SOL    HW135118   3.884   6.091   0.749  0.1860 -0.0181 -0.9021
11425SOL    HW235119   3.904   5.987   0.857 -0.1545 -1.2249 -1.9766
11426SOL     OW35120   7.852   2.739   1.899  0.1948  0.2696 -0.7245
11426SOL    HW135121   7.777   2.687   1.927 -0.2989  0.7127 -1.2108
11426SOL    HW235122   7.926   2.702   1.948 -0.7498  1.5612  1.8350
11427SOL     OW35123   3.832   5.060   7.496  0.4948  0.0768  0.5028
11427SOL    HW135124   3.851   4.971   7.523  0.6826  0.5105  1.8714
11427SOL    HW235125   3.836   5.111   7.577 -0.3272  1.2091 -0.1409
11428SOL     OW35126   4.704   3.026   4.395 -0.1823  0.4925  0.1028
11428SOL    HW135127   4.770   3.003   4.461 -0.4388  0.4767  0.3560
11428SOL    HW235128   4.676   2.942   4.358 -0.4607  0.4582  0.3871
11429SOL     OW35129   3.724   5.457   2.016  0.1970  0.3160 -0.2988
11429SOL    HW135130   3.701   5.452   2.109  0.6062 -0.3678 -0.2257
11429SOL    HW235131   3.664   5.395   1.974  1.7526 -1.4195 -0.1175
11430SOL     OW35132   2.209   4.681   0.586  0.5002  0.1978  0.2580
11430SOL    HW135133   2.236   4.650   0.672 -0.3594  0.8775  0.7925
11430SOL    HW235134   2.289   4.716   0.547  1.1152 -1.0527  0.3418
11431SOL     OW35135   0.065   5.721   2.777 -0.2334  0.0278  0.0076
11431SOL    HW135136   0.030   5.656   2.838 -1.4656  1.6290  1.0995
11431SOL    HW235137   0.142   5.756   2.822  0.0470 -0.2204 -0.2806
11432SOL     OW35138   7.012   4.020   7.502 -0.2359  0.4125 -0.3831
11432SOL    HW135139   7.077   4.037   7.570  0.8971  0.2389 -1.3963
11432SOL    HW235140   7.055   3.960   7.441 -2.0951 -1.4884  0.0375
11433SOL     OW35141   6.805   3.339   1.947 -0.0786  0.5270 -0.1648
11433SOL    HW135142   6.871   3.407   1.938 -1.7151  2.1660 -0.2570
11433SOL    HW235143   6.800   3.322   2.041  1.0646 -0.2456 -0.2294
11434SOL     OW35144   8.210   0.036   1.548  0.3601 -0.9110 -0.1413
11434SOL    HW135145   8.200   0.054   1.641 -0.0013  0.4692 -0.4247
11434SOL    HW235146   8.297   0.068   1.526  0.4238 -1.1836 -0.2919
11435SOL     OW35147   5.555   2.889   7.303 -0.8134 -0.3560 -0.1507
11435SOL    HW135148   5.648   2.877   7.283 -0.5575 -1.1479  1.3369
11435SOL    HW235149   5.525   2.957   7.244  0.3168 -1.2387 -1.7972
11436SOL     OW35150   5.659   8.100   7.992  0.1549  0.3922 -0.3759
11436SOL    HW135151   5.653   8.122   7.899 -0.1576 -0.7588 -0.6411
11436SOL    HW235152   5.571   8.072   8.016 -0.6372  3.7978  1.1354
11437SOL     OW35153   2.311   3.464   4.875 -0.0261 -0.4131  0.2061
11437SOL    HW135154   2.402   3.493   4.877  0.3442 -1.5049 -0.1580
11437SOL    HW235155   2.314   3.374   4.907 -1.2375  0.1417  2.0522
11438SOL     OW35156   4.063   7.409   0.314 -0.2463  0.6419 -0.3397
11438SOL    HW135157   3.975   7.436   0.338 -0.0431  0.0912  1.1835
11438SOL    HW235158   4.113   7.417   0.396  0.8964  0.1331 -0.9697
11439SOL     OW35159   6.880   1.335   4.885  0.0850 -0.4626 -0.3499
11439SOL    HW135160   6.870   1.321   4.791  0.0323  0.5089 -0.4940
11439SOL    HW235161   6.791   1.340   4.918  0.1035 -0.8066 -0.2367
11440SOL     OW35162   2.804   0.381   6.940 -0.3584 -0.2036  0.1045
11440SOL    HW135163   2.852   0.301   6.959 -0.3767 -0.0446  0.8266
11440SOL    HW235164   2.731   0.352   6.884  0.8291 -0.3692 -1.4295
11441SOL     OW35165   0.594   2.905   6.636  0.4492  0.2086  0.9045
11441SOL    HW135166   0.538   2.827   6.637  2.0671 -1.0150  2.4476
11441SOL    HW235167   0.654   2.890   6.562  0.4130  0.2403  0.8689
11442SOL     OW35168   5.590   5.518   6.707  0.1386 -0.5912  0.3969
11442SOL    HW135169   5.496   5.537   6.701 -0.0634 -1.2142  1.4764
11442SOL    HW235170   5.631   5.604   6.719 -0.3619 -0.3991  0.7494
11443SOL     OW35171   6.581   0.254   2.993 -0.0908 -0.4039 -0.2081
11443SOL    HW135172   6.551   0.287   3.078  0.0586 -0.8813  0.0289
11443SOL    HW235173   6.577   0.331   2.936 -0.2192 -0.0851  0.2204
11444SOL     OW35174   7.986   3.633   0.144 -0.1269  0.4752  0.5230
11444SOL    HW135175   8.001   3.546   0.108  0.9291  1.5341 -1.8066
11444SOL    HW235176   7.962   3.687   0.068  0.6667  2.5139  1.6417
11445SOL     OW35177   1.607   7.091   7.513  0.3244  0.2353 -0.0126
11445SOL    HW135178   1.631   7.160   7.575 -0.4599  0.3215  0.1998
11445SOL    HW235179   1.653   7.114   7.433  0.8767  0.4484  0.3577
11446SOL     OW35180   2.114   5.114   5.827 -0.3528  0.4371  0.4876
11446SOL    HW135181   2.019   5.107   5.827 -0.3110 -0.1121  0.6220
11446SOL    HW235182   2.143   5.055   5.896  0.1571 -0.4629 -0.4661
11447SOL     OW35183   5.886   3.812   7.825 -0.2965 -0.1270  0.6808
11447SOL    HW135184   5.865   3.820   7.732 -0.6345 -0.4990  0.7206
11447SOL    HW235185   5.977   3.781   7.827  0.2116  1.2957  0.5014
11448SOL     OW35186   5.156   3.985   7.124  0.2319  0.3903  0.6163
11448SOL    HW135187   5.231   4.037   7.152  0.4981  0.9355 -0.9873
11448SOL    HW235188   5.183   3.894   7.137  0.7662  0.6005  1.0145
11449SOL     OW35189   7.277   6.731   2.434  0.1083  0.1668 -0.0650
11449SOL    HW135190   7.218   6.662   2.465  0.1572 -0.3629 -1.1135
11449SOL    HW235191   7.218   6.801   2.405 -0.0283 -0.2984 -0.9641
11450SOL     OW35192   6.283   5.896   7.664  0.2163 -0.5327  0.2633
11450SOL    HW135193   6.253   5.823   7.718 -0.0021  0.0713  0.9767
11450SOL    HW235194   6.258   5.974   7.713  1.6793  0.0194  0.1751
11451SOL     OW35195   7.679   0.078   5.424 -0.6302 -0.2618 -0.5863
11451SOL    HW135196   7.694   0.159   5.375  0.0328  0.7890  1.2453
11451SOL    HW235197   7.589   0.084   5.454 -1.2452 -1.2008 -2.0924
11452SOL     OW35198   4.272   2.588   3.503 -0.2095 -0.6400  0.4844
11452SOL    HW135199   4.199   2.586   3.440  0.5280  0.5281 -0.4492
11452SOL    HW235200   4.267   2.504   3.548 -1.2318 -1.1913 -0.6038
11453SOL     OW35201   2.167   1.172   8.162 -0.8254 -0.4294 -0.1855
11453SOL    HW135202   2.220   1.099   8.192  1.0050  0.7033 -0.5297
11453SOL    HW235203   2.148   1.153   8.070  0.2309 -0.1618 -0.4674
11454SOL     OW35204   2.688   7.893   0.788 -0.6033  0.1061  0.0691
11454SOL    HW135205   2.712   7.805   0.761  0.7907  0.2958  0.5732
11454SOL    HW235206   2.770   7.942   0.785 -1.7875  2.2405 -3.1962
11455SOL     OW35207   1.001   5.133   6.094 -0.3436 -0.3216  0.0043
11455SOL    HW135208   1.089   5.104   6.072 -0.2440  0.2481 -0.3738
11455SOL    HW235209   0.952   5.126   6.012 -1.3055 -2.8929  0.7140
11456SOL     OW35210   1.293   0.693   1.431 -0.2494  0.1979  0.5169
11456SOL    HW135211   1.333   0.687   1.518  1.7001 -0.9599 -0.4017
11456SOL    HW235212   1.269   0.785   1.421  0.3189  0.5123  1.9196
11457SOL     OW35213   2.931   7.238   5.763  0.4411 -0.2722 -0.1901
11457SOL    HW135214   2.922   7.223   5.857  0.3329 -0.8692 -0.2956
11457SOL    HW235215   3.025   7.250   5.749  0.3386  1.2935  0.2058
11458SOL     OW35216   6.509   4.157   1.207  0.4564 -0.0035  0.1311
11458SOL    HW135217   6.443   4.226   1.218  0.2971 -0.1561  0.1381
11458SOL    HW235218   6.518   4.119   1.295 -0.4208 -0.8652 -0.1338
11459SOL     OW35219   1.673   2.598   5.575  0.7421  0.3840 -0.8731
11459SOL    HW135220   1.675   2.688   5.608 -0.1755  0.4683 -1.0251
11459SOL    HW235221   1.588   2.590   5.531 -0.5442 -1.4503  1.7075
11460SOL     OW35222   5.502   6.305   4.010  0.2619 -0.1805 -0.0476
11460SOL    HW135223   5.478   6.394   3.987  1.1185  0.5736  1.7851
11460SOL    HW235224   5.435   6.250   3.970  0.4090  1.1653 -2.2443
11461SOL     OW35225   1.093   6.201   6.038 -0.1071  0.2732 -0.2359
11461SOL    HW135226   1.075   6.291   6.067 -1.0234  0.8458 -2.3735
11461SOL    HW235227   1.184   6.186   6.063 -0.3310  1.2865  1.3430
11462SOL     OW35228   4.497   7.470   1.275 -0.5653  0.4738  0.0403
11462SOL    HW135229   4.583   7.427   1.272 -1.0523 -0.6213  1.1222
11462SOL    HW235230   4.504   7.533   1.347 -0.8085  0.0664  0.4216
11463SOL     OW35231   5.413   4.983   7.074  0.2528 -0.2317  0.2636
11463SOL    HW135232   5.362   4.905   7.054  0.2633  0.0308 -0.8749
11463SOL    HW235233   5.425   5.026   6.989  1.4802  0.2499  0.6600
11464SOL     OW35234   3.662   4.287   2.681 -0.3565 -0.1237 -0.1642
11464SOL    HW135235   3.583   4.276   2.628 -1.1209 -1.1957  1.1437
11464SOL    HW235236   3.630   4.317   2.767  0.6241 -0.8416  0.4813
11465SOL     OW35237   6.824   1.953   1.195 -0.4801 -0.1924  0.0630
11465SOL    HW135238   6.877   1.873   1.197 -1.1442 -0.6284  1.1082
11465SOL    HW235239   6.872   2.013   1.139  0.2914 -1.1511 -0.3213
11466SOL     OW35240   5.811   1.861   5.906  0.5376 -0.0440 -0.4038
11466SOL    HW135241   5.716   1.850   5.894  0.7281 -2.3020 -0.1672
11466SOL    HW235242   5.821   1.880   6.000  0.2777  1.3991 -0.6359
11467SOL     OW35243   6.824   5.698   3.366  0.0825 -0.7567  0.0462
11467SOL    HW135244   6.774   5.759   3.312  0.0966 -1.6403 -0.9754
11467SOL    HW235245   6.883   5.755   3.417 -0.5606  0.1412 -0.1887
11468SOL     OW35246   1.212   2.797   5.427 -0.0280 -0.2371  0.2147
11468SOL    HW135247   1.216   2.836   5.514 -0.8707  0.1226  0.1029
11468SOL    HW235248   1.161   2.859   5.375  1.0247 -0.1378 -0.7148
11469SOL     OW35249   2.924   5.044   7.891 -0.0168  0.0635 -0.0206
11469SOL    HW135250   2.991   4.977   7.904  0.8407  0.8443 -0.3569
11469SOL    HW235251   2.971   5.119   7.855 -0.7419  1.2995  1.5053
11470SOL     OW35252   4.799   5.020   7.603  0.2044 -0.2193 -0.7628
11470SOL    HW135253   4.722   4.999   7.656  0.6378 -1.4725 -0.5982
11470SOL    HW235254   4.831   5.103   7.639 -0.1122 -0.5296  0.2645
11471SOL     OW35255   2.484   1.895   3.238 -0.2636  0.8305  0.5237
11471SOL    HW135256   2.545   1.854   3.299  1.3260  2.9283  0.4526
11471SOL    HW235257   2.405   1.911   3.289 -0.1805 -0.4215  1.0754
11472SOL     OW35258   0.283   5.852   5.088 -0.0863  0.0093  0.2949
11472SOL    HW135259   0.226   5.892   5.022  0.7906 -2.6456 -2.2801
11472SOL    HW235260   0.234   5.775   5.118  1.6239 -1.8727 -1.3865
11473SOL     OW35261   4.212   6.858   6.736  0.2923 -0.2538 -0.1466
11473SOL    HW135262   4.280   6.910   6.694  1.3386  0.1831  1.9361
11473SOL    HW235263   4.141   6.854   6.672  1.5651  0.7883 -1.6909
11474SOL     OW35264   4.623   1.562   7.777 -0.3510 -0.2357 -0.1421
11474SOL    HW135265   4.577   1.547   7.694 -0.2371 -1.7677  0.0432
11474SOL    HW235266   4.569   1.517   7.842 -0.4221  0.9223  0.6422
11475SOL     OW35267   3.974   2.766   3.571  0.1549 -0.5445  0.1967
11475SOL    HW135268   3.923   2.729   3.642  0.5792 -0.7767  0.3867
11475SOL    HW235269   4.046   2.813   3.615 -0.5791  0.8377 -0.0155
11476SOL     OW35270   0.079   8.010   5.410 -0.2332  0.5590  0.6040
11476SOL    HW135271   0.001   7.990   5.462  1.1892 -1.2192  2.2152
11476SOL    HW235272   0.137   8.055   5.471  1.7206 -2.1055  0.8893
11477SOL     OW35273   7.732   2.801   2.622 -0.2379  0.6115  0.3835
11477SOL    HW135274   7.694   2.819   2.536  0.1600 -0.0649  0.0588
11477SOL    HW235275   7.771   2.714   2.614 -0.4187  0.4269  1.3260
11478SOL     OW35276   4.388   4.799   6.686 -0.4389  0.2061 -0.0085
11478SOL    HW135277   4.370   4.764   6.773 -0.4691 -0.8148 -0.4143
11478SOL    HW235278   4.364   4.728   6.626  0.8298  0.4138 -0.7818
11479SOL     OW35279   4.709   4.276   7.196 -0.0808 -0.1253 -0.3789
11479SOL    HW135280   4.748   4.269   7.109  0.4071 -1.1411 -0.0925
11479SOL    HW235281   4.745   4.357   7.232  1.5229 -0.8726 -0.2394
11480SOL     OW35282   4.424   2.490   1.226 -0.0302  0.0843  0.3128
11480SOL    HW135283   4.385   2.437   1.296  0.0498 -0.5156 -0.0968
11480SOL    HW235284   4.477   2.555   1.273 -0.9898  0.5146  0.8619
11481SOL     OW35285   6.274   3.730   2.284 -0.1562 -0.1392 -0.2028
11481SOL    HW135286   6.305   3.815   2.315  3.7626 -0.2862 -2.8941
11481SOL    HW235287   6.224   3.751   2.205  0.2173 -0.2714 -0.4772
11482SOL     OW35288   5.403   5.088   4.797 -0.1118  0.3598  0.0219
11482SOL    HW135289   5.496   5.069   4.785 -0.1958  0.0276 -0.1272
11482SOL    HW235290   5.363   5.064   4.713 -0.5406 -0.8546  0.5408
11483SOL     OW35291   0.676   1.941   7.095  0.6136 -0.0998  0.2982
11483SOL    HW135292   0.649   1.914   7.183 -2.9795 -1.2465 -0.9503
11483SOL    HW235293   0.758   1.895   7.079  1.3830  0.1510  2.9942
11484SOL     OW35294   0.716   6.607   1.309  0.2474 -0.1324 -0.2117
11484SOL    HW135295   0.791   6.636   1.362  0.5477 -0.2243 -0.5788
11484SOL    HW235296   0.717   6.665   1.233 -2.1928  2.2874  1.3912
11485SOL     OW35297   6.129   7.110   3.760 -0.5065 -0.4980 -0.1909
11485SOL    HW135298   6.107   7.116   3.853 -1.5141 -0.0788 -0.4423
11485SOL    HW235299   6.148   7.018   3.745 -0.2838 -0.5573  0.4420
11486SOL     OW35300   5.014   7.852   1.392  0.0339  0.4494  0.3941
11486SOL    HW135301   5.063   7.877   1.470  0.0444  0.4191  0.3978
11486SOL    HW235302   5.061   7.776   1.358  0.4275  0.8863 -0.0359
11487SOL     OW35303   6.463   4.690   7.310  0.0417 -0.1745 -0.1398
11487SOL    HW135304   6.436   4.768   7.260  0.2966  0.5342  0.7927
11487SOL    HW235305   6.508   4.726   7.386  0.9757 -1.2786 -0.1545
11488SOL     OW35306   2.299   6.344   7.277  0.4790 -0.1551 -0.8211
11488SOL    HW135307   2.319   6.358   7.184 -1.9608  1.3597 -1.1976
11488SOL    HW235308   2.215   6.299   7.277  0.2990  0.1327  0.6647
11489SOL     OW35309   7.867   7.192   1.600 -0.3579 -0.3690  0.1788
11489SOL    HW135310   7.931   7.145   1.654  0.5785 -0.1437 -0.7116
11489SOL    HW235311   7.840   7.266   1.654  2.0488  0.9971 -0.3749
11490SOL     OW35312   0.124   7.915   2.404  0.2696 -0.1950  0.1573
11490SOL    HW135313   0.143   7.966   2.483 -0.5730  0.5035 -0.0802
11490SOL    HW235314   0.130   7.978   2.333 -0.7737 -0.4155 -0.1435
11491SOL     OW35315   0.796   4.707   0.356 -0.0580  0.4614  0.7580
11491SOL    HW135316   0.888   4.733   0.344 -0.4397  2.3502  1.5558
11491SOL    HW235317   0.796   4.612   0.345  2.1765  0.2836  1.7435
11492SOL     OW35318   6.144   1.627   7.401  0.0588  0.1166  0.3366
11492SOL    HW135319   6.075   1.613   7.336 -0.3761 -1.5024  1.0891
11492SOL    HW235320   6.150   1.722   7.409 -0.3886  0.3455 -1.5023
11493SOL     OW35321   3.083   1.989   6.442 -0.0194 -0.1447  0.0501
11493SOL    HW135322   3.070   1.990   6.347  1.8155 -0.9038 -0.2485
11493SOL    HW235323   3.034   1.913   6.473 -1.0503  0.4009 -0.1898
11494SOL     OW35324   7.152   2.438   4.341 -0.0570 -0.2522  0.3208
11494SOL    HW135325   7.169   2.503   4.408  1.5638 -1.2791  0.9732
11494SOL    HW235326   7.068   2.398   4.366 -0.4948  0.7862  0.5326
11495SOL     OW35327   0.288   5.487   8.046  0.7507  0.1718  0.2344
11495SOL    HW135328   0.342   5.429   8.100 -0.8374 -0.3171  1.3736
11495SOL    HW235329   0.290   5.571   8.092 -1.2091 -0.4425  1.5589
11496SOL     OW35330   7.517   4.251   0.795 -0.0680 -0.4463 -0.2382
11496SOL    HW135331   7.475   4.240   0.880 -1.2746  0.7982 -0.6285
11496SOL    HW235332   7.445   4.247   0.732  0.5594  0.3921 -1.0442
11497SOL     OW35333   1.821   5.133   5.285 -0.1938  0.1430 -0.2648
11497SOL    HW135334   1.889   5.179   5.333  0.6618 -1.0250 -0.3176
11497SOL    HW235335   1.767   5.202   5.246  0.9396  1.0812 -0.1960
11498SOL     OW35336   7.893   4.086   1.701 -0.0003  0.2836 -0.1639
11498SOL    HW135337   7.949   4.039   1.638  2.1962  2.0399  0.3845
11498SOL    HW235338   7.877   4.022   1.771  0.1128 -0.6878 -0.9969
11499SOL     OW35339   2.984   8.105   4.474  0.4823 -0.4578 -0.0157
11499SOL    HW135340   2.942   8.027   4.438  1.3088 -1.4722  1.1050
11499SOL    HW235341   3.075   8.079   4.488  0.2032 -0.2146  2.8328
11500SOL     OW35342   4.236   2.761   8.002  0.5795 -0.3803 -0.1236
11500SOL    HW135343   4.156   2.758   8.054  0.6500  2.5560  0.3447
11500SOL    HW235344   4.271   2.672   8.006 -0.6469 -0.8470  2.8735
11501SOL     OW35345   5.093   4.637   0.560  0.2207 -0.0034  0.1235
11501SOL    HW135346   5.087   4.705   0.492 -0.8682 -0.4309 -0.2379
11501SOL    HW235347   5.006   4.597   0.560 -0.0530  0.4789  2.3109
11502SOL     OW35348   3.818   6.591   0.562  0.1944 -0.7134  0.2779
11502SOL    HW135349   3.855   6.676   0.540  0.6290 -0.7649  0.7978
11502SOL    HW235350   3.724   6.601   0.547  0.3933 -0.5533 -0.9618
11503SOL     OW35351   6.743   4.619   0.072 -0.0050 -1.0934 -0.2149
11503SOL    HW135352   6.838   4.621   0.081  0.0385  0.3081 -0.7608
11503SOL    HW235353   6.711   4.674   0.144 -0.3334 -0.6497 -0.6917
11504SOL     OW35354   7.541   2.447   5.718 -0.0282  0.0337  0.3048
11504SOL    HW135355   7.586   2.528   5.741  0.7935 -0.0550 -0.8902
11504SOL    HW235356   7.591   2.412   5.644 -1.3060 -0.7447 -0.2273
11505SOL     OW35357   1.500   3.336   2.761  0.0537 -0.1172 -0.0724
11505SOL    HW135358   1.438   3.408   2.763  1.6277  1.2951  1.0967
11505SOL    HW235359   1.468   3.275   2.828 -0.5692  0.1151 -0.1499
11506SOL     OW35360   2.641   7.903   7.431  0.0410  0.1020 -0.3138
11506SOL    HW135361   2.634   7.885   7.338  0.3231 -1.0674 -0.1278
11506SOL    HW235362   2.703   7.837   7.463 -0.3161  0.2695  0.7539
11507SOL     OW35363   4.314   2.399   1.915  0.9662  0.1819  0.0288
11507SOL    HW135364   4.262   2.425   1.839  0.3804  1.6063  0.8798
11507SOL    HW235365   4.255   2.345   1.967  0.6277  1.0257  0.5356
11508SOL     OW35366   5.491   8.080   1.890  0.8518  0.1106  0.0632
11508SOL    HW135367   5.459   8.085   1.981 -0.8405 -1.1448 -0.4122
11508SOL    HW235368   5.498   7.986   1.872 -1.1616  0.2441 -1.8326
11509SOL     OW35369   0.159   7.910   0.045  0.3140 -0.0189 -0.4465
11509SOL    HW135370   0.213   7.832   0.058  0.6345  0.2964  0.1727
11509SOL    HW235371   0.114   7.921   0.129  0.1057  0.3366 -0.6054
11510SOL     OW35372   0.388   5.702   2.394 -0.2074 -0.2295 -0.4324
11510SOL    HW135373   0.424   5.614   2.399  1.5946  0.2201 -3.2343
11510SOL    HW235374   0.303   5.691   2.352  0.2010 -0.6118 -1.1681
11511SOL     OW35375   4.088   3.183   2.659  0.1265 -1.2291 -0.2830
11511SOL    HW135376   4.173   3.204   2.620 -0.1877 -0.4102 -0.5465
11511SOL    HW235377   4.039   3.265   2.656 -0.1955 -1.3419  1.1285
11512SOL     OW35378   7.792   7.788   1.972  0.0139 -0.0685 -0.0845
11512SOL    HW135379   7.763   7.876   1.947 -0.0327  0.0098  0.2328
11512SOL    HW235380   7.748   7.730   1.910  1.3352  0.2372 -1.3509
11513SOL     OW35381   5.121   5.415   7.317 -0.7871 -0.0476  0.7640
11513SOL    HW135382   5.189   5.353   7.292 -1.4227  0.0832 -1.6319
11513SOL    HW235383   5.137   5.434   7.409  0.7512 -2.0610  0.9835
11514SOL     OW35384   3.548   6.008   1.916  0.3253 -0.4051  0.1291
11514SOL    HW135385   3.631   6.055   1.920  0.1777 -0.0744 -0.4698
11514SOL    HW235386   3.557   5.949   1.841  0.8471 -2.0254  1.4256
11515SOL     OW35387   5.587   3.868   5.551 -0.1553 -0.2513 -0.0454
11515SOL    HW135388   5.636   3.795   5.513 -2.0176 -0.9004 -1.2906
11515SOL    HW235389   5.523   3.826   5.609 -1.0854  0.4032 -0.5865
11516SOL     OW35390   2.775   1.883   5.561 -0.0189 -0.2799 -0.1713
11516SOL    HW135391   2.681   1.867   5.569 -0.3367  1.1388 -0.8249
11516SOL    HW235392   2.815   1.799   5.583 -1.4006 -0.7126  0.8430
11517SOL     OW35393   6.480   1.489   0.699  0.0515  0.0285 -0.6132
11517SOL    HW135394   6.496   1.567   0.646 -2.3934  0.2429 -1.1692
11517SOL    HW235395   6.393   1.460   0.673 -0.8877 -0.4385  2.6151
11518SOL     OW35396   3.405   3.321   1.614 -0.1183  0.4248 -0.4564
11518SOL    HW135397   3.493   3.360   1.621  0.3724 -0.8107  0.7400
11518SOL    HW235398   3.387   3.286   1.701 -0.7742 -1.4736 -1.2864
11519SOL     OW35399   3.427   7.330   1.974 -0.1579  0.2848  0.0131
11519SOL    HW135400   3.496   7.392   1.950  0.8150 -0.9194 -0.3848
11519SOL    HW235401   3.455   7.295   2.058 -1.6291  1.6721  1.1431
11520SOL     OW35402   3.521   3.517   7.946  0.1653  0.0539 -0.0899
11520SOL    HW135403   3.493   3.607   7.927  2.8880  1.2049  0.8817
11520SOL    HW235404   3.518   3.510   8.041  0.1991 -0.8189 -0.1447
11521SOL     OW35405   4.077   1.364   4.411  0.2511 -0.0946  0.1615
11521SOL    HW135406   4.077   1.268   4.411 -0.3337 -0.1009  0.7695
11521SOL    HW235407   4.068   1.388   4.503  0.6901  0.5545  0.0463
11522SOL     OW35408   2.125   0.141   1.493 -0.5922  0.3576 -0.1318
11522SOL    HW135409   2.065   0.067   1.483 -0.1279 -0.0283 -0.1074
11522SOL    HW235410   2.184   0.135   1.418 -1.1099  1.2468 -0.6310
11523SOL     OW35411   5.356   7.628   6.290  0.5024 -0.1034  0.0166
11523SOL    HW135412   5.417   7.560   6.262  1.4255  0.4860  0.5212
11523SOL    HW235413   5.366   7.697   6.223 -1.1487 -0.8276 -1.0425
11524SOL     OW35414   3.825   1.596   5.583 -0.1472 -0.7299 -0.0208
11524SOL    HW135415   3.883   1.544   5.638 -0.6619 -0.5576  0.6923
11524SOL    HW235416   3.881   1.665   5.547 -0.5171  1.5574  3.3783
11525SOL     OW35417   5.649   8.039   0.727 -0.0959  0.6130  0.3068
11525SOL    HW135418   5.691   8.098   0.664  0.8491  0.8496  1.1396
11525SOL    HW235419   5.702   8.047   0.806 -0.5102 -0.6471  0.7322
11526SOL     OW35420   5.353   3.387   5.064  0.1627  0.5056  0.2705
11526SOL    HW135421   5.411   3.332   5.011 -0.3704  1.8315 -1.7905
11526SOL    HW235422   5.407   3.414   5.138  1.4093 -0.2202 -0.3365
11527SOL     OW35423   2.353   2.578   5.423  0.0022  0.3838  0.0588
11527SOL    HW135424   2.287   2.510   5.408 -0.6677  1.0056  0.1392
11527SOL    HW235425   2.304   2.652   5.458  0.7406  0.8691  0.0882
11528SOL     OW35426   3.648   2.643   5.493  0.7213 -0.1748  0.5377
11528SOL    HW135427   3.694   2.599   5.421  0.0932 -2.5652  1.5197
11528SOL    HW235428   3.700   2.624   5.571 -0.5484 -0.7507  1.2681
11529SOL     OW35429   4.533   3.941   4.823  0.4690 -0.1531  0.2167
11529SOL    HW135430   4.501   3.852   4.834  0.7396 -0.3568 -0.6086
11529SOL    HW235431   4.627   3.936   4.842  0.5961 -0.1634 -0.3883
11530SOL     OW35432   3.682   4.794   4.662  0.4410  0.6573 -0.5202
11530SOL    HW135433   3.750   4.759   4.720  0.2610  1.6299  0.2858
11530SOL    HW235434   3.730   4.822   4.584  0.6745 -0.7106 -0.9000
11531SOL     OW35435   3.600   2.756   1.531 -0.1534 -0.5722  0.2198
11531SOL    HW135436   3.532   2.708   1.579  1.8725 -3.8881  0.0957
11531SOL    HW235437   3.650   2.801   1.599  0.0613 -1.6648  0.8178
11532SOL     OW35438   4.605   3.956   4.570 -0.0526  0.1117 -0.3789
11532SOL    HW135439   4.571   3.961   4.660 -0.1608 -1.4397 -0.3087
11532SOL    HW235440   4.580   4.040   4.530 -1.4514  0.1598  0.5331
11533SOL     OW35441   1.666   4.736   0.843 -0.0299 -0.1750 -0.0877
11533SOL    HW135442   1.733   4.668   0.856 -0.3929 -0.3121  1.1602
11533SOL    HW235443   1.639   4.724   0.752  1.4542 -0.2772 -0.5476
11534SOL     OW35444   6.684   2.801   3.344  0.3645 -0.0779 -0.0097
11534SOL    HW135445   6.749   2.866   3.371  0.2816 -0.0449  0.1135
11534SOL    HW235446   6.692   2.796   3.249  0.6418 -0.1716  0.0177
11535SOL     OW35447   6.426   4.114   0.103  0.2757 -0.1984  0.0424
11535SOL    HW135448   6.379   4.125   0.186 -1.0420  2.7362 -0.9381
11535SOL    HW235449   6.360   4.077   0.043  1.1139 -1.9608  0.1513
11536SOL     OW35450   2.068   0.614   6.003 -0.3540 -0.0276  0.0980
11536SOL    HW135451   1.992   0.570   6.042 -0.0432 -1.9238 -1.2959
11536SOL    HW235452   2.096   0.556   5.933  1.3484  1.4836 -0.5523
11537SOL     OW35453   1.314   6.288   2.169 -0.0775  0.1780  0.3024
11537SOL    HW135454   1.353   6.245   2.093  0.2494  1.8854 -0.5421
11537SOL    HW235455   1.387   6.297   2.231 -0.3471 -1.2253  0.8682
11538SOL     OW35456   1.760   5.246   0.084 -0.2858  0.1977 -0.5206
11538SOL    HW135457   1.735   5.177   0.022 -0.9157 -0.5722  0.5517
11538SOL    HW235458   1.815   5.202   0.148  2.3411  1.4634 -1.7403
11539SOL     OW35459   5.113   1.544   3.620 -0.3698  0.3053  0.1652
11539SOL    HW135460   5.071   1.468   3.579 -2.6454  1.7931 -0.4541
11539SOL    HW235461   5.165   1.582   3.550  1.2358 -0.9397  0.6316
11540SOL     OW35462   1.707   5.245   4.708  0.1165  0.0468 -0.6977
11540SOL    HW135463   1.689   5.303   4.783  0.9807 -1.4203  0.6977
11540SOL    HW235464   1.684   5.298   4.632 -1.7423  1.2773  0.6089
11541SOL     OW35465   2.771   1.442   2.912 -0.0067 -0.1013 -0.7900
11541SOL    HW135466   2.778   1.533   2.885  1.6402 -0.3181 -1.2256
11541SOL    HW235467   2.818   1.437   2.995 -0.0198 -0.5575 -0.8038
11542SOL     OW35468   7.458   1.413   0.991 -0.4749  0.4435  0.3956
11542SOL    HW135469   7.501   1.345   0.939  0.8738  0.1219  1.8580
11542SOL    HW235470   7.397   1.455   0.930 -0.7116 -1.4920 -0.7711
11543SOL     OW35471   2.359   0.191   4.180 -0.4952  0.1623 -0.0559
11543SOL    HW135472   2.405   0.172   4.262 -0.3710 -0.7986 -0.3354
11543SOL    HW235473   2.349   0.286   4.180 -1.8227  0.0773  1.7847
11544SOL     OW35474   2.442   3.217   7.918 -0.0672  0.0652 -0.0227
11544SOL    HW135475   2.415   3.209   7.827  2.1577 -2.2144 -0.5886
11544SOL    HW235476   2.533   3.189   7.919  0.0275  0.1861  2.8808
11545SOL     OW35477   7.482   3.192   3.359  0.4665  0.4033  0.0485
11545SOL    HW135478   7.488   3.155   3.447 -1.2845  1.2120  0.5554
11545SOL    HW235479   7.561   3.247   3.350  1.4729 -0.9257  0.4646
11546SOL     OW35480   5.011   7.406   6.311 -0.1064 -0.2084  0.2125
11546SOL    HW135481   5.021   7.491   6.353 -1.3820 -0.5121  1.1663
11546SOL    HW235482   5.093   7.360   6.330 -0.4287 -0.1373  1.9445
11547SOL     OW35483   7.226   6.884   6.088 -0.1569 -0.4249 -0.3511
11547SOL    HW135484   7.136   6.852   6.079 -0.2392 -0.9710  1.9019
11547SOL    HW235485   7.232   6.914   6.179  2.2664 -1.4660 -0.0957
11548SOL     OW35486   7.863   5.976   7.528 -0.0043 -0.3747  0.2826
11548SOL    HW135487   7.772   5.997   7.547 -0.3132 -1.4071 -0.0088
11548SOL    HW235488   7.902   6.059   7.501 -0.3484  0.4911  2.2539
11549SOL     OW35489   2.342   1.529   7.628 -0.4015 -0.2809  0.3923
11549SOL    HW135490   2.382   1.540   7.714 -1.9231 -0.9893  1.2311
11549SOL    HW235491   2.296   1.612   7.612 -1.9046 -0.8912  1.2858
11550SOL     OW35492   1.236   2.592   5.718 -0.4504  0.3667 -0.7949
11550SOL    HW135493   1.185   2.665   5.753  1.6918  0.4041  2.7017
11550SOL    HW235494   1.299   2.635   5.659 -0.8274  1.0317 -0.7292
11551SOL     OW35495   2.286   6.099   0.637 -0.4279  0.4358 -0.2149
11551SOL    HW135496   2.270   6.158   0.711 -0.5528  0.3323 -0.1598
11551SOL    HW235497   2.291   6.156   0.561 -0.3552  0.5377 -0.1343
11552SOL     OW35498   5.183   7.181   3.627 -0.3443 -0.0590 -0.2749
11552SOL    HW135499   5.160   7.253   3.568 -1.4626  0.9209  1.2678
11552SOL    HW235500   5.212   7.225   3.707  1.4136 -1.3437 -0.1315
11553SOL     OW35501   0.568   3.409   5.352 -0.3564  0.1890 -0.2752
11553SOL    HW135502   0.565   3.404   5.448 -0.0122  0.6115 -0.2368
11553SOL    HW235503   0.608   3.494   5.334  0.5338 -0.3223 -0.7797
11554SOL     OW35504   7.375   7.046   0.756 -0.7181  0.3136  0.2436
11554SOL    HW135505   7.346   6.985   0.824  0.1511  1.0206  1.2828
11554SOL    HW235506   7.469   7.055   0.771 -0.5159  0.4853 -1.0729
11555SOL     OW35507   2.350   8.029   5.631 -0.0199  0.3034  0.0650
11555SOL    HW135508   2.431   8.081   5.627 -0.4791  1.3365  2.4785
11555SOL    HW235509   2.285   8.082   5.587  0.1485  0.4676  0.0127
11556SOL     OW35510   3.073   1.638   7.375  0.6440  0.0782 -0.1119
11556SOL    HW135511   3.152   1.634   7.428 -0.5205  0.5275  1.7363
11556SOL    HW235512   3.009   1.585   7.422 -0.9834  2.0022 -0.0428
11557SOL     OW35513   1.523   4.714   6.387 -0.4751 -0.6629  0.0255
11557SOL    HW135514   1.591   4.771   6.350 -0.9712 -0.5519 -0.7368
11557SOL    HW235515   1.455   4.775   6.418  0.2683 -0.7033  1.8900
11558SOL     OW35516   7.884   5.707   2.981 -0.7268 -0.5810  0.1589
11558SOL    HW135517   7.891   5.665   2.895  2.1218 -1.4327  0.7170
11558SOL    HW235518   7.912   5.797   2.966 -0.0428 -0.7803  0.1984
11559SOL     OW35519   6.094   7.283   6.570 -0.3439 -0.0066  0.5649
11559SOL    HW135520   6.062   7.215   6.629 -2.2387  0.0901 -0.2660
11559SOL    HW235521   6.148   7.237   6.506 -1.5910 -0.7836  0.0241
11560SOL     OW35522   1.384   1.005   0.570  0.3757 -0.4056  0.1893
11560SOL    HW135523   1.375   1.085   0.518 -0.0663 -0.5497  0.0427
11560SOL    HW235524   1.359   1.031   0.659 -0.4983 -0.5550 -0.0066
11561SOL     OW35525   4.081   6.342   7.857  1.0703  0.1374 -0.1849
11561SOL    HW135526   4.153   6.286   7.888 -0.4867 -1.7101  0.2980
11561SOL    HW235527   4.039   6.290   7.789  1.4077  2.0843 -1.9403
11562SOL     OW35528   7.398   6.787   2.687  0.3642 -0.2332 -0.1583
11562SOL    HW135529   7.327   6.837   2.726 -0.2719 -1.1509 -0.1048
11562SOL    HW235530   7.371   6.773   2.596 -0.5521 -2.3047  0.3517
11563SOL     OW35531   5.159   0.291   2.761  0.1902  0.2194 -0.3564
11563SOL    HW135532   5.072   0.258   2.736  0.8819 -2.6996  0.6783
11563SOL    HW235533   5.214   0.275   2.685  0.5344 -1.1628  0.1582
11564SOL     OW35534   0.896   0.181   1.176  0.3340 -0.2385 -0.1986
11564SOL    HW135535   0.857   0.232   1.248  1.9837  1.4506 -0.4287
11564SOL    HW235536   0.989   0.206   1.177  0.7484 -1.5826 -1.7685
11565SOL     OW35537   2.175   5.761   3.352  0.3178  0.2162  0.0089
11565SOL    HW135538   2.250   5.767   3.411  0.1236  1.0816  0.1870
11565SOL    HW235539   2.109   5.819   3.392 -0.5727 -0.7748  0.0405
11566SOL     OW35540   1.379   1.141   6.866  0.5462 -0.4317 -0.4777
11566SOL    HW135541   1.404   1.194   6.790 -1.6637 -0.0950 -1.0688
11566SOL    HW235542   1.461   1.111   6.904  1.7443 -1.1884 -3.4205
11567SOL     OW35543   0.321   2.163   3.860  0.1388 -0.3298  0.2452
11567SOL    HW135544   0.264   2.223   3.811  0.0137  0.9747  1.8807
11567SOL    HW235545   0.261   2.108   3.909  0.2703 -0.2681  0.4754
11568SOL     OW35546   7.484   2.743   1.122  0.2642  0.7089  0.1260
11568SOL    HW135547   7.435   2.792   1.055 -0.9593  0.4254  0.7808
11568SOL    HW235548   7.477   2.651   1.094 -0.2292  0.5915  0.6091
11569SOL     OW35549   1.964   1.092   6.503  0.2667 -0.2922 -0.6639
11569SOL    HW135550   1.953   1.042   6.422  1.1526 -0.8576 -0.4438
11569SOL    HW235551   1.883   1.079   6.551  0.7970 -2.2735 -0.2068
11570SOL     OW35552   5.911   3.126   7.695 -0.0014  0.1342  0.1767
11570SOL    HW135553   5.854   3.197   7.726 -0.7705 -0.3390 -0.1438
11570SOL    HW235554   5.951   3.091   7.774  0.9531  1.3768  0.2918
11571SOL     OW35555   6.995   2.271   6.659  0.5253  0.2317  0.0272
11571SOL    HW135556   7.017   2.340   6.596  1.6646 -0.0515  0.0831
11571SOL    HW235557   7.002   2.313   6.744 -2.3920  0.9931 -0.0100
11572SOL     OW35558   1.936   7.385   0.658 -0.5142  0.0521 -0.0358
11572SOL    HW135559   1.885   7.465   0.669  0.6027  0.9242 -0.9534
11572SOL    HW235560   2.019   7.403   0.701  0.0179 -0.3311 -0.8679
11573SOL     OW35561   6.527   4.342   3.157  0.3439  0.2563 -0.0298
11573SOL    HW135562   6.533   4.248   3.143 -0.7752  0.1964 -0.1594
11573SOL    HW235563   6.599   4.362   3.217  1.6892 -0.3828 -1.3392
11574SOL     OW35564   5.813   6.858   6.630  0.1399  0.6454 -0.1519
11574SOL    HW135565   5.730   6.900   6.608 -0.2095  0.7365  1.2532
11574SOL    HW235566   5.794   6.764   6.627  0.2003  0.6400 -0.5484
11575SOL     OW35567   2.602   4.521   7.592  0.0367 -0.3107 -0.4382
11575SOL    HW135568   2.543   4.516   7.667  0.4087  2.2022  0.1262
11575SOL    HW235569   2.688   4.534   7.630  0.1032  2.0355 -1.2203
11576SOL     OW35570   3.806   1.390   4.845  0.8129  0.7209 -0.3183
11576SOL    HW135571   3.880   1.396   4.785  0.6858  0.2333 -0.5252
11576SOL    HW235572   3.763   1.308   4.822 -0.5403  1.5887 -1.0582
11577SOL     OW35573   5.758   6.942   4.449  0.2611 -0.3131  0.1454
11577SOL    HW135574   5.713   7.007   4.395  0.7291  0.2766  0.4420
11577SOL    HW235575   5.707   6.862   4.438  0.1154 -0.1003 -0.8348
11578SOL     OW35576   3.534   8.093   0.849 -0.0689  0.0265 -0.2796
11578SOL    HW135577   3.557   8.102   0.756 -0.6517 -2.2160 -0.7093
11578SOL    HW235578   3.438   8.089   0.850 -0.0362 -1.4890  0.1902
11579SOL     OW35579   6.011   4.845   4.581  0.7369  0.0928  0.5288
11579SOL    HW135580   6.056   4.765   4.607 -0.1478 -0.5141  0.2396
11579SOL    HW235581   5.935   4.850   4.639 -0.9143 -0.9473 -1.4313
11580SOL     OW35582   0.069   3.399   3.869 -0.2638  0.2565  0.7316
11580SOL    HW135583   0.114   3.378   3.787 -0.5361  0.7173  0.4654
11580SOL    HW235584   0.033   3.486   3.856 -2.6523 -0.7040  0.3165
11581SOL     OW35585   1.325   1.175   3.842  0.1493  0.6822 -0.4239
11581SOL    HW135586   1.350   1.112   3.774  1.3144  0.1819  0.4383
11581SOL    HW235587   1.402   1.183   3.898 -0.3030  2.1548  0.0515
11582SOL     OW35588   3.131   7.460   3.508  0.0774  0.2672 -0.2720
11582SOL    HW135589   3.211   7.501   3.477  0.4696  0.7328  1.2658
11582SOL    HW235590   3.119   7.495   3.596 -1.6437 -0.0437 -0.3463
11583SOL     OW35591   7.768   0.530   2.994 -0.1552  0.3564  0.0448
11583SOL    HW135592   7.736   0.572   3.074 -2.9587  1.2006 -1.3682
11583SOL    HW235593   7.732   0.441   2.998 -0.6173  0.5127 -0.3867
11584SOL     OW35594   7.157   2.288   7.402 -0.1979 -0.0933 -0.2655
11584SOL    HW135595   7.186   2.316   7.315 -0.4567 -0.6154 -0.5240
11584SOL    HW235596   7.112   2.364   7.438  0.1858  0.2281 -0.4632
11585SOL     OW35597   1.395   5.370   4.947  0.3319  0.4298  0.1277
11585SOL    HW135598   1.360   5.421   5.019  2.6122 -0.0864  1.7144
11585SOL    HW235599   1.326   5.307   4.925  0.0308 -0.2768  2.7862
11586SOL     OW35600   0.561   2.748   6.293  0.6351 -0.4695 -0.2593
11586SOL    HW135601   0.636   2.692   6.274  0.1102 -0.2546 -3.5241
11586SOL    HW235602   0.488   2.706   6.248 -1.3303 -0.7240  2.8804
11587SOL     OW35603   6.862   4.343   2.747  0.4181 -0.2312  0.2213
11587SOL    HW135604   6.878   4.295   2.666 -1.0112 -0.5108  0.0846
11587SOL    HW235605   6.782   4.393   2.730 -0.0291 -0.4741  1.5368
11588SOL     OW35606   3.608   6.511   3.702 -0.2963  0.0089  0.3751
11588SOL    HW135607   3.600   6.416   3.705 -0.2042  0.0204  1.0179
11588SOL    HW235608   3.648   6.528   3.616  2.5424 -0.7583  1.4336
11589SOL     OW35609   1.096   0.157   8.027  0.0202 -0.7595 -0.0313
11589SOL    HW135610   1.129   0.107   7.953 -1.0286 -1.3093 -0.1496
11589SOL    HW235611   1.171   0.166   8.085  0.3954 -1.9490 -0.3010
11590SOL     OW35612   7.941   0.036   5.456  0.0526 -0.0488 -0.5186
11590SOL    HW135613   7.951  -0.033   5.521 -0.2342 -1.4076 -1.8597
11590SOL    HW235614   7.847   0.040   5.439  0.3246 -2.1440 -3.2637
11591SOL     OW35615   2.396   3.262   5.352 -0.0761  0.1353  0.2075
11591SOL    HW135616   2.433   3.221   5.273  1.4465  1.0409  0.4013
11591SOL    HW235617   2.338   3.195   5.389 -0.6984 -0.3731 -1.5705
11592SOL     OW35618   5.184   3.922   5.367  0.7049  0.0402  0.0126
11592SOL    HW135619   5.179   3.866   5.290 -0.0251  0.3032 -0.1443
11592SOL    HW235620   5.156   4.008   5.335  3.3211  0.9265 -0.1337
11593SOL     OW35621   7.443   3.150   1.441 -0.3542 -0.6178 -0.1589
11593SOL    HW135622   7.521   3.183   1.487  0.9142 -1.3362 -1.7190
11593SOL    HW235623   7.398   3.097   1.507  0.3030  0.0262  0.8495
11594SOL     OW35624   3.779   7.372   1.178 -0.3140 -0.2786 -0.2251
11594SOL    HW135625   3.780   7.460   1.142  2.3423  0.0611  0.4798
11594SOL    HW235626   3.770   7.315   1.101  1.4412  0.5334 -1.0897
11595SOL     OW35627   4.627   0.216   2.190  0.4877 -0.2144 -0.4592
11595SOL    HW135628   4.695   0.278   2.164 -0.7370  0.4752 -2.2441
11595SOL    HW235629   4.555   0.271   2.221 -0.2886 -0.7614 -1.2409
11596SOL     OW35630   4.738   2.574   0.321 -0.0093 -0.3818 -0.1358
11596SOL    HW135631   4.667   2.513   0.299 -1.8412  1.8111 -0.6696
11596SOL    HW235632   4.699   2.633   0.386  1.6449  0.3403  0.2438
11597SOL     OW35633   0.034   5.888   1.588 -0.3462 -0.0099  0.2627
11597SOL    HW135634  -0.033   5.930   1.642  0.6686 -0.1417  1.6715
11597SOL    HW235635   0.110   5.946   1.595  0.1259 -0.5550 -0.2292
11598SOL     OW35636   4.797   7.571   7.400  0.2628  0.0660 -0.4691
11598SOL    HW135637   4.745   7.598   7.475  1.4340  0.0793  0.3696
11598SOL    HW235638   4.763   7.484   7.378  0.1525 -0.0916  0.3074
11599SOL     OW35639   2.639   2.984   3.579 -0.0582  1.1090  0.1458
11599SOL    HW135640   2.603   3.073   3.578 -0.3558  0.9866  0.1197
11599SOL    HW235641   2.640   2.959   3.671 -2.1231  0.2624 -0.0194
11600SOL     OW35642   1.048   7.630   3.156  0.2485 -0.3704  0.3271
11600SOL    HW135643   0.972   7.658   3.106 -0.1067 -1.7378  0.0630
11600SOL    HW235644   1.038   7.674   3.241  0.5752  1.5324 -0.5663
11601SOL     OW35645   2.199   1.833   0.193  0.1424  0.0485 -0.5247
11601SOL    HW135646   2.116   1.855   0.236  0.2504 -1.6161  0.6499
11601SOL    HW235647   2.263   1.833   0.265  0.7243 -0.8492 -1.0311
11602SOL     OW35648   3.409   1.473   2.244 -0.0808 -0.3821 -0.0218
11602SOL    HW135649   3.463   1.411   2.292 -1.8972 -0.9457  1.4420
11602SOL    HW235650   3.332   1.485   2.300 -0.9925  1.1428 -1.5229
11603SOL     OW35651   3.747   7.091   7.810 -0.4667 -0.0049 -0.1414
11603SOL    HW135652   3.792   7.009   7.789  0.6108  0.6671 -0.5146
11603SOL    HW235653   3.772   7.111   7.900 -0.9845 -0.2430  0.0582
11604SOL     OW35654   4.308   6.916   5.421  0.3038  0.3939  0.1476
11604SOL    HW135655   4.370   6.893   5.351  0.9151  1.6745  0.2332
11604SOL    HW235656   4.363   6.954   5.490 -0.6154  2.1897 -0.0512
11605SOL     OW35657   6.808   1.976   5.475 -0.2130  0.1575  0.5927
11605SOL    HW135658   6.873   1.917   5.513 -1.0909 -1.0308  0.3298
11605SOL    HW235659   6.854   2.019   5.403  0.3093 -0.6110  0.4501
11606SOL     OW35660   6.140   3.957   3.346 -0.9096 -0.2298  0.1878
11606SOL    HW135661   6.092   3.899   3.286  2.3359 -2.4838 -0.4964
11606SOL    HW235662   6.172   4.027   3.290  0.0904 -1.0402 -0.3019
11607SOL     OW35663   1.349   7.927   4.453  0.2245 -0.7098 -0.0499
11607SOL    HW135664   1.392   7.964   4.530 -1.6362  1.1654  0.1666
11607SOL    HW235665   1.414   7.935   4.383  0.9441  0.1526  0.6971
11608SOL     OW35666   3.246   4.806   5.981  0.1619 -0.0624 -0.0868
11608SOL    HW135667   3.279   4.841   5.898 -1.5885 -1.0561 -1.2687
11608SOL    HW235668   3.210   4.882   6.026 -0.4162  0.2318 -1.0243
11609SOL     OW35669   0.434   2.172   2.743 -0.2839  0.1530 -0.0382
11609SOL    HW135670   0.369   2.102   2.733 -1.0291  0.8212  0.0658
11609SOL    HW235671   0.510   2.141   2.693 -0.3840 -0.9886  0.4812
11610SOL     OW35672   0.521   5.403   8.175 -0.0521  0.2361 -0.9258
11610SOL    HW135673   0.545   5.483   8.129 -0.3430 -0.4357 -2.3133
11610SOL    HW235674   0.575   5.335   8.135 -0.4762 -0.4119 -0.4243
11611SOL     OW35675   0.071   5.523   6.649 -0.1240 -0.3868  0.5888
11611SOL    HW135676   0.017   5.530   6.570  2.0322 -1.3300 -1.0789
11611SOL    HW235677   0.080   5.429   6.663  3.5690 -0.4693 -1.1532
11612SOL     OW35678   1.205   7.277   2.399  0.2636 -0.5025  0.0533
11612SOL    HW135679   1.256   7.343   2.352  1.7997 -1.5085  0.2375
11612SOL    HW235680   1.230   7.194   2.359 -0.9600 -1.0811  0.4174
11613SOL     OW35681   7.284   5.709   1.708  0.4398  0.3944 -0.4216
11613SOL    HW135682   7.264   5.711   1.802  0.6237 -3.2848 -0.1672
11613SOL    HW235683   7.200   5.725   1.665 -0.3055 -0.9385  0.4647
11614SOL     OW35684   5.979   2.454   2.300  0.1105  0.3026  0.0111
11614SOL    HW135685   6.073   2.461   2.319  0.0618  0.0119  0.3761
11614SOL    HW235686   5.975   2.414   2.213  0.3216 -1.4669  0.7754
11615SOL     OW35687   7.876   3.186   4.875  0.0567  0.6066  0.1989
11615SOL    HW135688   7.898   3.188   4.782 -0.3897  0.4984  0.0882
11615SOL    HW235689   7.957   3.160   4.918 -0.1845 -1.2289 -0.3335
11616SOL     OW35690   1.936   7.286   6.778 -0.3851  0.2087  0.1693
11616SOL    HW135691   1.938   7.269   6.872 -1.3655  2.8527  0.7596
11616SOL    HW235692   1.974   7.374   6.769 -2.3611  0.9520 -1.6093
11617SOL     OW35693   0.658   2.113   4.910 -0.4525 -0.3833 -0.2993
11617SOL    HW135694   0.658   2.203   4.943  0.5807 -0.7158  0.6383
11617SOL    HW235695   0.572   2.104   4.868 -0.5072  1.0880 -0.5688
11618SOL     OW35696   0.746   2.450   7.029  0.3564 -0.4964 -0.4605
11618SOL    HW135697   0.826   2.490   7.064 -0.4724 -0.5631  1.6286
11618SOL    HW235698   0.700   2.417   7.106 -1.6143 -0.6182 -1.6329
11619SOL     OW35699   7.465   0.338   2.779  0.3615 -0.1741  0.0606
11619SOL    HW135700   7.539   0.292   2.819  0.2498 -0.3998  0.0117
11619SOL    HW235701   7.505   0.405   2.724  0.6060 -1.5305 -1.5014
11620SOL     OW35702   6.955   0.344   5.088 -0.0954 -0.7314 -0.1680
11620SOL    HW135703   6.923   0.413   5.030 -0.7609 -1.5602 -0.8426
11620SOL    HW235704   7.025   0.301   5.038 -0.0840 -0.9044 -0.0057
11621SOL     OW35705   7.034   8.104   4.189  0.3348 -0.0410 -0.3868
11621SOL    HW135706   7.057   8.181   4.241 -0.3915 -0.0765 -0.0048
11621SOL    HW235707   7.067   8.030   4.240  0.2488 -0.0355 -0.3234
11622SOL     OW35708   7.909   1.308   7.127  0.0430  0.4934  0.6153
11622SOL    HW135709   7.982   1.367   7.148 -0.6083  1.2668  0.7885
11622SOL    HW235710   7.834   1.367   7.118 -0.3229 -0.1590 -0.7951
11623SOL     OW35711   2.538   7.229   1.848 -0.0522 -0.2792  0.3140
11623SOL    HW135712   2.622   7.190   1.822  0.0104  0.4279 -0.5938
11623SOL    HW235713   2.474   7.192   1.788 -0.1892  0.0884  0.2269
11624SOL     OW35714   2.946   1.380   2.668 -0.5752  0.0193 -0.4109
11624SOL    HW135715   2.886   1.421   2.730 -0.5810 -0.3147 -0.1945
11624SOL    HW235716   2.987   1.309   2.718  0.3586  0.5484 -0.4071
11625SOL     OW35717   8.162   4.717   7.561 -0.1567  0.2004  0.0651
11625SOL    HW135718   8.142   4.703   7.468 -1.5162  0.7112  0.2654
11625SOL    HW235719   8.080   4.750   7.598  0.8972  1.7832  1.0765
11626SOL     OW35720   1.089   6.467   3.391  0.4499  0.5947  0.0384
11626SOL    HW135721   1.056   6.418   3.316  1.8014 -0.4476  0.1033
11626SOL    HW235722   1.054   6.556   3.379 -0.5641  0.0791 -1.0130
11627SOL     OW35723   7.685   1.498   5.613  0.3071  0.3550 -0.6475
11627SOL    HW135724   7.606   1.551   5.626  0.7937  0.5330  2.1449
11627SOL    HW235725   7.738   1.548   5.551  0.2437  2.6239  0.9971
11628SOL     OW35726   1.994   2.227   7.326  0.1460  0.1524  0.2385
11628SOL    HW135727   1.922   2.164   7.325 -1.2550  1.6606  1.2015
11628SOL    HW235728   1.977   2.282   7.403  1.6664  1.3251 -0.2007
11629SOL     OW35729   2.347   7.875   2.833  0.3307 -0.3589  0.0412
11629SOL    HW135730   2.356   7.923   2.750  1.7456  1.0625  0.9629
11629SOL    HW235731   2.325   7.786   2.806  2.3021 -0.3470 -1.9757
11630SOL     OW35732   0.023   3.759   2.458 -0.4971  0.7725 -0.0880
11630SOL    HW135733   0.030   3.832   2.396 -1.1920 -0.3050 -1.4915
11630SOL    HW235734  -0.045   3.787   2.520 -1.9396  0.7150 -1.5557
11631SOL     OW35735   5.079   7.559   1.570  0.5233  0.0456 -0.1632
11631SOL    HW135736   5.072   7.473   1.612  1.0754  0.0963  0.0487
11631SOL    HW235737   4.990   7.580   1.543  0.5547 -1.1488 -1.3350
11632SOL     OW35738   1.425   5.222   4.281 -0.0877 -0.5415  0.4292
11632SOL    HW135739   1.352   5.284   4.276 -0.2579 -0.8507 -1.5869
11632SOL    HW235740   1.392   5.150   4.334 -1.7635 -1.2554 -1.4572
11633SOL     OW35741   1.596   7.536   7.153  0.2665  0.0120 -0.5400
11633SOL    HW135742   1.556   7.533   7.066 -1.9164  0.5977  0.3692
11633SOL    HW235743   1.592   7.628   7.177 -1.1562 -0.3978  0.9900
11634SOL     OW35744   0.376   3.361   2.205 -0.1737 -0.0273  0.3037
11634SOL    HW135745   0.447   3.307   2.170  0.0962  0.5447 -0.0386
11634SOL    HW235746   0.323   3.300   2.256 -0.1700 -0.7376 -0.5116
11635SOL     OW35747   5.964   8.118   5.837 -0.2223  0.0379 -0.1652
11635SOL    HW135748   5.984   8.029   5.806  1.0183  0.3898 -0.4640
11635SOL    HW235749   6.046   8.166   5.824 -0.6861  1.0656  0.5910
11636SOL     OW35750   5.262   4.001   1.953  0.0809 -0.6852 -0.0387
11636SOL    HW135751   5.317   4.055   2.010  0.3155 -1.7392  0.7614
11636SOL    HW235752   5.202   3.956   2.012 -2.2244  0.9836 -0.9446
11637SOL     OW35753   4.531   0.352   6.558  0.0639 -0.3312  0.5656
11637SOL    HW135754   4.487   0.403   6.626 -0.9936  1.3596 -1.2906
11637SOL    HW235755   4.622   0.383   6.561  0.4166 -1.4184  2.2023
11638SOL     OW35756   0.780   2.953   2.652 -0.3248  0.6339 -0.0901
11638SOL    HW135757   0.717   2.999   2.596 -2.0133  0.1085  1.3075
11638SOL    HW235758   0.818   3.023   2.706  0.7263  1.0255 -1.2772
11639SOL     OW35759   3.943   2.524   4.309 -0.2811  0.1285  0.0257
11639SOL    HW135760   4.038   2.533   4.319 -0.1013 -0.7435 -0.8594
11639SOL    HW235761   3.923   2.439   4.347 -0.7332  0.3683  0.3258
11640SOL     OW35762   5.612   2.424   6.628  0.0088 -0.4292  0.4668
11640SOL    HW135763   5.539   2.414   6.567  0.1765 -0.5857  0.2905
11640SOL    HW235764   5.578   2.479   6.698 -0.4370 -0.9168  0.6405
11641SOL     OW35765   4.634   7.942   4.295  0.4441  0.2303  0.4515
11641SOL    HW135766   4.698   7.985   4.238  0.0524  0.5010  0.2090
11641SOL    HW235767   4.649   7.849   4.282 -0.6244  0.2600 -1.2471
11642SOL     OW35768   2.090   0.422   5.002  0.0833 -0.5522 -0.5213
11642SOL    HW135769   2.042   0.484   5.056  0.0533 -2.6234  2.0692
11642SOL    HW235770   2.025   0.387   4.941 -0.8401 -0.7919  0.5784
11643SOL     OW35771   0.724   7.282   3.656 -0.0336  0.3536  0.5710
11643SOL    HW135772   0.755   7.288   3.746  1.6670  0.0941  0.0420
11643SOL    HW235773   0.800   7.252   3.606 -1.0834 -0.0213 -0.8748
11644SOL     OW35774   5.900   6.275   6.158  0.2667  0.0703  0.1364
11644SOL    HW135775   5.992   6.252   6.164  0.3740  0.6673  0.8614
11644SOL    HW235776   5.899   6.368   6.138 -0.1784 -0.2338 -1.4072
11645SOL     OW35777   0.485   5.953   2.417  0.0963 -0.1490 -0.2396
11645SOL    HW135778   0.487   5.990   2.328 -3.3723  0.2690 -0.2540
11645SOL    HW235779   0.454   5.864   2.405 -0.1496 -0.1735  0.5524
11646SOL     OW35780   7.936   5.533   7.493  0.4718  0.1603  0.5404
11646SOL    HW135781   8.014   5.534   7.437  1.2429  0.4979  1.5941
11646SOL    HW235782   7.960   5.589   7.567 -2.1595  3.7151 -0.9841
11647SOL     OW35783   4.080   8.074   5.356  0.1984  0.2758 -0.0233
11647SOL    HW135784   4.006   8.094   5.413 -0.4162  0.6144 -0.9234
11647SOL    HW235785   4.078   8.142   5.289 -1.9456 -2.5695 -3.1932
11648SOL     OW35786   0.463   0.333   3.176  0.1072  0.2268  0.3051
11648SOL    HW135787   0.416   0.279   3.112 -0.7920 -0.1046  1.2238
11648SOL    HW235788   0.400   0.402   3.199  1.5131  2.2599 -1.4926
11649SOL     OW35789   6.942   3.997   5.310  0.0935 -0.0121  0.4077
11649SOL    HW135790   6.916   4.088   5.294  0.7687  0.2115  0.5381
11649SOL    HW235791   6.991   3.972   5.231 -1.6186 -0.8748 -0.4400
11650SOL     OW35792   3.694   0.917   3.806  0.3549 -0.3255  1.0122
11650SOL    HW135793   3.736   0.934   3.722 -0.2188  1.5990  1.0733
11650SOL    HW235794   3.767   0.895   3.865  1.0449  0.7390  0.5859
11651SOL     OW35795   2.996   5.718   2.453  0.4803 -0.0125  0.2937
11651SOL    HW135796   3.028   5.750   2.368 -1.0272 -2.8654 -1.5294
11651SOL    HW235797   3.075   5.690   2.499  1.2422  0.4156 -0.7078
11652SOL     OW35798   7.820   7.689   0.154 -0.0876 -0.8180  0.6307
11652SOL    HW135799   7.735   7.654   0.181  0.5597 -1.0037  2.5947
11652SOL    HW235800   7.854   7.734   0.231  1.4637 -0.4587 -0.2016
11653SOL     OW35801   7.661   5.412   6.024  0.1508  0.2834  0.0748
11653SOL    HW135802   7.708   5.371   5.951  0.6922  2.5989 -0.9729
11653SOL    HW235803   7.594   5.466   5.983 -0.6578  0.3289  1.3881
11654SOL     OW35804   0.332   4.483   5.887  0.0542 -0.1676 -0.3331
11654SOL    HW135805   0.344   4.567   5.933 -0.9048 -0.5739  0.7074
11654SOL    HW235806   0.421   4.449   5.876  0.4475  0.9445 -0.6900
11655SOL     OW35807   6.275   5.491   2.330 -0.1392 -0.1613 -0.4839
11655SOL    HW135808   6.329   5.446   2.395  0.8632  1.3072 -0.2528
11655SOL    HW235809   6.337   5.542   2.278 -1.4145  3.7391  1.4876
11656SOL     OW35810   8.164   6.257   2.839  0.0382  0.2459  0.2644
11656SOL    HW135811   8.251   6.219   2.835 -0.8238 -1.7405 -1.3545
11656SOL    HW235812   8.130   6.232   2.925  0.4053 -0.5733  0.1802
11657SOL     OW35813   4.110   1.097   4.431 -0.8394 -0.1370  0.0419
11657SOL    HW135814   4.054   1.019   4.440  0.7434 -1.1706  1.9183
11657SOL    HW235815   4.189   1.074   4.480 -0.0895  2.4715  0.1627
11658SOL     OW35816   6.275   0.269   6.768  0.6694  0.2947  0.0233
11658SOL    HW135817   6.236   0.182   6.780 -0.8702  0.6970 -1.6791
11658SOL    HW235818   6.347   0.254   6.707  0.9285  0.0894  0.3776
11659SOL     OW35819   2.342   3.549   3.345  0.2405 -0.2913  0.1542
11659SOL    HW135820   2.301   3.497   3.414  1.6915  0.5618  1.7118
11659SOL    HW235821   2.436   3.539   3.360  0.6199 -0.5279 -2.0644
11660SOL     OW35822   7.603   7.989   6.818  0.0908 -0.3096 -0.6137
11660SOL    HW135823   7.546   7.932   6.871  1.7176 -1.3003  0.1513
11660SOL    HW235824   7.614   8.068   6.872  1.8938 -1.3889  0.7434
11661SOL     OW35825   3.396   3.698   1.234 -0.3182  0.1758 -0.2631
11661SOL    HW135826   3.423   3.779   1.191  0.3943  0.0667 -0.0279
11661SOL    HW235827   3.478   3.657   1.263 -0.7825  0.9040  2.4174
11662SOL     OW35828   7.139   4.051   1.602 -0.4415  0.1126 -0.0821
11662SOL    HW135829   7.187   3.972   1.628  1.2758  0.7629 -1.0986
11662SOL    HW235830   7.106   4.088   1.684  0.9991 -0.2642  0.6982
11663SOL     OW35831   1.623   4.935   7.626  0.2029 -0.1344 -0.2319
11663SOL    HW135832   1.617   5.026   7.654  1.3324  0.3900 -1.5847
11663SOL    HW235833   1.547   4.921   7.570  0.1672  0.0525 -0.2304
11664SOL     OW35834   4.425   3.898   2.548  0.1422  0.0625 -0.1341
11664SOL    HW135835   4.375   3.865   2.472 -0.4185  0.6730 -0.0452
11664SOL    HW235836   4.357   3.920   2.612  0.5451  0.6619  0.0907
11665SOL     OW35837   4.441   7.600   3.258 -0.0133  0.1621  0.0112
11665SOL    HW135838   4.528   7.633   3.278 -0.6112  0.4292  2.4535
11665SOL    HW235839   4.391   7.679   3.236 -0.1271  0.2680  0.6287
11666SOL     OW35840   6.469   7.032   0.462 -0.4348 -0.3605  0.4231
11666SOL    HW135841   6.432   6.971   0.398 -0.7269  0.6337 -0.3739
11666SOL    HW235842   6.428   7.116   0.443  2.8152  1.0756 -1.1422
11667SOL     OW35843   5.584   5.169   5.170  0.0040  0.0051  0.2824
11667SOL    HW135844   5.679   5.171   5.184 -0.1536  2.8372  1.5178
11667SOL    HW235845   5.565   5.251   5.125 -1.7913 -1.0026 -0.9280
11668SOL     OW35846   0.440   0.344   1.302  0.6678  0.1812 -0.5480
11668SOL    HW135847   0.492   0.266   1.281 -0.0862 -0.0669 -1.5402
11668SOL    HW235848   0.375   0.313   1.365  0.1827 -0.0677 -1.1639
11669SOL     OW35849   0.820   8.145   5.588  0.2889 -0.2416 -0.0723
11669SOL    HW135850   0.906   8.182   5.573 -0.5687  1.6667 -0.5994
11669SOL    HW235851   0.800   8.167   5.679  0.0884 -0.0732 -0.1555
11670SOL     OW35852   6.089   8.036   3.937  0.2380  0.3140 -0.2893
11670SOL    HW135853   6.039   7.963   3.900  0.5415  0.0078 -0.1041
11670SOL    HW235854   6.028   8.080   3.995 -0.1832  0.6795 -0.9987
11671SOL     OW35855   1.607   2.829   7.187 -0.0892 -1.1147 -0.0629
11671SOL    HW135856   1.696   2.797   7.201  0.3750  0.3006  0.3992
11671SOL    HW235857   1.553   2.782   7.250  0.4603 -1.4473  0.1564
11672SOL     OW35858   8.191   3.597   5.250  0.0042 -0.4186 -0.0911
11672SOL    HW135859   8.270   3.627   5.295  0.6157 -0.3308 -1.1922
11672SOL    HW235860   8.191   3.646   5.167 -1.3408 -0.2287  0.0035
11673SOL     OW35861   4.487   1.701   6.858  0.1058  0.7212  0.3150
11673SOL    HW135862   4.580   1.694   6.879  0.7143 -0.3221 -2.2714
11673SOL    HW235863   4.485   1.748   6.774 -1.5750 -0.5103 -0.4011
11674SOL     OW35864   4.462   2.113   0.943 -0.4626  0.5714  0.0137
11674SOL    HW135865   4.413   2.066   0.875 -1.7367  2.7595 -0.7203
11674SOL    HW235866   4.394   2.152   0.998  0.5453 -0.8188  2.4024
11675SOL     OW35867   4.811   2.051   0.150 -0.3251  0.1028 -0.6954
11675SOL    HW135868   4.834   2.121   0.090  1.3964  1.2305  1.1406
11675SOL    HW235869   4.748   2.090   0.211 -2.2073 -1.0775 -1.8159
11676SOL     OW35870   4.843   2.870   1.942 -0.3999  0.7259  0.6307
11676SOL    HW135871   4.771   2.816   1.974 -0.7135  0.6465 -0.1976
11676SOL    HW235872   4.803   2.955   1.923 -0.4357  0.4604 -0.5348
11677SOL     OW35873   1.173   7.394   5.388 -0.3335  0.0204 -0.0853
11677SOL    HW135874   1.178   7.463   5.455 -0.3484  0.2268 -0.2945
11677SOL    HW235875   1.120   7.326   5.428 -0.3040  0.1229  0.1327
11678SOL     OW35876   8.175   6.087   1.742  0.1327  0.1729  0.0664
11678SOL    HW135877   8.091   6.133   1.749  0.5410  0.7016  2.4079
11678SOL    HW235878   8.238   6.156   1.721  0.5065  0.4908  2.0407
11679SOL     OW35879   8.105   5.556   2.371 -0.3458 -0.0381 -0.0695
11679SOL    HW135880   8.045   5.563   2.297  0.4175 -0.8533 -0.7718
11679SOL    HW235881   8.099   5.465   2.399 -0.5744  0.2390  0.8518
11680SOL     OW35882   0.238   0.397   0.895 -0.1289 -0.0238  0.3104
11680SOL    HW135883   0.211   0.456   0.965 -0.8903  0.7214 -0.5893
11680SOL    HW235884   0.302   0.339   0.937  0.6708  1.4425  1.2128
11681SOL     OW35885   7.309   5.994   0.021  0.0537  0.5292 -0.4542
11681SOL    HW135886   7.318   5.956  -0.066  0.7170  0.4678 -0.3661
11681SOL    HW235887   7.269   5.925   0.074  0.9683  0.0591 -0.3695
11682SOL     OW35888   6.664   0.761   7.333  0.2131 -0.7756 -0.6081
11682SOL    HW135889   6.754   0.739   7.307 -0.1205  0.2506 -2.8148
11682SOL    HW235890   6.623   0.792   7.253 -1.3263  1.3990  0.9337
11683SOL     OW35891   7.772   2.021   1.891  0.0396  0.3524  0.3526
11683SOL    HW135892   7.696   1.966   1.911 -0.8366  1.1370 -0.7047
11683SOL    HW235893   7.845   1.976   1.932 -0.7157 -1.3546 -0.0841
11684SOL     OW35894   4.494   6.740   1.053 -0.0018  0.2694  0.5685
11684SOL    HW135895   4.577   6.700   1.024 -0.2090  0.1595  0.1114
11684SOL    HW235896   4.442   6.666   1.084 -0.9511 -0.0806 -1.6282
11685SOL     OW35897   5.086   2.441   1.341 -0.4480 -0.9270 -0.1364
11685SOL    HW135898   5.143   2.364   1.345  1.0310  0.0370 -1.3646
11685SOL    HW235899   5.009   2.412   1.293 -0.0975 -1.7426 -0.2248
11686SOL     OW35900   4.377   5.128   1.002 -0.1525 -0.6242  0.3945
11686SOL    HW135901   4.434   5.147   1.077  0.9489  1.7572 -0.9324
11686SOL    HW235902   4.299   5.182   1.018 -0.6043 -1.3215  0.5723
11687SOL     OW35903   2.036   0.984   6.939  0.6142  0.4490  0.0499
11687SOL    HW135904   2.028   1.079   6.932 -0.1407  0.3006 -1.5706
11687SOL    HW235905   1.966   0.958   6.999  1.2181  0.9634  0.9856
11688SOL     OW35906   4.171   8.011   6.067  0.4774  0.6175 -0.0502
11688SOL    HW135907   4.243   8.073   6.052  2.2867 -1.1007  1.0080
11688SOL    HW235908   4.176   7.949   5.995  0.7689 -0.1060  0.5697
11689SOL     OW35909   0.663   4.672   0.651  0.3420 -0.1479  0.0412
11689SOL    HW135910   0.751   4.633   0.655  0.9175  1.1283  0.5165
11689SOL    HW235911   0.679   4.765   0.639 -0.9779  0.0432 -0.4102
11690SOL     OW35912   3.808   2.392   3.182 -0.0821  0.4978  0.1581
11690SOL    HW135913   3.825   2.471   3.130 -2.0924  0.5961 -0.4196
11690SOL    HW235914   3.731   2.352   3.142  0.0379 -1.0046  1.3149
11691SOL     OW35915   4.904   6.092   7.859  0.0236  0.3588  0.0704
11691SOL    HW135916   4.825   6.145   7.853 -0.0376  0.6616  2.5998
11691SOL    HW235917   4.873   6.004   7.882  0.3071 -0.0830 -1.1771
11692SOL     OW35918   0.989   5.205   5.489 -0.5186  0.2181 -0.0509
11692SOL    HW135919   0.955   5.131   5.439  1.6613 -0.9350  0.0506
11692SOL    HW235920   0.946   5.198   5.574 -0.4507 -0.8683 -0.0934
11693SOL     OW35921   4.277   6.219   1.311  0.0097 -0.0359  0.2951
11693SOL    HW135922   4.260   6.140   1.363 -0.2590  0.5293  1.0925
11693SOL    HW235923   4.235   6.203   1.227  1.1961 -1.3336 -0.0791
11694SOL     OW35924   4.860   3.990   4.306 -0.2451  0.3115  0.6462
11694SOL    HW135925   4.904   4.039   4.375  0.2970  2.0812 -0.8633
11694SOL    HW235926   4.769   3.983   4.335  0.3161 -0.4698  2.2850
11695SOL     OW35927   1.817   5.622   6.938  0.3135 -0.0688  0.3374
11695SOL    HW135928   1.780   5.547   6.985  0.1981  0.2867  0.8179
11695SOL    HW235929   1.776   5.618   6.851  0.7759 -0.9143  0.1497
11696SOL     OW35930   4.295   4.527   2.107 -0.2420  0.0161 -0.3945
11696SOL    HW135931   4.349   4.493   2.179 -1.3681  0.5635  0.7493
11696SOL    HW235932   4.274   4.616   2.133 -0.4752  0.3066 -1.5340
11697SOL     OW35933   3.642   3.641   1.796 -0.2093 -0.6851  0.1872
11697SOL    HW135934   3.620   3.576   1.730 -1.8740 -0.2748  0.3051
11697SOL    HW235935   3.729   3.614   1.828  0.3260 -1.2590 -1.6590
11698SOL     OW35936   2.511   2.467   5.774 -0.3740  0.1558  0.4875
11698SOL    HW135937   2.560   2.475   5.856  0.1568  2.2846  0.0374
11698SOL    HW235938   2.442   2.533   5.781  1.9408  3.1870 -2.1735
11699SOL     OW35939   2.100   7.461   1.555  0.0057  0.2393  0.0314
11699SOL    HW135940   2.053   7.531   1.512  2.2017  0.5210 -2.1535
11699SOL    HW235941   2.073   7.381   1.510  0.1053  0.1451  0.1344
11700SOL     OW35942   3.756   2.300   5.527  0.2047  0.6686  0.2853
11700SOL    HW135943   3.851   2.300   5.525  0.2402 -0.9150  0.7514
11700SOL    HW235944   3.734   2.272   5.616 -0.6946  0.4308  0.0017
11701SOL     OW35945   6.124   2.814   4.661 -0.7310 -0.1390  0.0035
11701SOL    HW135946   6.100   2.767   4.741  0.8187 -0.6593  0.1932
11701SOL    HW235947   6.100   2.905   4.678 -1.2783 -0.4051  0.6858
11702SOL     OW35948   5.058   6.700   0.096  0.2612 -0.0749 -0.8692
11702SOL    HW135949   5.023   6.618   0.062 -0.1775 -0.4951  0.5514
11702SOL    HW235950   5.005   6.768   0.053 -0.6968 -0.6126 -0.5683
11703SOL     OW35951   7.819   2.785   3.942 -0.1957 -0.0717  0.0403
11703SOL    HW135952   7.796   2.700   3.904 -0.6446  0.0814 -0.0276
11703SOL    HW235953   7.738   2.817   3.980 -0.1332  0.5474 -0.3420
11704SOL     OW35954   7.597   0.220   0.342 -0.0892 -0.6773  0.4371
11704SOL    HW135955   7.669   0.277   0.368  1.1357 -1.3499 -1.2818
11704SOL    HW235956   7.518   0.267   0.368  0.9064  1.3667 -0.0807
11705SOL     OW35957   6.088   2.505   0.148 -0.3193 -0.7672 -0.1762
11705SOL    HW135958   6.153   2.575   0.144 -0.6452 -0.4424  0.2643
11705SOL    HW235959   6.109   2.449   0.073 -2.1040  1.5447 -2.5704
11706SOL     OW35960   6.503   5.292   2.086 -0.3497  0.0004 -0.5104
11706SOL    HW135961   6.569   5.266   2.152 -0.8524  1.9163  0.8126
11706SOL    HW235962   6.552   5.345   2.023 -0.3465  0.2207 -0.3227
11707SOL     OW35963   3.248   4.974   6.915  0.3842 -0.4534 -0.1537
11707SOL    HW135964   3.295   4.919   6.853  0.1679 -1.4133  0.5077
11707SOL    HW235965   3.170   5.003   6.868 -0.3372 -2.0660  0.0108
11708SOL     OW35966   3.243   7.811   5.555  0.0372 -0.4123 -0.5127
11708SOL    HW135967   3.244   7.891   5.608 -1.5323 -1.0746  0.5838
11708SOL    HW235968   3.174   7.826   5.490  0.9423 -0.2028 -1.4554
11709SOL     OW35969   2.188   0.202   3.258 -0.0731  0.1210  0.0645
11709SOL    HW135970   2.105   0.157   3.241  0.0814  0.0167 -0.4277
11709SOL    HW235971   2.186   0.278   3.200  0.8877 -0.7588 -1.1503
11710SOL     OW35972   2.839   4.751   6.096  0.2471  0.0402  0.0320
11710SOL    HW135973   2.886   4.680   6.139  1.6311  0.7227 -0.2713
11710SOL    HW235974   2.903   4.822   6.090 -0.5146  0.6691 -1.3253
11711SOL     OW35975   0.479   2.034   4.439  0.5041 -0.4765  0.0798
11711SOL    HW135976   0.553   2.035   4.500  0.6609  2.5196 -0.0120
11711SOL    HW235977   0.518   2.049   4.353 -0.1829  2.2502  0.1583
11712SOL     OW35978   3.147   2.216   4.827  0.1278  0.2549 -0.0743
11712SOL    HW135979   3.131   2.151   4.896 -1.1281  0.2525 -0.3299
11712SOL    HW235980   3.242   2.227   4.824  0.2012  0.1978  1.5954
11713SOL     OW35981   6.669   2.233   0.894 -0.4439 -0.0141 -0.8008
11713SOL    HW135982   6.669   2.287   0.973  1.5310 -0.4015 -0.5012
11713SOL    HW235983   6.666   2.296   0.822 -1.4990  0.3598 -0.4557
11714SOL     OW35984   2.002   7.240   1.432 -0.1890  0.8119  0.5216
11714SOL    HW135985   2.012   7.154   1.472 -1.6361  0.3931  0.0210
11714SOL    HW235986   2.035   7.229   1.343 -0.9427  0.6164  0.2679
11715SOL     OW35987   0.726   3.936   5.023  0.4684  0.6183  0.1109
11715SOL    HW135988   0.697   3.991   5.096 -2.4509 -1.9706  1.1518
11715SOL    HW235989   0.692   3.849   5.044  1.8361 -0.8666 -3.0921
11716SOL     OW35990   6.333   5.020   6.595 -0.0952  0.3146  0.7186
11716SOL    HW135991   6.363   4.971   6.518 -0.0931 -0.0822  0.9663
11716SOL    HW235992   6.239   5.004   6.598 -0.1930  0.8357  0.4467
11717SOL     OW35993   2.614   2.913   8.053 -0.4116  0.0912 -0.1474
11717SOL    HW135994   2.588   2.825   8.081  0.9343 -0.1386  0.4753
11717SOL    HW235995   2.574   2.971   8.117  1.1627 -0.3130  1.2846
11718SOL     OW35996   7.410   5.180   7.353  0.1708  0.3792 -0.3630
11718SOL    HW135997   7.446   5.193   7.441  0.3121  2.1851 -0.6420
11718SOL    HW235998   7.317   5.161   7.367  0.5893 -1.3731  0.2340
11719SOL     OW35999   5.417   1.344   1.388  0.1329  0.3832  0.1240
11719SOL    HW136000   5.480   1.273   1.401  1.5533  1.4859 -0.5034
11719SOL    HW236001   5.333   1.305   1.409  1.2273 -0.4545  3.7960
11720SOL     OW36002   1.789   0.884   4.790  0.2683 -0.2478  0.1064
11720SOL    HW136003   1.733   0.922   4.722  0.0583 -0.9559 -0.1255
11720SOL    HW236004   1.852   0.831   4.742  0.2573 -0.5774  0.4510
11721SOL     OW36005   5.616   5.011   6.290  0.5638 -0.2679 -0.1068
11721SOL    HW136006   5.676   5.001   6.216  0.7300  1.2776 -0.2054
11721SOL    HW236007   5.658   5.075   6.347 -0.5936  0.2059  0.2376
11722SOL     OW36008   7.071   5.551   2.272 -0.0283  0.2714  0.0175
11722SOL    HW136009   7.028   5.632   2.242  0.3964 -0.7772 -4.0080
11722SOL    HW236010   7.014   5.481   2.240  1.0105 -1.0529  0.9978
11723SOL     OW36011   2.446   5.586   8.181  0.6591  0.6798  0.2722
11723SOL    HW136012   2.435   5.509   8.237  0.1152  0.8095  0.3504
11723SOL    HW236013   2.447   5.552   8.092  0.2608  0.5923  0.2984
11724SOL     OW36014   5.661   2.110   5.267  0.5312 -0.0486 -0.0941
11724SOL    HW136015   5.651   2.169   5.341 -0.2798 -0.4825  0.1561
11724SOL    HW236016   5.596   2.041   5.283 -0.6471  0.5648 -1.8969
11725SOL     OW36017   4.456   7.122   6.608  0.2529  0.4179  0.0026
11725SOL    HW136018   4.393   7.096   6.541  0.2427 -3.8217  1.3431
11725SOL    HW236019   4.541   7.119   6.563 -0.0817  2.0108 -0.7977
11726SOL     OW36020   5.593   1.526   4.647 -0.8318  0.9367 -0.5368
11726SOL    HW136021   5.632   1.506   4.732 -0.1789 -0.2391 -1.0823
11726SOL    HW236022   5.668   1.541   4.590 -1.2023  0.1126 -1.2620
11727SOL     OW36023   0.982   0.469   7.499  0.1118  0.3924  0.9954
11727SOL    HW136024   0.924   0.393   7.495  1.2314 -0.4414 -0.3150
11727SOL    HW236025   0.951   0.518   7.575 -2.9560  0.5506 -0.2023
11728SOL     OW36026   3.130   6.223   6.661  0.6662 -0.2179 -0.0268
11728SOL    HW136027   3.155   6.314   6.673 -0.0042 -0.2928  2.3395
11728SOL    HW236028   3.173   6.177   6.733 -0.3982 -1.4917 -0.1770
11729SOL     OW36029   6.523   0.471   0.843 -0.1062 -0.3684  0.1416
11729SOL    HW136030   6.525   0.539   0.910  0.5681 -0.8477  0.6308
11729SOL    HW236031   6.587   0.406   0.873 -1.3744 -1.6699  0.1543
11730SOL     OW36032   6.245   5.470   7.224 -0.6204 -0.0125 -0.5409
11730SOL    HW136033   6.179   5.403   7.208 -1.3282  0.7693 -0.9678
11730SOL    HW236034   6.197   5.544   7.261  0.2629  0.0097  0.6019
11731SOL     OW36035   5.758   1.151   5.376 -0.0568 -0.5056 -0.1371
11731SOL    HW136036   5.676   1.192   5.348  0.8130  1.6588  0.3314
11731SOL    HW236037   5.824   1.186   5.316  0.8708 -0.4802  0.8639
11732SOL     OW36038   5.230   4.268   4.997  0.1831 -0.7036 -0.0110
11732SOL    HW136039   5.306   4.242   5.050  0.4411  0.2903  0.1164
11732SOL    HW236040   5.159   4.212   5.029  0.6407 -1.0155  0.4899
11733SOL     OW36041   5.233   1.995   2.667  0.1226 -0.0713  0.3497
11733SOL    HW136042   5.185   1.915   2.643 -0.3435  0.3959 -0.3320
11733SOL    HW236043   5.165   2.055   2.697  0.1939  0.7555 -1.0561
11734SOL     OW36044   1.871   4.545   3.382  0.0208  0.5225  0.4978
11734SOL    HW136045   1.892   4.452   3.375  0.9418  0.6574  1.2567
11734SOL    HW236046   1.928   4.587   3.317 -1.4278  0.4511 -0.8944
11735SOL     OW36047   3.469   5.795   7.806  0.5565 -0.1473  0.2163
11735SOL    HW136048   3.420   5.800   7.724 -1.3929  0.0747  1.3223
11735SOL    HW236049   3.560   5.805   7.780  0.2074 -2.1198 -2.1223
11736SOL     OW36050   7.512   5.725   5.510  0.0209 -0.2846 -0.6367
11736SOL    HW136051   7.447   5.654   5.506 -0.4438  0.0996 -0.1548
11736SOL    HW236052   7.499   5.763   5.598  0.6449  0.0348 -0.6830
11737SOL     OW36053   5.602   0.809   7.202  0.0819  0.1889  0.5602
11737SOL    HW136054   5.642   0.758   7.272 -1.2678 -1.9213 -0.1025
11737SOL    HW236055   5.652   0.787   7.124 -0.2458  0.2133  0.3393
11738SOL     OW36056   7.425   5.715   3.223  0.0912 -0.1219  0.3344
11738SOL    HW136057   7.380   5.771   3.159  0.1393 -0.5505 -0.0761
11738SOL    HW236058   7.388   5.628   3.209  1.0185 -0.4762  0.0149
11739SOL     OW36059   7.867   7.737   6.897 -0.1193 -0.1004  0.6719
11739SOL    HW136060   7.776   7.714   6.879  0.1636 -1.3604  0.7754
11739SOL    HW236061   7.862   7.815   6.951 -1.1484 -0.2674  0.8312
11740SOL     OW36062   0.702   1.993   5.704 -0.0798  0.1634  0.1359
11740SOL    HW136063   0.646   1.918   5.724 -0.3417  0.5952  1.0772
11740SOL    HW236064   0.698   2.002   5.609  0.6098 -1.5178 -0.0874
11741SOL     OW36065   0.865   2.487   1.327  0.1982 -0.6246  0.2799
11741SOL    HW136066   0.941   2.534   1.293  1.4717 -2.3805  0.5651
11741SOL    HW236067   0.824   2.449   1.249 -1.0749  1.1732 -0.0018
11742SOL     OW36068   3.258   1.896   2.336  0.8574  0.7030 -0.0974
11742SOL    HW136069   3.264   1.966   2.401  1.2874  1.3297 -0.7861
11742SOL    HW236070   3.349   1.867   2.325  0.5189 -0.9712  1.2317
11743SOL     OW36071   2.638   8.024   7.681  0.0020  0.3234 -0.2486
11743SOL    HW136072   2.693   7.953   7.716  1.4483  1.2019 -0.6533
11743SOL    HW236073   2.620   7.997   7.591 -0.1378  0.0956 -0.1550
11744SOL     OW36074   7.085   6.362   4.190  0.3424  0.1687  0.3982
11744SOL    HW136075   7.032   6.427   4.236  2.3683  2.3305 -0.0933
11744SOL    HW236076   7.108   6.298   4.258  0.3044  1.3216  1.5451
11745SOL     OW36077   0.343   3.258   2.599  1.1035 -0.2047  0.2243
11745SOL    HW136078   0.335   3.283   2.691 -0.7289 -0.0721  0.0637
11745SOL    HW236079   0.319   3.337   2.550 -1.7320 -1.2529 -0.3052
11746SOL     OW36080   3.078   7.487   7.445 -0.3732 -0.2153  0.0883
11746SOL    HW136081   3.023   7.429   7.497 -0.6490  0.4175  0.5054
11746SOL    HW236082   3.153   7.432   7.420 -0.3916 -0.6131  0.8738
11747SOL     OW36083   4.446   0.770   0.904 -0.5560 -0.1236  0.0280
11747SOL    HW136084   4.424   0.680   0.926  1.1356 -0.1037  2.2362
11747SOL    HW236085   4.507   0.763   0.831 -0.0734 -0.8471  0.4814
11748SOL     OW36086   6.829   6.184   6.857  0.3113  0.3988 -0.1287
11748SOL    HW136087   6.885   6.107   6.850  0.4119  0.4056  0.6039
11748SOL    HW236088   6.741   6.151   6.834  0.1708 -0.1655  1.1465
11749SOL     OW36089   1.296   4.513   3.451 -0.0899  0.0308  0.1570
11749SOL    HW136090   1.349   4.583   3.413  1.5432 -1.2376 -0.0287
11749SOL    HW236091   1.359   4.445   3.472 -1.6354 -1.4256  0.2489
11750SOL     OW36092   7.720   2.785   2.891 -0.2167  0.7896 -0.5876
11750SOL    HW136093   7.662   2.860   2.887  0.8416  1.5953 -1.5001
11750SOL    HW236094   7.741   2.766   2.800  0.4961  0.1579 -0.3011
11751SOL     OW36095   0.766   3.630   1.487  0.3974  0.3764  0.0117
11751SOL    HW136096   0.761   3.688   1.563 -2.3983 -0.9760  1.0096
11751SOL    HW236097   0.794   3.546   1.523  2.1496  0.4703 -1.0338
11752SOL     OW36098   3.955   6.001   2.569 -0.3580  0.6169  0.4657
11752SOL    HW136099   4.048   6.020   2.570  0.0553 -0.9818 -1.4197
11752SOL    HW236100   3.945   5.926   2.627 -0.6190  1.2496  1.2571
11753SOL     OW36101   1.610   4.094   5.130 -0.0172 -0.0619 -0.5507
11753SOL    HW136102   1.557   4.052   5.061  1.1238 -0.5137 -1.1707
11753SOL    HW236103   1.554   4.090   5.208 -0.9572 -0.4000 -1.2185
11754SOL     OW36104   4.193   5.385   5.712 -0.5400  0.5468 -0.5720
11754SOL    HW136105   4.212   5.478   5.724 -0.0126  0.5795 -1.5524
11754SOL    HW236106   4.097   5.379   5.713 -0.5728  1.0980 -0.5424
11755SOL     OW36107   0.451   0.720   6.224 -0.1810  0.2649  0.1017
11755SOL    HW136108   0.438   0.812   6.245 -0.4358  0.2263  0.1138
11755SOL    HW236109   0.519   0.691   6.285 -0.9598  0.1358  0.9333
11756SOL     OW36110   4.080   4.626   6.729  0.2138 -0.4330 -0.5602
11756SOL    HW136111   4.134   4.625   6.808  0.6233  1.3553 -0.7746
11756SOL    HW236112   4.140   4.653   6.659 -0.9525  2.0274 -0.7330
11757SOL     OW36113   0.036   1.192   5.335 -0.0307 -0.1596 -0.0713
11757SOL    HW136114   0.047   1.218   5.427 -0.2607 -0.6565  0.0937
11757SOL    HW236115  -0.055   1.163   5.328 -0.4699  1.2800 -0.8064
11758SOL     OW36116   6.568   7.238   3.849 -0.7619  0.3973 -0.0997
11758SOL    HW136117   6.653   7.263   3.885 -0.4593 -0.1271 -0.4300
11758SOL    HW236118   6.536   7.317   3.805 -0.7766  0.8044  0.6352
11759SOL     OW36119   7.077   7.240   0.494 -0.0470 -0.2434 -0.0812
11759SOL    HW136120   7.084   7.293   0.573  0.6734  0.2147 -0.4366
11759SOL    HW236121   7.004   7.278   0.446  0.3171  0.2828 -0.2242
11760SOL     OW36122   3.479   1.128   0.753  0.4674 -1.0058 -0.1806
11760SOL    HW136123   3.520   1.189   0.692 -0.0419 -0.9600 -0.4760
11760SOL    HW236124   3.484   1.172   0.838  2.0993 -1.4958  0.0178
11761SOL     OW36125   0.933   1.797   3.093 -0.2836 -0.0157 -0.6989
11761SOL    HW136126   0.841   1.772   3.102 -0.1369 -0.0558  1.2960
11761SOL    HW236127   0.946   1.863   3.162  1.0675  0.3424 -1.2623
11762SOL     OW36128   6.058   7.901   7.247 -0.3145  0.3312 -0.1704
11762SOL    HW136129   5.981   7.939   7.289  0.3199  0.5650  0.8170
11762SOL    HW236130   6.063   7.945   7.162 -1.3998  0.1291 -0.3554
11763SOL     OW36131   7.892   5.858   0.717 -0.6023  0.3167  0.8823
11763SOL    HW136132   7.902   5.889   0.807  0.4073  1.3332  0.4611
11763SOL    HW236133   7.831   5.785   0.722 -3.0804  2.3286  1.9769
11764SOL     OW36134   7.840   5.923   6.614 -0.0560  0.4803 -0.5758
11764SOL    HW136135   7.869   5.863   6.545 -1.3450  0.1426 -0.8508
11764SOL    HW236136   7.861   5.877   6.695 -0.2740  0.0295 -0.7699
11765SOL     OW36137   0.509   6.991   7.511  0.0499 -0.3819 -0.0993
11765SOL    HW136138   0.444   7.003   7.442  0.5451  0.3484 -0.4524
11765SOL    HW236139   0.478   7.046   7.583 -1.3703 -2.4133  0.9582
11766SOL     OW36140   1.983   1.583   2.791 -0.0132 -0.1502  0.1408
11766SOL    HW136141   1.968   1.646   2.861 -0.6972 -0.5012  0.3148
11766SOL    HW236142   1.977   1.635   2.711  0.4723  0.1944  0.3172
11767SOL     OW36143   1.356   2.117   5.580 -0.2598 -0.6095  0.0843
11767SOL    HW136144   1.389   2.184   5.640 -0.7234  0.5205 -0.8908
11767SOL    HW236145   1.262   2.132   5.578 -0.2890 -0.8905 -0.6276
11768SOL     OW36146   7.113   0.054   0.593  0.2470 -0.4796  0.1793
11768SOL    HW136147   7.049   0.021   0.657 -0.1985  0.9208  0.4860
11768SOL    HW236148   7.060   0.079   0.518  0.4766  0.2305  0.2454
11769SOL     OW36149   5.326   5.619   8.163  0.0708  0.0296 -0.0760
11769SOL    HW136150   5.250   5.595   8.217  1.4379 -0.1998  1.8792
11769SOL    HW236151   5.335   5.547   8.101  0.0576 -1.1613  1.2327
11770SOL     OW36152   7.749   2.741   0.985 -0.1338 -0.1823  0.6658
11770SOL    HW136153   7.730   2.833   0.967  1.4475  0.4001  1.7051
11770SOL    HW236154   7.744   2.698   0.900 -0.8834  0.8671  0.1609
11771SOL     OW36155   2.235   3.630   2.372 -0.6334  0.4070 -0.1135
11771SOL    HW136156   2.190   3.589   2.445 -1.1454 -0.3837 -0.8590
11771SOL    HW236157   2.312   3.670   2.411 -1.5206  1.0395  1.0478
11772SOL     OW36158   7.111   1.915   5.508 -0.6780  0.0280 -0.1864
11772SOL    HW136159   7.199   1.905   5.471 -0.9017 -1.8289 -0.3267
11772SOL    HW236160   7.121   1.982   5.576  1.5652 -2.0610  1.7676
11773SOL     OW36161   2.088   4.270   2.495  0.1095  0.0012  0.4869
11773SOL    HW136162   2.116   4.192   2.447  0.3864  0.1329  0.4262
11773SOL    HW236163   1.997   4.283   2.469 -0.3947 -1.1335  1.6303
11774SOL     OW36164   0.502   0.794   2.120  0.0024 -0.5261  0.7242
11774SOL    HW136165   0.571   0.787   2.054 -0.3514 -0.3361  0.3339
11774SOL    HW236166   0.476   0.703   2.137 -1.1229 -0.4961 -0.6934
11775SOL     OW36167   5.619   5.226   0.330  0.3192  0.5476 -0.4399
11775SOL    HW136168   5.701   5.270   0.307 -1.1778  3.2666 -0.9748
11775SOL    HW236169   5.573   5.290   0.385 -0.8397 -1.5117  1.0975
11776SOL     OW36170   7.764   4.651   0.618  0.2791  0.1384 -0.0381
11776SOL    HW136171   7.845   4.653   0.567 -2.1504  1.9479 -4.3607
11776SOL    HW236172   7.705   4.595   0.567 -1.3837 -0.9753  2.8465
11777SOL     OW36173   4.702   6.190   4.657  0.2883  0.2697 -0.4564
11777SOL    HW136174   4.663   6.107   4.684 -0.0160  1.3555  2.9237
11777SOL    HW236175   4.792   6.186   4.691  0.2006  1.3959 -0.0646
11778SOL     OW36176   4.955   8.050   5.076 -0.0700 -0.5144 -0.3863
11778SOL    HW136177   5.018   7.989   5.038  1.4934  1.5886 -1.3741
11778SOL    HW236178   4.915   8.094   5.001 -0.3969  0.3823  0.2935
11779SOL     OW36179   3.772   1.801   5.322 -0.3038  0.1508 -0.1161
11779SOL    HW136180   3.805   1.848   5.246  0.7698 -1.0177 -0.4096
11779SOL    HW236181   3.820   1.837   5.396 -1.4470  1.3853  0.0743
11780SOL     OW36182   4.916   4.116   5.728  0.0897 -0.1437  0.1232
11780SOL    HW136183   5.004   4.080   5.718  0.2766 -0.5105  2.4777
11780SOL    HW236184   4.863   4.068   5.664  1.3555 -0.8180 -0.4552
11781SOL     OW36185   7.991   4.524   4.180 -0.3758 -0.4278 -0.8424
11781SOL    HW136186   7.949   4.558   4.259 -0.3963 -2.1795 -0.0533
11781SOL    HW236187   7.972   4.430   4.181  0.2586 -0.6101 -2.5468
11782SOL     OW36188   8.185   2.936   6.560 -0.2483 -0.2477 -0.8116
11782SOL    HW136189   8.100   2.918   6.521 -1.0130 -0.0832  0.7281
11782SOL    HW236190   8.177   2.909   6.651  1.0030  0.7657 -0.3611
11783SOL     OW36191   1.940   5.458   7.703  0.1966 -0.7801  0.3864
11783SOL    HW136192   1.873   5.482   7.639  0.6063 -2.1477 -0.6147
11783SOL    HW236193   1.899   5.389   7.755 -0.2610  0.5683  1.8865
11784SOL     OW36194   1.296   6.010   4.655  0.2454 -0.1035 -0.0884
11784SOL    HW136195   1.364   6.033   4.719 -1.8134  2.6175  1.3303
11784SOL    HW236196   1.219   5.989   4.709 -1.0046  0.2548 -1.6649
11785SOL     OW36197   6.748   2.579   2.559  0.0302 -0.4912  1.0411
11785SOL    HW136198   6.734   2.602   2.467 -1.1692 -0.7508  1.1405
11785SOL    HW236199   6.803   2.649   2.593 -1.9281  1.2450  0.8480
11786SOL     OW36200   0.064   2.337   7.646 -0.2366  0.9611  0.1202
11786SOL    HW136201   0.132   2.359   7.582  2.0044 -0.5550  1.8249
11786SOL    HW236202   0.073   2.402   7.715  0.2439  0.1049  0.8732
11787SOL     OW36203   2.306   0.062   4.562 -0.3871 -0.2896 -0.3530
11787SOL    HW136204   2.362   0.009   4.619 -0.8052 -0.2516  0.0944
11787SOL    HW236205   2.227   0.010   4.550  0.8315 -1.6648 -3.3304
11788SOL     OW36206   5.394   1.453   7.801  0.5145  0.2905 -0.6469
11788SOL    HW136207   5.343   1.479   7.724  3.3159  2.3519 -1.9959
11788SOL    HW236208   5.352   1.498   7.874  0.6103  2.3618 -1.7780
11789SOL     OW36209   1.329   7.909   0.428 -0.4643 -0.1097  0.5209
11789SOL    HW136210   1.252   7.939   0.378  0.1381  1.3514  0.4146
11789SOL    HW236211   1.351   7.825   0.389 -2.1096 -0.6541  0.6694
11790SOL     OW36212   3.765   2.873   3.967  0.0608  0.3183  0.1477
11790SOL    HW136213   3.820   2.816   3.915  0.7103 -0.2464  1.4054
11790SOL    HW236214   3.688   2.820   3.989  1.5435 -0.8501  2.9535
11791SOL     OW36215   1.971   4.287   0.772 -0.0121  0.1238  0.3258
11791SOL    HW136216   2.065   4.289   0.751 -0.0332 -0.4283  0.1723
11791SOL    HW236217   1.966   4.320   0.862  0.0528  2.8047 -0.5591
11792SOL     OW36218   5.583   4.075   6.794  0.6582  0.0375 -0.3429
11792SOL    HW136219   5.656   4.121   6.837 -0.0155  1.6907 -0.8843
11792SOL    HW236220   5.536   4.144   6.747 -0.2527 -1.2750 -1.4407
11793SOL     OW36221   3.638   4.009   2.027 -0.4274  0.5152  0.5183
11793SOL    HW136222   3.597   4.090   1.998  1.4921  1.1107 -0.6847
11793SOL    HW236223   3.634   3.951   1.951  0.7803  0.5315  0.4289
11794SOL     OW36224   6.433   1.719   6.953 -0.3335 -0.3955  0.3940
11794SOL    HW136225   6.462   1.786   7.014  0.9977 -1.6745  1.2229
11794SOL    HW236226   6.510   1.663   6.940 -1.1084 -1.1804 -1.0645
11795SOL     OW36227   7.391   7.679   6.092  0.5727 -0.8108  0.8756
11795SOL    HW136228   7.306   7.658   6.130 -0.9354  1.0853 -1.1629
11795SOL    HW236229   7.405   7.771   6.113  2.6891 -1.3425  2.0750
11796SOL     OW36230   6.172   1.980   1.978 -0.3644 -0.4363 -0.2196
11796SOL    HW136231   6.156   1.886   1.989 -1.0331 -0.1552  1.4209
11796SOL    HW236232   6.129   2.002   1.895 -0.0812 -1.5844 -0.7003
11797SOL     OW36233   0.256   5.121   3.181  0.3999 -0.3460  0.4248
11797SOL    HW136234   0.244   5.055   3.249 -0.0896  0.6188  1.3032
11797SOL    HW236235   0.347   5.110   3.153  0.4950 -1.0024  0.9682
11798SOL     OW36236   6.589   6.749   7.596  0.5676  0.0769 -0.1495
11798SOL    HW136237   6.666   6.787   7.554  0.7100 -0.1402 -0.0866
11798SOL    HW236238   6.515   6.798   7.559  0.7982  1.0078  0.5648
11799SOL     OW36239   0.637   0.397   6.846  0.0808  0.2815  0.1966
11799SOL    HW136240   0.702   0.380   6.777 -0.3157 -3.4361  0.5560
11799SOL    HW236241   0.689   0.430   6.919  1.2742 -0.6381 -0.2048
11800SOL     OW36242   5.791   5.762   1.059 -0.4124 -0.1006 -0.9130
11800SOL    HW136243   5.864   5.733   1.004 -0.8676 -0.4378 -1.3482
11800SOL    HW236244   5.712   5.740   1.009 -0.9418 -2.2624  0.7193
11801SOL     OW36245   7.262   7.608   1.040 -0.2988  0.6269  0.1451
11801SOL    HW136246   7.172   7.637   1.024 -0.7290 -0.2384  0.8617
11801SOL    HW236247   7.258   7.513   1.028  0.5662  0.6087 -0.0214
11802SOL     OW36248   7.685   2.180   6.865 -0.0335  0.2828 -0.3231
11802SOL    HW136249   7.743   2.172   6.789  0.0279  0.7456 -0.3316
11802SOL    HW236250   7.729   2.242   6.922  0.4353 -0.8572  0.5928
11803SOL     OW36251   2.416   3.296   2.578  0.0894  0.1119  0.0833
11803SOL    HW136252   2.329   3.327   2.603  0.2389  0.1163  0.6011
11803SOL    HW236253   2.427   3.327   2.489 -1.9125 -2.8434 -1.3802
11804SOL     OW36254   2.039   1.512   5.158 -0.8217  0.0587 -0.0174
11804SOL    HW136255   1.955   1.499   5.114 -0.7616 -0.6782  0.0717
11804SOL    HW236256   2.017   1.563   5.236 -1.2949 -0.6892  0.3528
11805SOL     OW36257   1.815   5.232   7.805  0.4235 -0.8864 -0.6331
11805SOL    HW136258   1.785   5.182   7.881  0.8355 -0.6826 -0.3364
11805SOL    HW236259   1.870   5.171   7.756 -1.3970 -1.6557 -1.8154
11806SOL     OW36260   0.627   7.968   5.497 -0.5058 -0.0663  0.0808
11806SOL    HW136261   0.668   7.920   5.426 -1.7623  0.9473 -1.3901
11806SOL    HW236262   0.697   8.021   5.535  0.8158 -2.5870  1.4531
11807SOL     OW36263   1.836   6.207   3.899  0.3538  0.0803 -0.0775
11807SOL    HW136264   1.801   6.159   3.974 -0.8574  0.1163 -0.5974
11807SOL    HW236265   1.803   6.159   3.823  0.1649  1.0164 -0.5928
11808SOL     OW36266   2.847   1.511   1.336 -0.2960 -0.2879  0.4673
11808SOL    HW136267   2.764   1.464   1.343 -0.1275 -0.5669  0.6255
11808SOL    HW236268   2.908   1.446   1.303 -0.1363 -0.0861  0.3638
11809SOL     OW36269   1.405   8.088   4.994  0.3569  0.1283  0.5064
11809SOL    HW136270   1.465   8.119   5.062 -1.0387  0.4440  1.6377
11809SOL    HW236271   1.418   7.993   4.992  2.5515  0.3759 -0.9437
11810SOL     OW36272   4.869   1.566   5.072 -0.4780 -0.7813 -0.0776
11810SOL    HW136273   4.873   1.641   5.013 -3.1686 -0.7134 -0.2674
11810SOL    HW236274   4.872   1.604   5.159  2.8138 -0.8436 -0.0187
11811SOL     OW36275   5.866   7.764   0.201  0.0834  0.3017  0.4139
11811SOL    HW136276   5.935   7.770   0.136  0.6966  0.7382  1.1022
11811SOL    HW236277   5.793   7.813   0.163 -1.2771 -3.1350 -2.0341
11812SOL     OW36278   6.764   1.259   5.762  0.0503 -0.3867  0.2891
11812SOL    HW136279   6.702   1.306   5.818  1.7360  2.0145  0.3119
11812SOL    HW236280   6.776   1.317   5.687 -0.5071 -2.5366 -1.5815
11813SOL     OW36281   3.068   4.776   0.149 -0.0359 -0.0934 -0.4364
11813SOL    HW136282   3.012   4.780   0.071 -0.2043  0.9734 -0.2801
11813SOL    HW236283   3.062   4.685   0.178  0.5890 -0.6778 -2.0598
11814SOL     OW36284   7.171   1.520   6.311 -0.1449  0.4478 -0.3085
11814SOL    HW136285   7.253   1.509   6.262  0.0229 -1.5044  0.3132
11814SOL    HW236286   7.195   1.576   6.385 -0.0181  2.0411 -1.5089
11815SOL     OW36287   7.681   2.372   2.015  0.2583  0.0923  0.1054
11815SOL    HW136288   7.702   2.353   1.924 -1.1676 -0.7744 -0.0705
11815SOL    HW236289   7.756   2.338   2.064  0.8682  0.2354 -0.7036
11816SOL     OW36290   3.033   0.877   7.698 -0.2357 -0.2932 -0.0078
11816SOL    HW136291   3.093   0.906   7.767 -1.0567 -0.4708  0.8185
11816SOL    HW236292   2.955   0.932   7.710 -0.5445 -0.6079 -0.5426
11817SOL     OW36293   0.085   6.622   3.611  0.1482  1.1379 -0.1578
11817SOL    HW136294   0.046   6.707   3.630 -0.2802  0.7255  0.8751
11817SOL    HW236295   0.024   6.558   3.648  1.0641  0.4290  0.1845
11818SOL     OW36296   0.406   4.536   4.940 -0.2859 -0.0287  0.5323
11818SOL    HW136297   0.338   4.488   4.987 -0.8881  0.7456  0.4730
11818SOL    HW236298   0.370   4.624   4.929 -0.1610 -0.1598 -1.3448
11819SOL     OW36299   1.311   0.438   4.312 -0.5807 -0.3322 -0.0024
11819SOL    HW136300   1.358   0.503   4.364 -1.3162 -0.0379  0.3020
11819SOL    HW236301   1.239   0.409   4.368 -0.3694 -1.2951 -0.1973
11820SOL     OW36302   4.548   7.583   0.828 -1.0225 -0.4719 -0.2627
11820SOL    HW136303   4.492   7.555   0.901 -1.9543  0.2848 -0.6596
11820SOL    HW236304   4.489   7.634   0.772 -0.8157 -2.5990 -2.5279
11821SOL     OW36305   2.557   6.908   0.129 -1.0709 -0.0581  0.5135
11821SOL    HW136306   2.640   6.956   0.124 -1.0332 -0.1806 -0.0205
11821SOL    HW236307   2.520   6.915   0.042 -1.1666 -0.8265  0.4936
11822SOL     OW36308   8.186   4.414   6.554  0.1871 -0.6890 -0.4582
11822SOL    HW136309   8.231   4.338   6.516  2.7658  0.6556 -0.3066
11822SOL    HW236310   8.239   4.438   6.630 -1.2249  0.5786  0.1759
11823SOL     OW36311   2.467   8.167   7.339  0.0049  0.1542 -0.3756
11823SOL    HW136312   2.525   8.094   7.318  0.6332  0.0401  1.6096
11823SOL    HW236313   2.509   8.244   7.300  0.0610 -0.3149 -1.2654
11824SOL     OW36314   6.997   7.643   1.354  0.2422  0.2238 -0.1273
11824SOL    HW136315   6.968   7.672   1.440 -0.1298  0.7761 -0.4307
11824SOL    HW236316   7.053   7.567   1.371  1.6374  1.3861  0.7336
11825SOL     OW36317   0.612   5.832   3.301 -0.0526  0.3347  0.1178
11825SOL    HW136318   0.617   5.856   3.394 -1.2004  0.4874  0.1500
11825SOL    HW236319   0.690   5.779   3.286 -0.1897 -0.2572  1.3424
11826SOL     OW36320   8.038   5.833   5.741  0.2427 -0.4652  0.3530
11826SOL    HW136321   8.073   5.747   5.718  0.3140 -0.7395  1.4140
11826SOL    HW236322   7.951   5.835   5.702  1.2333  0.0706 -2.0068
11827SOL     OW36323   1.554   7.779   0.914  0.3238  0.1288 -0.0243
11827SOL    HW136324   1.596   7.695   0.930  0.3325  0.4905  2.2446
11827SOL    HW236325   1.507   7.768   0.831 -0.3721 -2.3847  0.6331
11828SOL     OW36326   2.985   1.136   5.360  0.1396 -0.0599  0.0141
11828SOL    HW136327   2.973   1.050   5.320  0.3928  0.0120 -0.2207
11828SOL    HW236328   3.035   1.186   5.295 -1.4369  0.7972 -0.5771
11829SOL     OW36329   0.536   0.662   6.693 -0.4961  0.2733 -0.1742
11829SOL    HW136330   0.590   0.738   6.673  0.1888 -0.3265 -0.6370
11829SOL    HW236331   0.597   0.599   6.733 -0.6119 -0.7987 -1.6075
11830SOL     OW36332   7.043   3.356   4.656 -0.6076 -0.2296  0.5137
11830SOL    HW136333   7.011   3.278   4.610  1.5782 -0.6832 -0.3177
11830SOL    HW236334   7.133   3.335   4.680 -0.9907  0.7897  3.2491
11831SOL     OW36335   4.406   6.697   6.252 -0.2619 -0.3416 -0.2212
11831SOL    HW136336   4.494   6.658   6.248  0.9083  2.0838 -0.0784
11831SOL    HW236337   4.384   6.714   6.160  0.0524  0.2728 -0.1939
11832SOL     OW36338   3.505   7.476   7.406  0.1861 -0.4404  0.4554
11832SOL    HW136339   3.520   7.545   7.471 -0.2910  0.3174 -0.2116
11832SOL    HW236340   3.487   7.523   7.325 -3.7349 -1.1905  0.6950
11833SOL     OW36341   8.089   2.069   1.465 -0.0348  0.0295 -0.0282
11833SOL    HW136342   8.159   2.070   1.399  0.8253 -0.6559  0.8465
11833SOL    HW236343   8.128   2.026   1.541 -1.5769 -0.8460  0.3120
11834SOL     OW36344   6.458   4.868   0.033  0.1676  0.0668 -0.2180
11834SOL    HW136345   6.424   4.869  -0.056 -0.8795  0.7225  0.1675
11834SOL    HW236346   6.451   4.959   0.063 -0.7233 -0.3692  0.9672
11835SOL     OW36347   5.176   2.155   1.382  0.2516 -0.3452  0.1622
11835SOL    HW136348   5.102   2.094   1.381  0.2184 -0.3179  0.9008
11835SOL    HW236349   5.254   2.099   1.384  0.2182 -0.4204  2.6654
11836SOL     OW36350   5.767   0.085   5.775 -0.4221  0.0755  0.0890
11836SOL    HW136351   5.840   0.024   5.790  0.2200  1.1079  1.4185
11836SOL    HW236352   5.800   0.170   5.805 -0.6225  1.5508 -3.3622
11837SOL     OW36353   4.373   3.374   3.421 -0.6289 -0.0999 -0.8322
11837SOL    HW136354   4.462   3.365   3.456 -1.8527 -0.4410  2.5836
11837SOL    HW236355   4.371   3.463   3.384  0.3571  1.1762  1.8702
11838SOL     OW36356   4.610   5.569   4.275 -0.8763  0.3819  0.0808
11838SOL    HW136357   4.570   5.549   4.190 -1.0579  0.0839  0.2327
11838SOL    HW236358   4.536   5.596   4.330 -0.9886 -0.8302  0.5600
11839SOL     OW36359   2.232   6.630   3.292  0.0783  0.2957  0.2223
11839SOL    HW136360   2.293   6.564   3.259 -2.6839 -1.1260 -2.4833
11839SOL    HW236361   2.232   6.699   3.226 -0.4601  0.7928  0.7272
11840SOL     OW36362   3.028   6.338   3.398 -0.2216  0.1122 -0.1697
11840SOL    HW136363   3.111   6.338   3.351 -0.1604 -0.5554 -0.0693
11840SOL    HW236364   3.045   6.285   3.476 -0.3750  1.0510  0.5161
11841SOL     OW36365   1.851   8.016   7.364 -0.0024  0.1270  0.1496
11841SOL    HW136366   1.801   8.087   7.322 -1.3987 -0.3144  0.9914
11841SOL    HW236367   1.811   8.006   7.450  1.9467  0.1069  1.1001
11842SOL     OW36368   5.690   6.034   6.593  0.5759  0.9278 -0.6071
11842SOL    HW136369   5.784   6.037   6.608  0.3036  0.8229  1.3862
11842SOL    HW236370   5.681   6.025   6.498  2.5853 -0.3840 -0.7372
11843SOL     OW36371   5.024   0.851   3.550 -0.0802  0.1884  0.5185
11843SOL    HW136372   5.030   0.782   3.615 -0.5844  1.2065  1.6934
11843SOL    HW236373   4.931   0.875   3.548 -0.2030 -0.2839 -1.1023
11844SOL     OW36374   2.365   3.501   1.844  0.0560 -0.3653  0.1291
11844SOL    HW136375   2.418   3.428   1.876  0.8464  1.0813  2.3512
11844SOL    HW236376   2.426   3.552   1.790 -0.1951 -0.7599 -0.5354
11845SOL     OW36377   1.637   7.504   0.886  0.6960  0.1913  0.1536
11845SOL    HW136378   1.569   7.463   0.832  1.4305 -0.6817 -0.1281
11845SOL    HW236379   1.663   7.436   0.948  0.6745  0.8203  0.8585
11846SOL     OW36380   6.105   7.305   5.834 -0.2330 -0.1358  0.5248
11846SOL    HW136381   6.148   7.245   5.896 -0.4503 -0.3722  0.4486
11846SOL    HW236382   6.174   7.330   5.773 -0.1539 -0.3603  0.5196
11847SOL     OW36383   0.980   4.759   7.907  0.2137 -0.3558 -0.2802
11847SOL    HW136384   1.005   4.667   7.911  1.2831 -0.0952 -0.6820
11847SOL    HW236385   0.884   4.757   7.909  0.1368 -1.2511  3.7108
11848SOL     OW36386   0.392   8.036   5.176  0.1265  0.2417 -0.1563
11848SOL    HW136387   0.377   8.072   5.263 -1.7405 -1.9442  0.5432
11848SOL    HW236388   0.322   8.074   5.122  0.9662  1.1850 -0.6232
11849SOL     OW36389   6.134   6.950   2.038  0.4581  0.1172  0.4332
11849SOL    HW136390   6.116   6.954   1.944  0.1595  1.5433  0.5229
11849SOL    HW236391   6.165   7.038   2.060  0.4568 -0.1757  1.6877
11850SOL     OW36392   8.182   4.980   6.005  0.3093  0.0303 -0.2746
11850SOL    HW136393   8.205   4.916   5.937  0.0087 -0.8686  0.4565
11850SOL    HW236394   8.266   5.012   6.036  0.4475  0.9213 -1.4871
11851SOL     OW36395   5.526   0.851   6.858  0.0922  0.3176 -0.0696
11851SOL    HW136396   5.476   0.808   6.926  1.3309 -1.1121 -0.0113
11851SOL    HW236397   5.546   0.782   6.795  0.8683  1.1231 -0.7424
11852SOL     OW36398   7.239   0.957   3.783 -0.7351  0.0402 -0.1336
11852SOL    HW136399   7.297   0.971   3.708 -0.9903 -1.7297 -0.7152
11852SOL    HW236400   7.297   0.967   3.860  0.0642 -0.4633 -0.6536
11853SOL     OW36401   4.128   2.692   6.128 -0.4195  0.2519  0.7700
11853SOL    HW136402   4.118   2.624   6.195 -2.7468  1.4170  1.7220
11853SOL    HW236403   4.140   2.773   6.177  1.2600  0.7320 -0.3318
11854SOL     OW36404   1.846   4.389   4.188  0.1548 -0.3329  0.4189
11854SOL    HW136405   1.893   4.465   4.221  2.9480 -0.7873 -2.0213
11854SOL    HW236406   1.773   4.425   4.138 -0.0395  0.6014  1.3515
11855SOL     OW36407   3.288   5.586   0.235 -0.2924 -0.0243 -0.0557
11855SOL    HW136408   3.332   5.524   0.293 -0.0216 -1.1160 -1.3828
11855SOL    HW236409   3.217   5.536   0.195  1.4895 -0.3217 -3.1133
11856SOL     OW36410   6.899   1.235   7.248 -0.6962 -0.4141  0.3999
11856SOL    HW136411   6.962   1.299   7.281 -0.0670 -0.3216 -0.9123
11856SOL    HW236412   6.894   1.168   7.316  0.1131  0.0491  0.9257
11857SOL     OW36413   2.567   1.678   6.998  0.1272  0.0441  0.7518
11857SOL    HW136414   2.600   1.664   7.086  0.2969 -0.6238  0.5923
11857SOL    HW236415   2.629   1.739   6.958  1.8011 -1.9419  0.1256
11858SOL     OW36416   7.152   6.359   1.020 -0.3790 -0.1140  0.3752
11858SOL    HW136417   7.232   6.310   1.001 -0.0157  0.1616  1.1334
11858SOL    HW236418   7.171   6.448   0.989 -2.1620 -0.9959 -3.9291
11859SOL     OW36419   5.939   5.458   7.168 -0.3319  0.7666  0.3426
11859SOL    HW136420   5.843   5.457   7.167 -0.3335  0.5692  0.7974
11859SOL    HW236421   5.964   5.367   7.183 -0.0740  0.8613  0.4917
11860SOL     OW36422   4.145   6.597   0.547  0.0495  0.3662 -0.2122
11860SOL    HW136423   4.118   6.581   0.637  1.3995  0.4635  0.2349
11860SOL    HW236424   4.076   6.653   0.511  0.3060  1.7301  1.2902
11861SOL     OW36425   0.550   7.815   2.123  0.2764  0.5376  0.5565
11861SOL    HW136426   0.515   7.830   2.211  2.5335  0.1570  1.5974
11861SOL    HW236427   0.622   7.753   2.136  0.1724 -0.1485 -1.6937
11862SOL     OW36428   6.224   8.115   7.695  0.7998 -0.4523  0.1536
11862SOL    HW136429   6.280   8.150   7.764  0.0481 -1.8752  1.5442
11862SOL    HW236430   6.281   8.058   7.644  1.3462  0.5692 -0.4178
11863SOL     OW36431   4.753   5.443   3.834 -0.3631  0.4502 -0.3871
11863SOL    HW136432   4.664   5.422   3.805  0.1250 -0.1594 -1.4997
11863SOL    HW236433   4.789   5.360   3.864  0.2851  0.4159 -1.2283
11864SOL     OW36434   0.725   5.134   2.441 -0.2034 -0.4405  0.1567
11864SOL    HW136435   0.743   5.167   2.529  0.8846 -0.6520  0.0252
11864SOL    HW236436   0.809   5.101   2.410 -0.4398  0.1504 -1.1879
11865SOL     OW36437   3.784   7.690   7.030 -0.0660 -0.6453 -0.3866
11865SOL    HW136438   3.705   7.652   6.991 -1.2583  2.0926 -0.8731
11865SOL    HW236439   3.788   7.778   6.993  1.9214  0.1047  1.4550
11866SOL     OW36440   5.986   1.457   0.966  0.1777 -0.1221 -0.3807
11866SOL    HW136441   5.922   1.466   0.895 -1.1744 -0.3009  0.7523
11866SOL    HW236442   6.057   1.517   0.943 -1.9215  2.6776 -0.0937
11867SOL     OW36443   3.121   2.780   3.747  0.3397 -0.0157  0.2107
11867SOL    HW136444   3.038   2.732   3.754 -0.3346  0.6665 -2.0978
11867SOL    HW236445   3.095   2.868   3.721  1.7137  0.7903  1.5094
11868SOL     OW36446   5.863   4.315   4.615  0.2886 -0.3018 -0.7919
11868SOL    HW136447   5.873   4.251   4.544 -0.4540  0.6070 -1.7489
11868SOL    HW236448   5.797   4.277   4.673  1.1927 -1.2363 -0.3560
11869SOL     OW36449   2.729   7.985   6.618  0.1833  0.1085  0.2344
11869SOL    HW136450   2.749   8.038   6.540  0.2472  0.2558  0.3492
11869SOL    HW236451   2.744   7.895   6.590 -0.3769  0.1113 -0.1035
11870SOL     OW36452   1.521   4.019   6.459  0.3175 -0.3526 -0.1324
11870SOL    HW136453   1.441   4.022   6.406 -0.1515  2.1262  0.6083
11870SOL    HW236454   1.591   4.000   6.396 -0.7380 -2.0316 -0.8796
11871SOL     OW36455   8.180   1.569   6.280  0.8797 -0.2881 -0.1962
11871SOL    HW136456   8.118   1.642   6.288 -0.9581 -1.8337  0.5299
11871SOL    HW236457   8.240   1.580   6.354  1.6202  1.2987 -0.9761
11872SOL     OW36458   2.713   4.505   4.383  0.6492 -0.2956  0.8207
11872SOL    HW136459   2.746   4.420   4.355 -0.1586  0.1409 -1.6785
11872SOL    HW236460   2.751   4.568   4.322 -1.6289  0.6745  0.2898
11873SOL     OW36461   1.098   7.680   2.439 -0.2755 -0.2124 -0.0336
11873SOL    HW136462   1.034   7.728   2.387  0.1456 -0.1050 -0.4623
11873SOL    HW236463   1.178   7.733   2.433  0.1057 -0.8119 -0.2533
11874SOL     OW36464   6.667   2.238   5.605  0.3761 -0.8584 -0.3398
11874SOL    HW136465   6.718   2.158   5.593  4.0787  1.2341 -0.0491
11874SOL    HW236466   6.732   2.308   5.605 -2.6655  2.2323 -0.7892
11875SOL     OW36467   0.080   4.749   6.407 -0.1098 -0.1787  0.4415
11875SOL    HW136468   0.098   4.669   6.357 -1.6297  0.4000 -1.1187
11875SOL    HW236469   0.152   4.808   6.385 -0.7142  0.0351 -1.0420
11876SOL     OW36470   2.083   7.813   2.404  0.0846 -0.4544  0.1632
11876SOL    HW136471   2.156   7.766   2.443 -0.3087 -0.7890  0.5115
11876SOL    HW236472   2.119   7.854   2.326  0.8537  0.1001  0.7894
11877SOL     OW36473   4.517   5.362   6.347  0.1200  0.2038 -0.5226
11877SOL    HW136474   4.442   5.373   6.406 -1.3321 -3.4661 -1.3690
11877SOL    HW236475   4.480   5.373   6.259  0.6407 -1.1696 -0.9356
11878SOL     OW36476   1.876   3.395   3.534 -0.0899 -0.5822  0.1898
11878SOL    HW136477   1.797   3.436   3.498  0.6078 -0.9561 -1.9614
11878SOL    HW236478   1.905   3.455   3.602 -2.1154 -0.3552  0.9306
11879SOL     OW36479   1.731   2.081   7.315 -0.0643 -0.0857 -0.5015
11879SOL    HW136480   1.692   2.055   7.399  1.7285 -1.5379 -0.0495
11879SOL    HW236481   1.688   2.026   7.250  0.2705 -0.7443 -0.1791
11880SOL     OW36482   7.932   2.495   1.445 -0.0311  0.0764  0.1830
11880SOL    HW136483   8.001   2.556   1.417 -0.7327  0.6042 -0.4336
11880SOL    HW236484   7.945   2.486   1.539 -0.0749  1.4132  0.3382
11881SOL     OW36485   6.256   2.516   1.821  0.5636 -0.5255  0.0859
11881SOL    HW136486   6.213   2.531   1.905 -0.0870 -0.1604 -0.3074
11881SOL    HW236487   6.190   2.537   1.755  1.5274  0.6999 -0.5513
11882SOL     OW36488   4.306   3.810   7.473  0.4451 -0.2234 -0.5342
11882SOL    HW136489   4.330   3.895   7.511 -0.2595  0.2509 -1.1214
11882SOL    HW236490   4.262   3.832   7.391 -2.1730 -0.9968  0.5630
11883SOL     OW36491   2.253   7.023   1.973 -0.5625  0.2939 -0.1735
11883SOL    HW136492   2.205   7.043   2.054  1.3171  3.1633  0.3722
11883SOL    HW236493   2.190   7.040   1.903 -1.2293  1.0828  0.5949
11884SOL     OW36494   5.573   6.957   2.439  0.1624 -0.4444 -0.6988
11884SOL    HW136495   5.551   6.987   2.351 -0.5031  0.0283 -0.3738
11884SOL    HW236496   5.498   6.981   2.493  1.2858  0.8379  0.3482
11885SOL     OW36497   0.221   2.277   4.262 -0.5680 -0.0841  0.8829
11885SOL    HW136498   0.260   2.344   4.205 -0.9934 -0.0952  0.5743
11885SOL    HW236499   0.246   2.194   4.222 -0.7708 -0.0933  0.7718
11886SOL     OW36500   1.459   1.483   1.377 -0.0676  0.0654  0.1057
11886SOL    HW136501   1.451   1.503   1.470  1.1494 -0.4961  0.3406
11886SOL    HW236502   1.400   1.409   1.363 -2.3504  1.7931 -0.1705
11887SOL     OW36503   4.971   5.033   4.016 -0.4647 -0.1580 -0.0387
11887SOL    HW136504   4.879   5.059   4.005 -0.2315  1.2557  1.0045
11887SOL    HW236505   5.018   5.117   4.019  0.8219 -0.8589 -0.2472
11888SOL     OW36506   2.654   2.264   0.973 -0.1261 -0.1415 -0.3725
11888SOL    HW136507   2.583   2.270   0.909  1.7629  3.0510 -2.4110
11888SOL    HW236508   2.697   2.181   0.954 -0.6308 -0.0370 -2.1310
11889SOL     OW36509   2.242   4.838   0.908  0.4886  0.5298  0.2339
11889SOL    HW136510   2.325   4.793   0.889 -0.0808  0.0111 -1.2239
11889SOL    HW236511   2.228   4.894   0.831 -0.0187  1.3636  0.9272
11890SOL     OW36512   6.978   0.278   4.574 -0.4491  0.3831 -0.3932
11890SOL    HW136513   6.963   0.308   4.485  1.6578 -1.6303 -1.5166
11890SOL    HW236514   7.061   0.318   4.599 -1.5973  1.9394  1.2325
11891SOL     OW36515   1.003   4.475   6.660 -0.3813  0.1083 -0.1391
11891SOL    HW136516   1.005   4.416   6.584 -0.2677  2.1560 -1.7955
11891SOL    HW236517   1.079   4.532   6.648 -1.3567  1.6092  0.5846
11892SOL     OW36518   0.358   0.158   7.817  0.1227  0.0991  0.7108
11892SOL    HW136519   0.417   0.206   7.759 -0.4458  1.4892  1.2556
11892SOL    HW236520   0.417   0.113   7.879  0.6502  2.3040  1.9115
11893SOL     OW36521   4.305   7.682   0.667 -0.2608 -0.5436 -0.3169
11893SOL    HW136522   4.285   7.732   0.588  1.6013  0.7285 -0.0409
11893SOL    HW236523   4.261   7.731   0.737 -1.3242 -1.2773 -0.4517
11894SOL     OW36524   3.775   7.986   0.410 -0.3747  0.1005 -0.6018
11894SOL    HW136525   3.840   8.056   0.421 -1.1567  0.7396  0.1395
11894SOL    HW236526   3.826   7.906   0.407  0.4255  0.5233  0.7070
11895SOL     OW36527   7.379   7.228   5.022 -0.4747 -0.2786 -0.0950
11895SOL    HW136528   7.308   7.270   4.973 -1.0722 -0.8782  0.2391
11895SOL    HW236529   7.342   7.146   5.052  0.5776 -0.9000 -0.4508
11896SOL     OW36530   1.810   7.750   5.876  0.0139 -0.0968  0.4065
11896SOL    HW136531   1.895   7.709   5.861 -0.2952 -0.4197 -0.5413
11896SOL    HW236532   1.820   7.797   5.959  1.2150  0.1682  0.1229
11897SOL     OW36533   4.703   8.099   4.549  0.5590 -0.3807  0.0254
11897SOL    HW136534   4.688   8.189   4.521  0.1961 -0.6979 -0.8401
11897SOL    HW236535   4.634   8.048   4.505  0.3954 -0.9978  0.9671
11898SOL     OW36536   2.661   7.554   7.295 -0.0462 -0.4391 -0.2200
11898SOL    HW136537   2.623   7.472   7.262  0.0042 -0.8781  0.7555
11898SOL    HW236538   2.589   7.616   7.293 -0.0278 -0.4298 -1.1891
11899SOL     OW36539   2.748   6.702   7.935 -0.4320 -0.3903 -0.0281
11899SOL    HW136540   2.673   6.721   7.992  0.2444  0.2769  0.6616
11899SOL    HW236541   2.710   6.695   7.847 -1.4812 -1.3564  0.4721
11900SOL     OW36542   4.147   8.214   6.698 -0.5776 -0.0569 -0.2510
11900SOL    HW136543   4.087   8.163   6.643  0.9793 -2.3018 -0.0337
11900SOL    HW236544   4.216   8.242   6.638  0.4380 -1.3868  0.2290
11901SOL     OW36545   0.469   4.311   0.872 -0.2147  0.4420 -0.6104
11901SOL    HW136546   0.459   4.378   0.940  0.1504  0.4402 -0.5489
11901SOL    HW236547   0.383   4.304   0.832 -0.2462  0.9860 -0.6480
11902SOL     OW36548   3.297   8.125   5.431  0.2223 -0.1375  0.5559
11902SOL    HW136549   3.279   8.207   5.385  0.7909 -0.7571 -0.8503
11902SOL    HW236550   3.337   8.069   5.364 -0.3308 -1.6305  1.4225
11903SOL     OW36551   5.816   4.598   4.929  0.0085 -0.0209  0.2305
11903SOL    HW136552   5.752   4.550   4.876  2.0801 -0.4604 -2.0573
11903SOL    HW236553   5.807   4.689   4.900  0.6492 -0.1437 -0.3681
11904SOL     OW36554   6.529   6.279   7.508  0.5904 -0.4469  0.1584
11904SOL    HW136555   6.599   6.213   7.511  0.7458 -0.3203 -0.4950
11904SOL    HW236556   6.449   6.229   7.497  0.6073 -0.5807  0.6434
11905SOL     OW36557   6.652   5.763   2.596 -0.4538 -0.3596 -0.1557
11905SOL    HW136558   6.615   5.844   2.629 -1.6244 -1.1821  0.5864
11905SOL    HW236559   6.651   5.703   2.670 -0.8850 -1.4819 -1.0305
11906SOL     OW36560   3.955   3.940   4.720  0.1790  0.0586  0.0704
11906SOL    HW136561   3.919   3.855   4.743  3.0630 -1.2206  0.3237
11906SOL    HW236562   3.974   3.982   4.803  0.5730  0.0904 -0.0321
11907SOL     OW36563   6.230   4.164   3.582  0.2716 -0.1446  0.1554
11907SOL    HW136564   6.181   4.128   3.656 -0.3576  0.7808  0.1959
11907SOL    HW236565   6.163   4.199   3.524  0.8459  0.4220 -0.1743
11908SOL     OW36566   1.958   5.258   0.918 -0.0375  0.1576 -0.5710
11908SOL    HW136567   1.875   5.300   0.895 -1.3924 -1.8183  0.4301
11908SOL    HW236568   2.023   5.328   0.914 -1.9741  2.0595 -0.0681
11909SOL     OW36569   7.322   0.613   5.599 -0.6212  0.3015  0.1702
11909SOL    HW136570   7.358   0.668   5.669 -2.3428  2.7026 -0.6935
11909SOL    HW236571   7.383   0.624   5.526  0.3628 -1.0207  0.7279
11910SOL     OW36572   6.886   3.223   4.480  0.0534  0.5663  0.6722
11910SOL    HW136573   6.865   3.313   4.457 -0.3698  0.2275 -0.3661
11910SOL    HW236574   6.923   3.186   4.400 -0.9389 -0.5172  0.6825
11911SOL     OW36575   6.548   8.204   2.493  0.6740 -0.2633  0.1821
11911SOL    HW136576   6.569   8.222   2.585 -0.8733 -1.0043  0.7142
11911SOL    HW236577   6.570   8.112   2.481  1.0561 -0.1188 -0.2570
11912SOL     OW36578   8.175   1.163   1.895  0.0314  0.1522  1.1391
11912SOL    HW136579   8.269   1.163   1.876 -0.4411  1.0430 -1.6950
11912SOL    HW236580   8.168   1.128   1.984  2.7260 -4.3847 -0.1373
11913SOL     OW36581   4.567   7.928   0.847 -0.2323 -0.7937 -0.1340
11913SOL    HW136582   4.620   7.992   0.895  0.5973 -1.0134 -0.7315
11913SOL    HW236583   4.590   7.941   0.756 -1.2704 -0.8632 -0.4176
11914SOL     OW36584   0.419   5.352   0.749 -0.2778 -0.3568  0.0658
11914SOL    HW136585   0.363   5.329   0.676  1.7406  1.1635 -2.1036
11914SOL    HW236586   0.437   5.269   0.793 -2.2428 -1.1741 -0.5880
11915SOL     OW36587   3.389   6.701   4.513 -0.2188 -0.4345 -0.6693
11915SOL    HW136588   3.469   6.712   4.461 -0.0090 -0.4433 -0.3525
11915SOL    HW236589   3.397   6.613   4.551  1.0326  0.6142  1.7017
11916SOL     OW36590   1.474   5.138   8.066 -0.2696 -0.5510 -0.7532
11916SOL    HW136591   1.453   5.217   8.115  0.4863 -0.1142 -1.1211
11916SOL    HW236592   1.423   5.146   7.985  0.1209 -0.2343 -0.9712
11917SOL     OW36593   6.257   4.644   4.363 -0.0110 -0.2432  0.3502
11917SOL    HW136594   6.211   4.672   4.442 -1.6261 -1.3581 -0.1459
11917SOL    HW236595   6.315   4.573   4.392  0.0937 -0.0265  0.6763
11918SOL     OW36596   6.386   5.946   5.844  0.0291 -0.1624  0.1305
11918SOL    HW136597   6.336   6.015   5.800  0.4418 -0.7439 -1.3016
11918SOL    HW236598   6.334   5.926   5.923 -1.1877  0.3076 -0.5192
11919SOL     OW36599   2.280   2.080   4.703 -0.0838 -0.3385  0.4879
11919SOL    HW136600   2.251   2.023   4.774 -0.1753 -3.1712 -1.5997
11919SOL    HW236601   2.207   2.080   4.641 -0.0456  2.1047  0.3696
11920SOL     OW36602   1.796   6.959   5.515 -0.3929 -0.1325 -0.1923
11920SOL    HW136603   1.825   6.940   5.604  0.5295  0.2491 -0.3969
11920SOL    HW236604   1.720   7.016   5.526 -0.3098 -0.1256  0.3541
11921SOL     OW36605   0.526   4.914   1.450 -0.5676 -0.4454  0.9079
11921SOL    HW136606   0.599   4.959   1.409 -0.0903 -0.8956  1.2508
11921SOL    HW236607   0.461   4.982   1.465  0.0363  0.0777  1.1724
11922SOL     OW36608   7.678   0.237   4.040 -0.0871 -0.4836 -0.0609
11922SOL    HW136609   7.629   0.154   4.044 -0.6735 -0.1316  0.1393
11922SOL    HW236610   7.668   0.266   3.949 -1.4135  0.2713  0.3013
11923SOL     OW36611   0.688   6.555   5.748  0.4022  0.1159 -0.1287
11923SOL    HW136612   0.776   6.547   5.787  0.3385 -1.6782 -0.2794
11923SOL    HW236613   0.639   6.482   5.785 -1.3634  1.6495  0.7148
11924SOL     OW36614   4.067   3.293   4.400 -0.1008  0.3163  0.0891
11924SOL    HW136615   4.126   3.290   4.475  0.8737 -0.5375 -0.6745
11924SOL    HW236616   4.049   3.386   4.387 -2.3862  0.4021  2.9018
11925SOL     OW36617   1.592   5.635   5.448 -0.4235  0.3311  1.1382
11925SOL    HW136618   1.665   5.653   5.508  2.1179  1.7843 -2.0583
11925SOL    HW236619   1.539   5.714   5.451 -1.7705 -0.5731  3.1778
11926SOL     OW36620   3.814   5.602   1.254  0.4243 -0.8483 -0.6862
11926SOL    HW136621   3.862   5.628   1.175  0.3263 -0.2714 -0.5555
11926SOL    HW236622   3.817   5.506   1.253  0.7978 -0.8343 -1.1608
11927SOL     OW36623   3.328   5.876   3.037 -0.1589  0.4413 -0.3035
11927SOL    HW136624   3.277   5.957   3.034  2.0195  1.9588  0.8477
11927SOL    HW236625   3.327   5.851   3.129 -1.0087 -1.0207 -0.6878
11928SOL     OW36626   0.614   5.839   6.381 -0.0843 -0.4521  0.2697
11928SOL    HW136627   0.628   5.748   6.407  0.4196 -0.7332 -0.9076
11928SOL    HW236628   0.563   5.834   6.300  1.4197  0.2294 -0.7628
11929SOL     OW36629   0.306   1.812   3.631 -0.5312  0.5941 -0.5160
11929SOL    HW136630   0.310   1.717   3.621 -1.5198  0.4714  0.1907
11929SOL    HW236631   0.360   1.845   3.559 -1.1499 -0.4615 -1.4944
11930SOL     OW36632   7.281   5.254   5.668 -0.6222  0.0448  0.0209
11930SOL    HW136633   7.315   5.167   5.692 -0.5133 -0.0673 -0.5287
11930SOL    HW236634   7.275   5.251   5.572  1.4443  1.3937 -0.2071
11931SOL     OW36635   3.162   3.489   4.732 -0.1630 -0.5838  0.1738
11931SOL    HW136636   3.101   3.427   4.692 -0.9752 -0.3729  1.0565
11931SOL    HW236637   3.208   3.529   4.658  1.0279 -2.8617 -0.4028
11932SOL     OW36638   0.509   6.943   1.412 -0.0432 -0.0384 -0.0267
11932SOL    HW136639   0.493   6.940   1.506 -0.1093 -0.8725 -0.0571
11932SOL    HW236640   0.479   6.859   1.379 -1.0193  0.6503 -0.9662
11933SOL     OW36641   1.642   4.081   0.976 -0.8185  0.1774  0.1945
11933SOL    HW136642   1.583   4.034   0.917 -0.0221  0.6400 -1.0263
11933SOL    HW236643   1.729   4.046   0.955 -0.4634  0.7496  0.7025
11934SOL     OW36644   2.390   0.539   0.302  0.2241  0.0679 -0.1846
11934SOL    HW136645   2.464   0.480   0.318  0.1592  0.2320  0.7613
11934SOL    HW236646   2.431   0.621   0.275  0.4234  0.2983  0.7690
11935SOL     OW36647   6.500   0.576   7.441 -0.7129 -0.1756 -0.2199
11935SOL    HW136648   6.427   0.561   7.381 -0.6755 -0.3092 -0.2323
11935SOL    HW236649   6.535   0.661   7.414  0.5396 -1.0946 -1.6874
11936SOL     OW36650   7.025   4.048   0.777 -0.1742  0.0495  0.4420
11936SOL    HW136651   6.934   4.071   0.762 -0.2011  1.2808  2.2535
11936SOL    HW236652   7.022   3.956   0.804 -0.7044 -0.3299 -0.8276
11937SOL     OW36653   1.407   3.449   0.666  0.4995  0.1032  0.2483
11937SOL    HW136654   1.312   3.453   0.677  0.2623 -0.2397 -1.4682
11937SOL    HW236655   1.441   3.510   0.731 -1.0996  2.9840 -1.4360
11938SOL     OW36656   8.168   7.637   6.495 -0.2464  0.4476 -0.2735
11938SOL    HW136657   8.240   7.587   6.457  0.5450  1.3504  0.0007
11938SOL    HW236658   8.091   7.611   6.444  0.6915  1.2776 -2.2000
11939SOL     OW36659   6.530   3.843   0.905  0.0110 -0.5175 -0.0542
11939SOL    HW136660   6.570   3.771   0.955 -0.2291 -0.1799  0.6463
11939SOL    HW236661   6.437   3.822   0.903 -0.0212 -0.3741 -0.0870
11940SOL     OW36662   3.112   2.187   3.366 -0.2771 -0.5514 -0.2642
11940SOL    HW136663   3.176   2.253   3.394 -0.3988 -0.7529  0.5096
11940SOL    HW236664   3.080   2.219   3.281  0.1199  0.0631 -0.1883
11941SOL     OW36665   6.666   4.850   4.035 -0.8996  0.3943  0.7820
11941SOL    HW136666   6.570   4.851   4.038 -0.9059 -0.5984  1.6691
11941SOL    HW236667   6.692   4.856   4.127 -0.1217  0.1053  0.5841
11942SOL     OW36668   6.148   0.512   3.439 -0.5822  0.3762  0.9692
11942SOL    HW136669   6.084   0.519   3.509  0.8430  0.3857  2.3304
11942SOL    HW236670   6.212   0.449   3.472  1.4679  2.2665  0.8003
11943SOL     OW36671   2.639   4.020   7.440  0.8005  0.1055  0.2613
11943SOL    HW136672   2.576   4.092   7.433  0.4246 -0.0073  2.0485
11943SOL    HW236673   2.623   3.968   7.361 -0.1829  0.9753 -0.1545
11944SOL     OW36674   3.766   6.653   3.523  0.1639  0.0535  0.6565
11944SOL    HW136675   3.836   6.686   3.579 -0.3815  2.2635  0.1295
11944SOL    HW236676   3.750   6.724   3.461 -1.8997 -0.7904  0.1542
11945SOL     OW36677   7.704   7.635   1.745  0.0061 -0.7624 -0.1918
11945SOL    HW136678   7.746   7.658   1.662  0.1465  0.5569  0.2178
11945SOL    HW236679   7.614   7.667   1.735  0.3148  0.4096  0.5453
11946SOL     OW36680   0.278   1.991   0.236 -0.5174 -0.1605  0.1971
11946SOL    HW136681   0.358   1.978   0.287 -0.7698 -1.6580  0.2365
11946SOL    HW236682   0.224   1.915   0.256 -0.9067 -0.4596 -1.7851
11947SOL     OW36683   0.264   1.889   5.808  0.5005  0.0048  0.5688
11947SOL    HW136684   0.349   1.866   5.846  0.9520  0.2182 -0.2959
11947SOL    HW236685   0.268   1.857   5.718  0.1347  1.0962  0.1487
11948SOL     OW36686   0.017   2.321   0.469 -0.2529  0.0691  1.2239
11948SOL    HW136687  -0.013   2.308   0.559 -0.7497 -0.2577  1.0112
11948SOL    HW236688   0.060   2.407   0.471 -1.2728  0.5797  1.5063
11949SOL     OW36689   4.474   8.144   1.568  0.1339 -0.1188  0.5753
11949SOL    HW136690   4.549   8.155   1.627 -1.1767  1.3069  2.1020
11949SOL    HW236691   4.513   8.133   1.481  2.1044  0.6775  1.2849
11950SOL     OW36692   4.115   3.562   0.135 -0.1468 -0.3846  0.2857
11950SOL    HW136693   4.144   3.515   0.057  2.5251 -0.8741  1.4680
11950SOL    HW236694   4.149   3.651   0.124 -3.2680  0.8228 -0.8876
11951SOL     OW36695   3.382   3.595   0.812 -0.8092 -0.6707 -0.0063
11951SOL    HW136696   3.432   3.632   0.885  0.1322 -0.8434 -0.5463
11951SOL    HW236697   3.295   3.633   0.820 -0.4116  0.1319  0.5873
11952SOL     OW36698   6.170   6.953   0.385  0.0496  0.3838  0.0178
11952SOL    HW136699   6.097   6.897   0.410 -0.5902  0.8603 -0.7312
11952SOL    HW236700   6.244   6.893   0.373  0.1306  0.0208  1.9673
11953SOL     OW36701   0.649   7.559   2.951  0.3333  0.0018  0.7297
11953SOL    HW136702   0.665   7.591   2.862  1.4134 -0.5827  0.6902
11953SOL    HW236703   0.732   7.518   2.976 -0.5467 -1.4602  1.3233
11954SOL     OW36704   2.178   1.382   6.543  0.1654  0.2616 -0.4390
11954SOL    HW136705   2.213   1.295   6.563  2.3910  1.1391 -0.2210
11954SOL    HW236706   2.146   1.415   6.627 -1.3476 -0.5897 -0.6565
11955SOL     OW36707   0.281   2.100   5.996 -0.3381 -0.2748  0.6338
11955SOL    HW136708   0.259   2.061   5.911 -0.6972 -0.8657  0.9944
11955SOL    HW236709   0.311   2.189   5.974 -1.8847  0.1318  0.0128
11956SOL     OW36710   0.054   0.221   2.065  0.1717 -0.2269  0.0119
11956SOL    HW136711   0.147   0.202   2.078  0.5605  2.0741  1.0266
11956SOL    HW236712   0.017   0.222   2.154 -0.3468  0.9825 -0.2006
11957SOL     OW36713   5.896   2.210   7.394  0.6129 -0.8216  0.9919
11957SOL    HW136714   5.812   2.189   7.433  0.1501  0.7429  0.8789
11957SOL    HW236715   5.901   2.153   7.316 -0.5241 -0.6191  0.7599
11958SOL     OW36716   8.018   2.818   4.148 -0.2789  0.0118  0.2626
11958SOL    HW136717   7.945   2.770   4.108  0.9449 -1.3266 -0.4662
11958SOL    HW236718   8.052   2.873   4.077  0.7714 -1.0234 -0.0660
11959SOL     OW36719   0.398   6.277   5.264 -0.1983 -0.2552  0.4623
11959SOL    HW136720   0.492   6.297   5.259 -0.3903  0.6578  0.4375
11959SOL    HW236721   0.356   6.343   5.210 -0.8185 -1.0642 -0.0716
11960SOL     OW36722   1.733   4.458   5.797  0.3510 -0.0114  0.3543
11960SOL    HW136723   1.679   4.537   5.792  0.5632  0.1096 -0.0362
11960SOL    HW236724   1.687   4.395   5.742  1.7161  0.7509 -1.7725
11961SOL     OW36725   4.331   1.196   4.768 -0.1756 -0.2400 -0.6264
11961SOL    HW136726   4.314   1.253   4.842 -0.6430 -0.1697 -0.7870
11961SOL    HW236727   4.348   1.110   4.807 -1.6690 -0.4991 -0.4863
11962SOL     OW36728   6.437   8.134   6.746 -0.4316 -0.2805  0.5127
11962SOL    HW136729   6.420   8.153   6.654 -2.6781  0.6139  1.0406
11962SOL    HW236730   6.483   8.050   6.745 -0.9097 -0.5719 -1.4061
11963SOL     OW36731   1.468   6.181   1.956 -0.0464 -0.3072 -0.5268
11963SOL    HW136732   1.558   6.179   1.987 -0.2268 -1.1440 -0.0136
11963SOL    HW236733   1.453   6.093   1.920 -0.7710 -0.3108 -0.2423
11964SOL     OW36734   1.287   6.009   6.511  0.4311 -0.0376 -0.7303
11964SOL    HW136735   1.229   5.939   6.481  2.0296 -1.7546 -0.0385
11964SOL    HW236736   1.235   6.059   6.574 -0.2279 -1.6825  0.0777
11965SOL     OW36737   0.230   8.165   3.238  0.4516 -0.2181 -0.0302
11965SOL    HW136738   0.248   8.074   3.260  3.5315  0.4111  0.5581
11965SOL    HW236739   0.213   8.207   3.323 -1.4145 -0.2491 -0.3365
11966SOL     OW36740   1.745   4.596   3.980 -0.1863  0.1278 -0.1878
11966SOL    HW136741   1.818   4.613   3.921  0.4982  0.7789  0.8113
11966SOL    HW236742   1.777   4.621   4.066 -0.5409 -2.4147  0.7883
11967SOL     OW36743   6.488   0.541   1.994  0.3169 -0.1324 -0.4897
11967SOL    HW136744   6.572   0.515   1.956  1.1028 -1.0091  1.6752
11967SOL    HW236745   6.478   0.633   1.969  0.5738 -0.7338 -3.0254
11968SOL     OW36746   1.188   0.490   4.798  0.2884 -0.4143 -0.6559
11968SOL    HW136747   1.138   0.480   4.879 -0.6773 -1.7433 -1.3550
11968SOL    HW236748   1.256   0.423   4.803 -0.1381 -0.9049 -1.1649
11969SOL     OW36749   6.372   3.959   3.958  0.0658 -0.5661 -0.3623
11969SOL    HW136750   6.361   3.911   4.040 -0.6343  0.0338 -0.0897
11969SOL    HW236751   6.343   3.897   3.891  2.0500 -1.5935 -0.3223
11970SOL     OW36752   7.831   7.924   2.578  0.1015 -0.3983 -0.0156
11970SOL    HW136753   7.805   8.008   2.615  1.3121 -0.3679  0.8175
11970SOL    HW236754   7.890   7.886   2.643  2.1506 -0.4413 -1.7829
11971SOL     OW36755   2.568   2.521   3.869  0.2063 -0.0569  0.3450
11971SOL    HW136756   2.535   2.472   3.944 -0.1258 -0.6999 -0.2086
11971SOL    HW236757   2.632   2.582   3.906 -0.7075  0.3709  1.2830
11972SOL     OW36758   2.016   0.490   6.935  0.0748 -0.0146 -0.0015
11972SOL    HW136759   1.926   0.499   6.964 -0.5302 -1.0691 -1.4111
11972SOL    HW236760   2.050   0.580   6.931 -1.3408  0.5103 -0.7353
11973SOL     OW36761   0.154   7.798   5.790  0.1171  0.2625 -0.6679
11973SOL    HW136762   0.202   7.785   5.872 -1.0692  0.7704  0.1517
11973SOL    HW236763   0.087   7.863   5.812 -0.1541  0.5033 -2.0860
11974SOL     OW36764   3.990   3.326   2.963  0.3463  0.0385 -0.4564
11974SOL    HW136765   4.043   3.395   2.924  1.3088 -1.1937 -1.4386
11974SOL    HW236766   4.033   3.305   3.046 -0.4057  1.1214  0.2340
11975SOL     OW36767   1.766   3.026   7.026 -0.2465 -0.0220  0.2825
11975SOL    HW136768   1.681   3.028   7.070 -0.1171  0.6788  0.5161
11975SOL    HW236769   1.752   3.073   6.944 -0.7483 -2.1945 -0.9605
11976SOL     OW36770   3.307   4.049   6.981 -0.3274 -0.6372 -0.2902
11976SOL    HW136771   3.233   4.019   7.034 -1.6810  3.2231  0.3643
11976SOL    HW236772   3.381   4.050   7.042 -0.3082 -2.1693 -0.2616
11977SOL     OW36773   0.337   6.924   3.253 -0.1090  0.3852 -0.2067
11977SOL    HW136774   0.324   6.894   3.343 -1.8454  2.4381  0.3221
11977SOL    HW236775   0.420   6.971   3.254  0.9542 -1.4146 -0.2521
11978SOL     OW36776   2.229   5.701   2.696 -0.4023 -0.3502  0.2717
11978SOL    HW136777   2.249   5.633   2.760  1.2510 -1.7315 -1.5940
11978SOL    HW236778   2.303   5.762   2.703 -0.5918 -0.1116  0.1840
11979SOL     OW36779   6.781   0.094   7.786 -0.7092 -0.6828 -0.3239
11979SOL    HW136780   6.734   0.011   7.780  0.2235 -1.1747 -1.1006
11979SOL    HW236781   6.844   0.082   7.856  0.3125 -1.1105 -1.2904
11980SOL     OW36782   2.574   3.908   3.538  0.6932  0.5917 -0.0131
11980SOL    HW136783   2.487   3.882   3.507  1.6569  0.1262 -2.5691
11980SOL    HW236784   2.599   3.838   3.598 -0.5170  0.5061  0.4261
11981SOL     OW36785   2.352   2.324   4.565  0.0492  0.0950  0.1697
11981SOL    HW136786   2.358   2.230   4.581 -0.3708  0.0249 -0.0903
11981SOL    HW236787   2.318   2.332   4.476 -0.2522  0.4912  0.3167
11982SOL     OW36788   7.013   1.491   6.578 -0.3508  0.3189  0.2020
11982SOL    HW136789   7.089   1.450   6.535  1.0510  1.9227  1.0128
11982SOL    HW236790   7.045   1.513   6.665 -2.3107 -0.4665  1.1738
11983SOL     OW36791   6.351   1.440   7.380  0.3915 -0.2247  0.2542
11983SOL    HW136792   6.282   1.505   7.370  0.8614  0.3091  0.4609
11983SOL    HW236793   6.352   1.419   7.473  1.2050  0.5577  0.4388
11984SOL     OW36794   1.645   5.669   1.178 -0.2944  0.3430 -0.3380
11984SOL    HW136795   1.685   5.596   1.130 -0.5811  0.9566 -1.5525
11984SOL    HW236796   1.712   5.737   1.178 -1.0762  1.1598 -1.8626
11985SOL     OW36797   7.366   5.388   3.817  0.5371  0.0334  0.3417
11985SOL    HW136798   7.361   5.410   3.910  1.2114  1.1702  0.1311
11985SOL    HW236799   7.449   5.427   3.787 -0.1542  0.5870 -0.9546
11986SOL     OW36800   3.010   2.736   6.676  0.8663 -0.2472 -0.4918
11986SOL    HW136801   3.005   2.682   6.597  0.9620 -1.3665  0.2379
11986SOL    HW236802   3.076   2.692   6.730 -1.6782 -1.6334  1.7542
11987SOL     OW36803   7.204   6.874   3.788 -0.0680 -0.5175  0.3719
11987SOL    HW136804   7.291   6.893   3.823 -0.0606  0.1882 -0.0117
11987SOL    HW236805   7.175   6.957   3.750 -0.8602 -0.7793  0.3916
11988SOL     OW36806   1.924   1.983   6.096 -0.0813 -0.1773  0.1754
11988SOL    HW136807   1.989   1.983   6.025 -0.8352 -1.1834 -0.5491
11988SOL    HW236808   1.953   2.052   6.155 -0.2715  1.8140 -1.9121
11989SOL     OW36809   1.806   4.660   7.060 -0.0685  0.2629  0.0399
11989SOL    HW136810   1.738   4.612   7.014  0.3427 -0.3187  0.0323
11989SOL    HW236811   1.765   4.686   7.143 -0.5649  0.6597 -0.3170
11990SOL     OW36812   2.359   3.029   2.654 -0.1832  0.0743 -0.8176
11990SOL    HW136813   2.403   3.071   2.580  0.5643  0.1417 -0.3424
11990SOL    HW236814   2.386   3.080   2.731 -0.7810 -0.1219 -0.4666
11991SOL     OW36815   3.270   6.311   3.258 -0.1438  0.3477  0.1679
11991SOL    HW136816   3.348   6.367   3.266 -0.5603  1.1611 -1.1585
11991SOL    HW236817   3.289   6.254   3.184  0.1394 -1.1137  1.3071
11992SOL     OW36818   6.235   5.983   2.722 -0.3609  0.2091 -0.1410
11992SOL    HW136819   6.262   5.924   2.791 -1.0829  0.6824  0.5625
11992SOL    HW236820   6.156   6.026   2.756  1.0844  2.8884  0.1411
11993SOL     OW36821   0.498   1.183   7.781 -0.6395 -0.1354 -0.4504
11993SOL    HW136822   0.578   1.234   7.790 -1.4751  1.1736 -0.1789
11993SOL    HW236823   0.517   1.100   7.824  1.2462 -0.6722 -2.1812
11994SOL     OW36824   6.782   7.087   2.859  0.2540 -0.4597 -0.3259
11994SOL    HW136825   6.857   7.127   2.903 -0.0375 -0.8282  0.5237
11994SOL    HW236826   6.810   6.997   2.840  0.3999 -0.2874 -0.9700
11995SOL     OW36827   5.038   2.491   6.448 -0.0177 -0.1916 -0.2146
11995SOL    HW136828   5.035   2.585   6.464  1.1121 -0.2865  0.7160
11995SOL    HW236829   4.976   2.453   6.510 -1.6662  0.0261 -1.6657
11996SOL     OW36830   0.210   2.528   6.077 -0.2377 -0.1116 -0.9890
11996SOL    HW136831   0.160   2.469   6.133  0.0187 -0.0984 -0.7419
11996SOL    HW236832   0.298   2.527   6.115 -0.3035  0.6600 -0.8023
11997SOL     OW36833   1.151   5.831   5.898  0.7570  0.1163  0.4094
11997SOL    HW136834   1.108   5.906   5.855 -2.1130 -2.1841 -1.1259
11997SOL    HW236835   1.158   5.857   5.990 -0.4634  2.1401 -0.0126
11998SOL     OW36836   5.557   8.094   7.697 -0.0076 -0.4030 -0.2769
11998SOL    HW136837   5.636   8.129   7.655 -1.5724  0.5719 -2.6563
11998SOL    HW236838   5.580   8.004   7.720  1.8527 -0.0896 -0.7112
11999SOL     OW36839   6.111   0.074   7.902  0.0887 -0.3769 -0.7326
11999SOL    HW136840   6.113   0.013   7.828  1.4202  0.1011 -1.1240
11999SOL    HW236841   6.138   0.021   7.977 -2.6089 -1.2235 -0.2315
12000SOL     OW36842   7.461   0.728   3.083 -0.3947 -0.0574 -0.6023
12000SOL    HW136843   7.415   0.686   3.156 -0.1600  1.2152  0.3047
12000SOL    HW236844   7.442   0.672   3.007 -0.1571 -1.7459  0.5317
12001SOL     OW36845   1.959   6.748   4.072 -0.4124  0.7620  0.8620
12001SOL    HW136846   2.023   6.817   4.054 -0.1631  0.8530  2.0204
12001SOL    HW236847   1.877   6.795   4.087 -1.1710  0.5832 -2.0345
12002SOL     OW36848   0.564   4.373   0.160 -0.2808 -0.1760  0.1490
12002SOL    HW136849   0.653   4.389   0.191 -0.3309  1.3429 -0.4073
12002SOL    HW236850   0.517   4.340   0.237  0.5543 -0.2317  0.6423
12003SOL     OW36851   3.447   6.627   0.951  0.7546 -0.2577 -0.2619
12003SOL    HW136852   3.522   6.687   0.951 -0.3066  1.2144  1.9414
12003SOL    HW236853   3.456   6.576   1.032 -0.8581  0.3481  0.3486
12004SOL     OW36854   6.864   7.598   0.464 -0.5183 -0.5548  0.1207
12004SOL    HW136855   6.893   7.529   0.524 -0.5157  0.1917  0.9990
12004SOL    HW236856   6.841   7.672   0.521 -1.6996 -0.2429 -0.7216
12005SOL     OW36857   5.511   0.281   4.068  0.2763 -0.2340  0.4137
12005SOL    HW136858   5.557   0.362   4.048 -2.0660  0.7599 -1.5335
12005SOL    HW236859   5.422   0.309   4.089 -0.6176 -2.2735 -0.4053
12006SOL     OW36860   2.725   4.712   5.454  0.1231  0.3087  0.5466
12006SOL    HW136861   2.683   4.781   5.403 -1.4198 -1.5846 -0.9099
12006SOL    HW236862   2.811   4.700   5.413  0.2240  1.0379  0.5345
12007SOL     OW36863   1.196   1.714   5.477  0.3091  0.1849  0.1538
12007SOL    HW136864   1.219   1.621   5.475  0.0007  0.1120 -0.3382
12007SOL    HW236865   1.277   1.759   5.455  0.1638 -0.0394 -0.9187
12008SOL     OW36866   2.075   5.368   2.914 -0.1314  0.0410  0.1419
12008SOL    HW136867   2.087   5.294   2.973  0.0340 -1.7425 -1.9574
12008SOL    HW236868   2.010   5.337   2.850  0.9219  1.1759 -1.5683
12009SOL     OW36869   6.416   4.563   4.788  0.5349 -0.0995  0.0886
12009SOL    HW136870   6.493   4.533   4.741  2.5570  2.6031  1.3506
12009SOL    HW236871   6.444   4.570   4.879 -1.7219 -0.5333  0.8917
12010SOL     OW36872   6.307   6.211   1.936 -0.3078 -0.2985 -0.5426
12010SOL    HW136873   6.248   6.186   1.865  0.1097 -2.0198 -0.3422
12010SOL    HW236874   6.379   6.258   1.893 -0.0132 -1.3994 -1.3069
12011SOL     OW36875   7.522   1.719   4.712  0.0007  0.1978  0.2289
12011SOL    HW136876   7.609   1.693   4.681  0.0529 -0.4006  0.8375
12011SOL    HW236877   7.485   1.638   4.748  0.2473  0.9753  2.3848
12012SOL     OW36878   4.757   1.024   3.385 -0.6108 -0.4143 -0.2583
12012SOL    HW136879   4.668   1.044   3.357 -0.3925 -0.8233 -1.3074
12012SOL    HW236880   4.755   0.931   3.408 -0.5102 -0.3706 -0.0741
12013SOL     OW36881   5.808   4.196   6.906 -0.1078  0.0318 -0.4641
12013SOL    HW136882   5.889   4.168   6.948  0.4851 -0.2004 -1.7048
12013SOL    HW236883   5.812   4.292   6.909 -0.0267  0.0188 -0.0915
12014SOL     OW36884   1.479   6.329   2.386  0.4503 -0.0022  0.1042
12014SOL    HW136885   1.480   6.268   2.459 -0.5878 -0.3373 -0.1467
12014SOL    HW236886   1.546   6.296   2.326  0.5810 -0.3233  0.4244
12015SOL     OW36887   5.613   8.105   7.335  0.1349 -0.1098 -0.2716
12015SOL    HW136888   5.572   8.019   7.326  0.1159 -0.1601  0.2516
12015SOL    HW236889   5.628   8.134   7.245  0.1165 -0.6486 -0.4530
12016SOL     OW36890   6.624   5.527   8.074 -0.3437 -0.0537 -0.3132
12016SOL    HW136891   6.698   5.468   8.061 -1.4194 -1.8190  1.0939
12016SOL    HW236892   6.602   5.558   7.986  1.6979  0.1072 -0.8225
12017SOL     OW36893   2.302   1.365   4.504 -0.6112 -0.5326  0.4619
12017SOL    HW136894   2.359   1.441   4.513 -2.0099  0.5906  0.3524
12017SOL    HW236895   2.227   1.398   4.454 -0.5296 -2.4120 -1.0126
12018SOL     OW36896   0.468   6.247   5.729 -0.2284  0.7766 -0.0013
12018SOL    HW136897   0.427   6.320   5.775 -2.1503 -0.0727 -0.2504
12018SOL    HW236898   0.406   6.224   5.660  2.1398  1.3970 -2.4651
12019SOL     OW36899   8.070   5.520   6.436  0.0679  0.1429  0.0753
12019SOL    HW136900   7.997   5.519   6.498 -0.0142  0.7286 -0.0062
12019SOL    HW236901   8.064   5.437   6.390 -1.0236  0.5142 -0.4817
12020SOL     OW36902   2.663   1.213   8.123 -0.1474  0.0934  0.4705
12020SOL    HW136903   2.700   1.294   8.090 -0.6671  1.0024  2.0187
12020SOL    HW236904   2.569   1.221   8.109 -0.1747 -0.3866  0.3461
12021SOL     OW36905   3.567   6.435   5.336 -0.1736 -0.3655 -0.2708
12021SOL    HW136906   3.519   6.353   5.324 -1.2047  0.4489 -2.1208
12021SOL    HW236907   3.571   6.447   5.431  1.0602 -3.1145  0.1277
12022SOL     OW36908   6.042   4.284   0.125 -0.2298 -0.0557 -0.1966
12022SOL    HW136909   5.977   4.282   0.194 -1.8044 -0.5240 -1.6201
12022SOL    HW236910   6.075   4.374   0.125 -0.7421  0.1372  0.6535
12023SOL     OW36911   4.367   7.433   7.334 -0.2466  0.6156  0.1789
12023SOL    HW136912   4.272   7.433   7.339 -0.2964  0.0892 -0.6273
12023SOL    HW236913   4.394   7.347   7.365 -0.3783 -1.3435 -4.3034
12024SOL     OW36914   8.144   0.898   6.669 -0.5927  0.4173  0.2772
12024SOL    HW136915   8.116   0.808   6.685  1.6549 -0.2617  0.8467
12024SOL    HW236916   8.215   0.912   6.732  3.4063  0.3279 -3.6399
12025SOL     OW36917   6.310   1.189   0.173 -0.4553 -0.4177  0.2878
12025SOL    HW136918   6.277   1.214   0.087  2.5863  0.8814 -0.6444
12025SOL    HW236919   6.305   1.268   0.225 -0.6277 -0.7293  0.7498
12026SOL     OW36920   4.672   0.476   5.456  0.5692 -0.2711  0.1594
12026SOL    HW136921   4.740   0.411   5.476  0.3261 -0.2980  0.9199
12026SOL    HW236922   4.720   0.546   5.412  1.0806 -0.3352  0.5948
12027SOL     OW36923   3.688   0.523   4.590  0.6938 -0.4861 -0.2048
12027SOL    HW136924   3.698   0.590   4.524  2.1757 -0.0299  0.4504
12027SOL    HW236925   3.647   0.449   4.544 -0.3528  0.6009 -1.0729
12028SOL     OW36926   8.090   2.412   1.951 -0.0277 -0.3603  0.3025
12028SOL    HW136927   8.049   2.430   1.867  1.7779 -1.1702 -0.8139
12028SOL    HW236928   8.050   2.330   1.981 -0.0833 -0.5183 -0.1970
12029SOL     OW36929   7.557   0.484   0.198  0.3465 -0.1095  0.0019
12029SOL    HW136930   7.540   0.474   0.292  2.3763 -0.3802  0.3784
12029SOL    HW236931   7.652   0.485   0.191  0.2281  0.6108 -2.0020
12030SOL     OW36932   7.414   7.894   6.251 -0.5974  0.3271 -0.2127
12030SOL    HW136933   7.467   7.954   6.304 -0.8181  1.5486 -1.3325
12030SOL    HW236934   7.333   7.942   6.235 -0.7476 -0.2366 -1.1974
12031SOL     OW36935   1.511   0.073   7.913  0.1177 -1.3627  0.2093
12031SOL    HW136936   1.481   0.041   7.828 -1.8951 -1.0444  0.7426
12031SOL    HW236937   1.461   0.153   7.928  0.6375 -1.2616  1.5714
12032SOL     OW36938   1.917   0.104   7.412 -0.1308  0.1415  0.2112
12032SOL    HW136939   1.837   0.079   7.367 -1.1098 -1.2447  2.5461
12032SOL    HW236940   1.987   0.062   7.362 -0.6608  1.9242 -2.2690
12033SOL     OW36941   1.541   3.277   6.259  0.2555 -0.2940 -0.0218
12033SOL    HW136942   1.618   3.332   6.266 -0.7567  1.0731  0.7742
12033SOL    HW236943   1.480   3.328   6.206 -0.4674 -0.9255  0.1856
12034SOL     OW36944   6.795   5.460   1.748 -0.1728 -0.1582 -0.3839
12034SOL    HW136945   6.797   5.517   1.672  1.2373 -0.7313 -0.8162
12034SOL    HW236946   6.834   5.378   1.717 -1.3561 -1.0639  0.4443
12035SOL     OW36947   0.296   2.748   4.484 -0.6132  0.1453  0.3516
12035SOL    HW136948   0.336   2.726   4.399 -1.3496 -2.3581  0.5633
12035SOL    HW236949   0.240   2.823   4.465 -0.7579 -0.3525 -1.4150
12036SOL     OW36950   1.980   6.553   5.793 -0.3216 -0.3181  0.5122
12036SOL    HW136951   1.978   6.521   5.703  0.1865  1.3953 -0.1494
12036SOL    HW236952   1.900   6.605   5.802  0.0956  0.3054  0.7213
12037SOL     OW36953   7.588   1.668   0.127  0.0678 -0.6535  0.0276
12037SOL    HW136954   7.504   1.679   0.170  0.3354 -0.6488  0.5574
12037SOL    HW236955   7.606   1.753   0.087 -0.3183 -0.7456 -0.3472
12038SOL     OW36956   6.303   5.722   1.844 -0.3031  0.9218  0.0179
12038SOL    HW136957   6.383   5.716   1.792 -0.6357  1.5354 -0.5860
12038SOL    HW236958   6.333   5.716   1.935  0.2687 -0.3464 -0.2421
12039SOL     OW36959   3.405   5.342   5.135 -0.3346 -0.3266 -0.1887
12039SOL    HW136960   3.338   5.345   5.066 -1.9517 -2.1821  1.1527
12039SOL    HW236961   3.471   5.281   5.102 -0.4036 -0.1430 -0.6648
12040SOL     OW36962   7.018   1.609   5.295  0.1990 -0.1710 -0.2172
12040SOL    HW136963   6.986   1.620   5.384  1.0539 -0.0865  0.0932
12040SOL    HW236964   6.942   1.578   5.245 -1.1653  2.7737 -0.1851
12041SOL     OW36965   5.227   4.942   8.107 -0.0275 -0.4469  0.1684
12041SOL    HW136966   5.138   4.920   8.081  0.4323 -1.1399 -0.8923
12041SOL    HW236967   5.259   5.000   8.038  0.8222 -1.3637 -0.2379
12042SOL     OW36968   1.831   5.380   3.514 -0.1439  0.0714  0.8445
12042SOL    HW136969   1.780   5.317   3.564 -1.2204 -0.9001 -1.3531
12042SOL    HW236970   1.778   5.398   3.436  0.8055  2.5915  0.6738
12043SOL     OW36971   0.913   2.936   3.452  0.4679  0.2447  0.1572
12043SOL    HW136972   0.928   2.882   3.375 -3.1779 -0.3371 -0.3476
12043SOL    HW236973   0.928   2.877   3.526  0.2014 -0.3442 -0.2536
12044SOL     OW36974   4.619   7.477   3.699  0.6818  0.2229 -0.2534
12044SOL    HW136975   4.702   7.470   3.651 -0.2832  0.3262 -2.0422
12044SOL    HW236976   4.554   7.440   3.639 -0.5909  0.1957  1.0801
12045SOL     OW36977   4.707   3.919   6.853  1.0408 -0.2718 -0.7145
12045SOL    HW136978   4.772   3.889   6.790  2.7338  2.8056 -0.6265
12045SOL    HW236979   4.721   4.014   6.859 -1.9783  0.2081  1.0362
12046SOL     OW36980   3.836   5.161   7.225  0.3850 -0.5642  0.4317
12046SOL    HW136981   3.889   5.113   7.161  0.9822 -0.8638  1.1379
12046SOL    HW236982   3.854   5.118   7.309 -0.3524 -0.1493  0.8179
12047SOL     OW36983   6.005   1.441   6.730 -0.4218  0.4558  0.6089
12047SOL    HW136984   5.915   1.472   6.739  0.0506  1.9223  0.6144
12047SOL    HW236985   6.058   1.515   6.759  0.7975 -0.1881  0.0662
12048SOL     OW36986   4.919   0.171   2.653  0.0268 -0.2426 -0.4777
12048SOL    HW136987   4.881   0.147   2.568 -0.6927  1.7126 -0.7780
12048SOL    HW236988   4.876   0.114   2.716 -0.1640 -1.0457 -1.3112
12049SOL     OW36989   0.558   4.196   1.330  0.6492 -0.0382 -0.1573
12049SOL    HW136990   0.560   4.272   1.387  1.7506 -1.4301  1.7674
12049SOL    HW236991   0.650   4.179   1.309  0.2920  0.3189 -2.2634
12050SOL     OW36992   6.199   7.059   6.374  0.0907  0.1739 -0.5078
12050SOL    HW136993   6.231   7.039   6.286 -0.1050  0.0085 -0.5424
12050SOL    HW236994   6.140   6.986   6.395 -1.9007  1.4520 -1.2806
12051SOL     OW36995   2.372   5.837   3.545 -0.0642 -0.6272 -0.0093
12051SOL    HW136996   2.328   5.793   3.618 -0.1869 -0.9238 -0.2575
12051SOL    HW236997   2.334   5.924   3.543  0.8781 -0.1640  1.1071
12052SOL     OW36998   7.602   4.070   1.671 -0.0453  0.0757  0.4058
12052SOL    HW136999   7.574   4.128   1.600  0.2789  0.2104  0.3865
12052SOL    HW237000   7.689   4.102   1.695 -0.2579  0.1902  1.0353
12053SOL     OW37001   7.867   7.535   2.694  0.0233  0.3810  0.0995
12053SOL    HW137002   7.844   7.484   2.771  1.9906 -0.0474  0.4714
12053SOL    HW237003   7.809   7.502   2.625  1.7557 -3.1578  0.0766
12054SOL     OW37004   5.229   3.961   6.578 -0.2707 -0.5246  0.1489
12054SOL    HW137005   5.186   3.951   6.663  1.7378 -0.5336  1.2029
12054SOL    HW237006   5.213   4.052   6.554  1.4222  0.2730  1.8641
12055SOL     OW37007   1.688   7.274   7.704 -0.3488 -0.0652 -0.4358
12055SOL    HW137008   1.760   7.323   7.664  0.6918 -0.1264  1.2813
12055SOL    HW237009   1.684   7.306   7.794 -0.6108 -2.0574  0.3138
12056SOL     OW37010   7.469   8.183   5.870 -0.1207  0.1913 -0.2815
12056SOL    HW137011   7.421   8.224   5.943  0.2356 -0.9531  0.6202
12056SOL    HW237012   7.404   8.128   5.827  0.2302 -1.0063  0.6650
12057SOL     OW37013   0.664   7.538   3.293  0.4575  0.7882 -0.5091
12057SOL    HW137014   0.749   7.493   3.293  0.9364  1.6584 -1.0602
12057SOL    HW237015   0.600   7.469   3.310  1.2480  0.0651 -0.4028
12058SOL     OW37016   7.081   0.761   4.106  0.0827  0.1225 -0.5344
12058SOL    HW137017   7.136   0.836   4.127 -0.0333 -0.1615  0.8778
12058SOL    HW237018   7.141   0.686   4.102  0.1277  0.1926 -1.4516
12059SOL     OW37019   0.432   1.460   0.716  0.0497  0.1951 -0.0478
12059SOL    HW137020   0.469   1.548   0.710 -0.0578  0.3115  0.8822
12059SOL    HW237021   0.427   1.442   0.810  0.6459 -1.0484 -0.2314
12060SOL     OW37022   6.044   7.968   0.830 -0.0150  0.3501  0.1913
12060SOL    HW137023   5.978   8.037   0.842  0.4182  0.5785  1.4066
12060SOL    HW237024   5.998   7.898   0.785 -0.4681  1.4202 -1.1081
12061SOL     OW37025   5.472   3.221   1.582 -0.6201  0.3050  0.2317
12061SOL    HW137026   5.550   3.256   1.625 -0.4654  1.1260 -0.6763
12061SOL    HW237027   5.441   3.292   1.526  1.7044 -1.9382 -4.4590
12062SOL     OW37028   1.605   2.097   1.538 -0.2103 -0.2455  0.5954
12062SOL    HW137029   1.555   2.176   1.559 -0.7369 -0.2721 -0.5150
12062SOL    HW237030   1.657   2.081   1.617  0.8128  1.8777  0.4380
12063SOL     OW37031   3.715   6.513   6.041  0.2471  0.4453 -0.1651
12063SOL    HW137032   3.657   6.494   5.967 -1.0155  0.9764  0.6592
12063SOL    HW237033   3.656   6.532   6.114  1.4645  0.7888  0.7662
12064SOL     OW37034   0.602   5.721   6.657 -0.0910  0.4706  0.0953
12064SOL    HW137035   0.526   5.740   6.602 -0.3139 -0.7799 -0.0562
12064SOL    HW237036   0.611   5.626   6.654  0.8631  0.5131  0.9415
12065SOL     OW37037   4.106   0.646   4.023  0.0623 -0.1650 -0.0287
12065SOL    HW137038   4.149   0.573   4.067 -0.1094  0.0198  0.4477
12065SOL    HW237039   4.060   0.606   3.949  2.0966 -0.2193 -1.3390
12066SOL     OW37040   1.287   6.099   2.468 -0.3194 -0.1786 -0.5159
12066SOL    HW137041   1.227   6.043   2.517  0.6568 -0.9063 -0.1035
12066SOL    HW237042   1.240   6.181   2.456 -1.1037 -0.4693  0.4490
12067SOL     OW37043   7.450   4.054   0.249 -0.2441  0.1092 -0.6685
12067SOL    HW137044   7.357   4.068   0.269 -0.2017  0.6469 -0.8224
12067SOL    HW237045   7.451   3.980   0.188 -0.3723 -1.6581  1.3562
12068SOL     OW37046   1.013   3.433   4.516 -0.8198 -0.1227 -0.0293
12068SOL    HW137047   1.058   3.508   4.475 -0.3453 -0.4641 -0.1393
12068SOL    HW237048   0.971   3.471   4.593 -1.3235  0.4318 -0.5629
12069SOL     OW37049   6.147   2.408   7.604 -0.2331 -0.2392  0.2624
12069SOL    HW137050   6.171   2.477   7.542 -0.3400  0.1820  0.6806
12069SOL    HW237051   6.206   2.421   7.678 -1.6425  0.7332  1.2485
12070SOL     OW37052   5.758   5.160   7.148  0.0123  0.2838 -0.5999
12070SOL    HW137053   5.738   5.186   7.058  0.0624 -1.7474 -1.2561
12070SOL    HW237054   5.793   5.071   7.139  1.8517  0.7764  1.2691
12071SOL     OW37055   5.438   6.149   0.458 -0.0670 -0.1288  0.0235
12071SOL    HW137056   5.352   6.114   0.483  0.8071 -0.7544  2.5200
12071SOL    HW237057   5.458   6.106   0.375 -0.7771 -2.5746  1.0187
12072SOL     OW37058   0.193   6.346   4.862  0.4872  0.0901  0.3415
12072SOL    HW137059   0.155   6.338   4.775  0.0007  0.2407  0.5377
12072SOL    HW237060   0.121   6.375   4.918  1.0401  1.0271  0.5920
12073SOL     OW37061   5.669   3.499   0.570  0.1907 -0.7962 -0.3870
12073SOL    HW137062   5.752   3.544   0.552  0.1064  0.0936  1.2030
12073SOL    HW237063   5.677   3.414   0.527  1.6506 -0.4664 -0.8175
12074SOL     OW37064   5.748   6.740   3.212 -0.4136  0.1572 -0.4115
12074SOL    HW137065   5.766   6.779   3.126  2.6096 -1.0764 -0.4644
12074SOL    HW237066   5.819   6.677   3.225 -0.3762  0.7291  3.2756
12075SOL     OW37067   5.010   2.005   6.945 -0.5471 -0.3970 -0.1645
12075SOL    HW137068   4.938   2.038   6.891 -0.3882  0.8278  0.3352
12075SOL    HW237069   5.088   2.017   6.890 -0.6615 -1.3557 -0.5537
12076SOL     OW37070   1.233   3.204   2.634 -0.6665 -0.2331 -0.6039
12076SOL    HW137071   1.300   3.153   2.590 -1.2160 -2.7476  1.2576
12076SOL    HW237072   1.267   3.294   2.636  2.0115 -1.1804 -0.8557
12077SOL     OW37073   4.933   1.723   1.937  0.5568 -0.2975  0.3692
12077SOL    HW137074   4.968   1.634   1.944 -0.4771 -0.6769  1.1045
12077SOL    HW237075   4.858   1.724   1.998 -1.0699  0.2618 -1.5419
12078SOL     OW37076   2.794   0.006   5.055 -0.3563 -0.1191 -0.3552
12078SOL    HW137077   2.730  -0.058   5.087 -0.5386  0.3549  0.2415
12078SOL    HW237078   2.740   0.078   5.023 -0.1382 -0.0834 -0.6433
12079SOL     OW37079   7.968   6.919   1.226 -0.0528  0.0380  0.4536
12079SOL    HW137080   7.880   6.898   1.196 -0.5303  0.7170  1.2928
12079SOL    HW237081   7.965   7.014   1.243  0.5614 -0.0847  1.3410
12080SOL     OW37082   4.355   5.652   0.455 -0.0962 -0.0043 -0.1878
12080SOL    HW137083   4.394   5.606   0.380  0.5402 -0.0394  0.1515
12080SOL    HW237084   4.376   5.596   0.530  3.2025  2.1109  0.6987
12081SOL     OW37085   2.152   1.126   3.288 -0.3122 -0.4982  0.2394
12081SOL    HW137086   2.104   1.155   3.365 -1.0980  0.1557 -0.4721
12081SOL    HW237087   2.213   1.197   3.269  1.0631 -1.3619  1.1901
12082SOL     OW37088   1.133   4.436   4.976  0.3899 -0.2322  0.4659
12082SOL    HW137089   1.049   4.454   5.018 -0.2766 -1.4274 -0.3154
12082SOL    HW237090   1.194   4.496   5.020 -0.6771  0.0331  1.6711
12083SOL     OW37091   5.429   4.879   6.460  0.2549 -0.2412  0.0407
12083SOL    HW137092   5.380   4.961   6.472 -0.9641 -0.7571 -1.1612
12083SOL    HW237093   5.492   4.899   6.391 -1.4450 -0.8272 -1.7831
12084SOL     OW37094   5.577   7.881   1.079 -0.2011 -0.1526  0.0142
12084SOL    HW137095   5.542   7.847   1.162 -1.2178  0.4665 -0.1464
12084SOL    HW237096   5.672   7.876   1.090 -0.3200 -0.2963  1.1351
12085SOL     OW37097   6.654   1.646   6.797  0.4186  0.5290  0.4252
12085SOL    HW137098   6.620   1.567   6.755  0.0374  0.7127  0.3907
12085SOL    HW237099   6.706   1.689   6.729  0.0859  0.6471  0.2437
12086SOL     OW37100   0.327   4.458   1.067 -0.1924 -0.4137 -0.4284
12086SOL    HW137101   0.377   4.487   1.143 -1.4604  1.4859 -0.2672
12086SOL    HW237102   0.254   4.409   1.104  0.5279 -1.6667 -0.5893
12087SOL     OW37103   4.875   2.044   4.790 -0.5921 -0.1078 -0.0150
12087SOL    HW137104   4.796   2.001   4.756 -0.8688  0.3980 -0.0372
12087SOL    HW237105   4.845   2.132   4.813  0.0838  0.2591 -0.5144
12088SOL     OW37106   1.532   6.923   7.072 -1.0626 -0.8155  1.1530
12088SOL    HW137107   1.548   6.854   7.137  2.1722 -1.7051 -0.3562
12088SOL    HW237108   1.481   6.880   7.003  1.9888 -2.3124 -0.3896
12089SOL     OW37109   0.191   3.082   1.580  0.0891 -0.1273  0.6371
12089SOL    HW137110   0.244   3.006   1.557 -0.6678 -0.0887 -1.4821
12089SOL    HW237111   0.254   3.150   1.601  0.9150 -0.2587 -1.2277
12090SOL     OW37112   3.925   2.690   3.830  0.5744 -0.1607 -0.6735
12090SOL    HW137113   4.014   2.721   3.850  0.9372 -0.6265 -1.4900
12090SOL    HW237114   3.909   2.620   3.893  0.1306  0.9958  0.5474
12091SOL     OW37115   0.586   4.800   2.951  0.4254  0.0534  0.1283
12091SOL    HW137116   0.680   4.818   2.949  0.5047 -0.3735 -0.3615
12091SOL    HW237117   0.579   4.709   2.920 -0.0798 -0.2071  0.9638
12092SOL     OW37118   4.897   5.979   3.301 -0.3327 -0.0637 -0.1736
12092SOL    HW137119   4.980   6.028   3.305 -1.2714  1.5163  1.1645
12092SOL    HW237120   4.880   5.954   3.392 -0.9157 -1.1207 -0.5605
12093SOL     OW37121   7.738   3.466   2.394  0.0171  0.2941 -0.0266
12093SOL    HW137122   7.744   3.497   2.484 -2.9119  2.2514 -0.3744
12093SOL    HW237123   7.743   3.370   2.402 -0.3153  0.4028  2.2296
12094SOL     OW37124   5.134   6.552   3.324 -0.1036  0.4595  0.0020
12094SOL    HW137125   5.168   6.539   3.235  1.6901  1.1498  0.5546
12094SOL    HW237126   5.158   6.642   3.346  0.7697 -0.1619  1.7082
12095SOL     OW37127   1.401   6.496   5.928 -0.5755 -0.0760 -0.1802
12095SOL    HW137128   1.459   6.444   5.984  0.0256  0.5923 -0.1529
12095SOL    HW237129   1.366   6.563   5.987  0.2192  0.7565 -0.6196
12096SOL     OW37130   0.616   3.450   4.980 -0.1078  0.3995  0.2256
12096SOL    HW137131   0.633   3.356   4.990 -0.5493  0.4450  1.5055
12096SOL    HW237132   0.536   3.465   5.031  0.4919  1.6469  0.8155
12097SOL     OW37133   7.846   5.662   5.135  0.1214 -0.5736  0.3875
12097SOL    HW137134   7.767   5.632   5.179  0.6539  0.0675  1.8270
12097SOL    HW237135   7.815   5.709   5.057 -1.0699  1.6572  2.0974
12098SOL     OW37136   3.491   1.990   3.233  0.0580  0.4224 -0.2616
12098SOL    HW137137   3.422   1.956   3.290 -0.8612  1.3995 -0.7565
12098SOL    HW237138   3.570   1.945   3.263 -0.6499 -0.1741  0.8122
12099SOL     OW37139   0.010   4.622   4.272  0.5642 -0.1475  0.3417
12099SOL    HW137140  -0.067   4.597   4.221  1.7047 -0.4587 -1.3073
12099SOL    HW237141   0.082   4.570   4.235  1.2539 -1.4011  3.1876
12100SOL     OW37142   3.726   3.247   5.609  0.8215  0.1264  0.2943
12100SOL    HW137143   3.763   3.167   5.573 -0.6479  0.2239 -1.6593
12100SOL    HW237144   3.761   3.253   5.698  0.8964 -2.7099  0.5438
12101SOL     OW37145   6.898   0.781   8.120  0.2301  0.1871  0.2763
12101SOL    HW137146   6.952   0.733   8.181 -0.8650 -0.3796  0.8209
12101SOL    HW237147   6.957   0.847   8.083  1.5085 -0.9588  0.1920
12102SOL     OW37148   7.946   2.749   0.278  0.0764 -0.5884 -0.2547
12102SOL    HW137149   7.912   2.827   0.235 -0.0478  0.4919  1.7052
12102SOL    HW237150   7.945   2.682   0.210 -2.9772  0.2222 -1.1636
12103SOL     OW37151   5.204   4.193   0.438 -0.6681  0.6370 -0.9856
12103SOL    HW137152   5.114   4.162   0.450 -0.4698 -0.1607 -1.4531
12103SOL    HW237153   5.205   4.279   0.479 -1.7018  0.7477 -1.1511
12104SOL     OW37154   5.558   4.563   0.138 -0.1115  0.3187 -0.0174
12104SOL    HW137155   5.477   4.615   0.132  0.3496  1.1151  0.4315
12104SOL    HW237156   5.550   4.498   0.068 -0.0283  1.9749 -1.6822
12105SOL     OW37157   2.001   7.904   1.782 -0.2094 -0.0866  0.6849
12105SOL    HW137158   2.019   7.870   1.695  0.2741 -1.9435  1.4572
12105SOL    HW237159   2.081   7.950   1.807 -0.3008  0.3367  0.2099
12106SOL     OW37160   3.095   0.589   2.123 -0.1901 -0.4328  0.2215
12106SOL    HW137161   3.005   0.562   2.103 -0.7737  0.7712  1.1209
12106SOL    HW237162   3.098   0.681   2.098  1.3565 -0.8860 -1.4883
12107SOL     OW37163   6.020   3.665   1.720 -0.3312 -0.2526 -0.5589
12107SOL    HW137164   6.043   3.708   1.638  0.2269 -0.4067 -0.4856
12107SOL    HW237165   6.038   3.572   1.705 -0.9362 -0.3859 -0.5059
12108SOL     OW37166   2.562   4.118   6.980 -0.6521  0.2984  0.3565
12108SOL    HW137167   2.606   4.157   7.055 -2.6638  0.0677  1.7376
12108SOL    HW237168   2.583   4.176   6.906  0.5615  1.0865  1.2896
12109SOL     OW37169   0.093   7.908   2.828 -0.0058 -0.6424  0.2006
12109SOL    HW137170   0.156   7.870   2.889 -0.6843 -0.5322  1.0020
12109SOL    HW237171   0.146   7.957   2.766  0.7534 -1.3647  0.2588
12110SOL     OW37172   2.327   0.041   5.945 -0.2593  1.0268 -0.3807
12110SOL    HW137173   2.392  -0.029   5.935 -1.0737  0.1490  0.2050
12110SOL    HW237174   2.377   0.117   5.975  0.4946  0.3652  0.0747
12111SOL     OW37175   7.480   3.611   2.384  0.4294 -0.2023  0.3325
12111SOL    HW137176   7.566   3.572   2.392 -0.2483 -1.4006  2.7486
12111SOL    HW237177   7.444   3.609   2.472 -0.7482  3.5080  0.1316
12112SOL     OW37178   7.823   4.393   5.927 -0.1298 -0.4903 -0.0381
12112SOL    HW137179   7.845   4.480   5.960 -2.3359  0.7464 -1.4797
12112SOL    HW237180   7.851   4.394   5.835 -1.1723 -0.8425 -0.3820
12113SOL     OW37181   2.559   8.005   1.017  0.0192  0.3438 -0.2016
12113SOL    HW137182   2.602   7.957   0.946  0.6832  1.0788 -0.3058
12113SOL    HW237183   2.466   8.007   0.992 -0.1070 -1.2802  0.0411
12114SOL     OW37184   2.866   4.279   4.293 -0.1029 -0.5202 -0.1614
12114SOL    HW137185   2.884   4.240   4.208  0.6767 -1.1435  0.2749
12114SOL    HW237186   2.868   4.206   4.354  0.1242  0.0262  0.5006
12115SOL     OW37187   6.523   1.984   7.185  0.2867  0.0842  0.4363
12115SOL    HW137188   6.571   1.954   7.261  2.3250 -2.5771 -1.6889
12115SOL    HW237189   6.590   2.020   7.126 -1.0007  0.7574 -0.6886
12116SOL     OW37190   4.451   3.565   3.752 -0.5169 -0.4112 -0.1260
12116SOL    HW137191   4.457   3.491   3.813 -1.8139 -0.1575  0.3357
12116SOL    HW237192   4.475   3.528   3.667  1.9277 -0.6426  0.5606
12117SOL     OW37193   8.085   5.701   5.223  0.3382 -0.0251  0.1885
12117SOL    HW137194   8.079   5.634   5.290  0.5617  0.2935  0.5292
12117SOL    HW237195   7.996   5.707   5.187  1.0178 -3.0928 -2.4164
12118SOL     OW37196   4.077   1.671   0.620  0.4490  0.0482  0.8071
12118SOL    HW137197   4.031   1.736   0.566  1.6176  0.7904  0.6710
12118SOL    HW237198   4.132   1.623   0.558 -0.2567 -0.9657  0.9378
12119SOL     OW37199   1.586   3.080   4.938 -1.4159  0.0521  0.0452
12119SOL    HW137200   1.577   3.109   4.847 -1.0192 -1.5806 -0.5519
12119SOL    HW237201   1.565   3.157   4.990 -0.2066  1.4479 -1.4326
12120SOL     OW37202   4.258   0.410   7.264 -0.0430 -0.3003 -0.3422
12120SOL    HW137203   4.224   0.414   7.354  0.3215 -0.4704 -0.1947
12120SOL    HW237204   4.331   0.472   7.264  1.2311 -1.7402  0.0370
12121SOL     OW37205   1.878   3.357   0.752 -0.0116 -0.4362 -0.4212
12121SOL    HW137206   1.842   3.270   0.771 -0.9633  0.0654  0.1973
12121SOL    HW237207   1.946   3.342   0.686  1.5109 -1.9418  1.3742
12122SOL     OW37208   6.734   7.736   7.255 -0.3156 -0.3853  0.2962
12122SOL    HW137209   6.791   7.695   7.190  0.8021  0.0262  0.9707
12122SOL    HW237210   6.788   7.740   7.334 -1.4286 -0.3238  1.0812
12123SOL     OW37211   2.380   1.544   2.318  0.8922  0.0438  0.5573
12123SOL    HW137212   2.370   1.461   2.364  1.4217  0.6217  1.7718
12123SOL    HW237213   2.338   1.608   2.375 -0.6892  0.4507 -0.9945
12124SOL     OW37214   5.323   3.576   7.450 -0.1241  0.1233 -0.2965
12124SOL    HW137215   5.374   3.507   7.407 -0.5197 -0.8636  0.7773
12124SOL    HW237216   5.360   3.582   7.538 -0.5505  0.8113 -0.1608
12125SOL     OW37217   1.403   3.992   4.939  0.2716 -0.0478 -0.3696
12125SOL    HW137218   1.362   4.076   4.958  1.0282 -0.3274  3.3590
12125SOL    HW237219   1.387   3.977   4.846 -3.3623  2.2984 -0.3048
12126SOL     OW37220   3.181   7.311   5.736 -0.0842  0.4299 -0.1597
12126SOL    HW137221   3.256   7.326   5.793 -0.7576  1.2704  0.5388
12126SOL    HW237222   3.167   7.395   5.693  0.9583 -0.4057 -2.3011
12127SOL     OW37223   0.680   2.781   5.426  0.6154 -0.0541 -0.3438
12127SOL    HW137224   0.690   2.821   5.512  1.1550  0.3509 -0.5844
12127SOL    HW237225   0.676   2.855   5.366 -0.1721 -0.3215 -0.6357
12128SOL     OW37226   2.889   2.224   4.406  0.7803  0.4642 -0.2523
12128SOL    HW137227   2.873   2.306   4.452  0.8354  0.2184  0.2040
12128SOL    HW237228   2.969   2.190   4.445 -0.7984 -1.2856  1.6469
12129SOL     OW37229   3.267   4.920   2.327  0.1954 -0.4050 -0.6547
12129SOL    HW137230   3.329   4.989   2.302 -1.1161  0.7145 -0.9425
12129SOL    HW237231   3.319   4.860   2.380  0.9698  1.8482  1.3356
12130SOL     OW37232   4.491   2.526   7.130 -0.4376 -0.3101  0.3098
12130SOL    HW137233   4.396   2.510   7.130 -0.4900 -0.0071  0.0844
12130SOL    HW237234   4.514   2.528   7.223 -0.6719 -0.2730  0.3696
12131SOL     OW37235   7.632   3.807   3.075  0.1834  0.2090 -0.2784
12131SOL    HW137236   7.639   3.743   3.146  1.9703  1.3872  0.7099
12131SOL    HW237237   7.566   3.869   3.106  1.0357  0.7815  0.4727
12132SOL     OW37238   6.387   4.038   2.002  0.6164  0.0526  0.5273
12132SOL    HW137239   6.322   4.036   2.072  2.2568  1.9398  2.2796
12132SOL    HW237240   6.426   3.951   2.003 -0.7031 -0.5562  0.6035
12133SOL     OW37241   5.739   5.890   4.525  0.7595 -0.2804 -0.1978
12133SOL    HW137242   5.644   5.878   4.524  0.7227 -0.3864 -2.9695
12133SOL    HW237243   5.768   5.856   4.440  3.3937 -0.9573  0.8926
12134SOL     OW37244   7.667   7.726   7.898 -0.0087 -0.0779  0.7077
12134SOL    HW137245   7.679   7.640   7.859 -1.1316  0.2299 -0.4130
12134SOL    HW237246   7.753   7.750   7.932  0.8442 -0.7469 -0.8566
12135SOL     OW37247   0.448   4.046   1.696  0.5306  0.6706  0.5078
12135SOL    HW137248   0.375   4.101   1.723  0.5079 -0.8169  4.1618
12135SOL    HW237249   0.463   3.989   1.772  3.3645 -1.3135 -1.3677
12136SOL     OW37250   4.367   0.702   0.205 -0.1848  0.4750 -0.0230
12136SOL    HW137251   4.291   0.673   0.255  1.2403 -0.1641  1.9292
12136SOL    HW237252   4.332   0.735   0.123 -2.3142 -2.4769 -0.4153
12137SOL     OW37253   4.447   3.401   5.028  0.1840  0.2487  0.4418
12137SOL    HW137254   4.376   3.432   5.084  0.8879  0.2206  1.3747
12137SOL    HW237255   4.504   3.478   5.017 -0.4173  0.5237 -1.0313
12138SOL     OW37256   4.642   0.447   1.084 -0.0436 -0.5522  0.2343
12138SOL    HW137257   4.584   0.453   1.160 -0.0221 -1.4128  0.3345
12138SOL    HW237258   4.589   0.479   1.011  0.3452  1.4757  0.7870
12139SOL     OW37259   1.170   0.565   1.213  0.5394 -0.0643 -0.2892
12139SOL    HW137260   1.196   0.623   1.141 -0.0468  0.5472 -0.0198
12139SOL    HW237261   1.218   0.599   1.289  0.6824 -0.3269 -0.2630
12140SOL     OW37262   7.783   2.479   6.466 -0.2253 -0.0731 -0.2928
12140SOL    HW137263   7.749   2.552   6.413 -1.3990 -0.4223 -0.0410
12140SOL    HW237264   7.710   2.455   6.523  1.0295  0.3454  1.5622
12141SOL     OW37265   2.020   1.372   2.499 -0.0566 -0.0086 -0.9192
12141SOL    HW137266   2.113   1.369   2.518 -0.0473  2.1288 -0.4637
12141SOL    HW237267   1.978   1.365   2.585 -0.1842  2.5166 -0.7146
12142SOL     OW37268   3.917   6.088   1.332  0.0238 -0.3946  0.1909
12142SOL    HW137269   3.899   5.997   1.353  0.5918 -0.3195  1.0616
12142SOL    HW237270   3.883   6.100   1.243 -0.7154 -1.2488  0.3522
12143SOL     OW37271   3.609   0.313   1.477 -0.0740 -0.6605  0.1534
12143SOL    HW137272   3.664   0.354   1.544  0.3548 -0.1276 -0.5107
12143SOL    HW237273   3.597   0.223   1.507  0.7951 -0.6576  0.5373
12144SOL     OW37274   0.989   3.375   3.862 -0.2897  0.0292  0.0547
12144SOL    HW137275   0.928   3.419   3.922 -1.4885  0.6239 -1.5400
12144SOL    HW237276   1.029   3.447   3.813  0.0989 -0.4977 -0.3980
12145SOL     OW37277   3.012   2.917   2.970 -0.5256 -0.1972  0.0437
12145SOL    HW137278   3.070   2.850   2.934 -2.6991 -1.1452 -2.0872
12145SOL    HW237279   3.042   2.932   3.059  1.3977 -2.4069 -0.1622
12146SOL     OW37280   0.622   2.901   2.178  0.3536  0.0709 -0.4763
12146SOL    HW137281   0.670   2.979   2.208  0.5687 -0.1271 -0.3010
12146SOL    HW237282   0.683   2.858   2.117 -0.3303  0.8182 -1.7161
12147SOL     OW37283   7.528   2.095   6.518  0.5052  0.6942 -1.0191
12147SOL    HW137284   7.557   2.148   6.443 -0.6876  0.9875 -1.2824
12147SOL    HW237285   7.562   2.007   6.500 -1.8499  0.1222 -3.2177
12148SOL     OW37286   4.728   7.334   6.561 -0.1564 -0.2358  0.4352
12148SOL    HW137287   4.645   7.331   6.608  0.4965  0.6866  1.7141
12148SOL    HW237288   4.793   7.307   6.626  0.7471  0.7513 -0.0385
12149SOL     OW37289   5.750   6.717   1.250  0.6831 -0.3253 -0.5872
12149SOL    HW137290   5.680   6.674   1.300 -0.7251  2.1965 -0.1885
12149SOL    HW237291   5.731   6.695   1.159 -0.8860  0.5627 -0.5161
12150SOL     OW37292   8.034   4.610   5.078  0.1046 -0.0282  0.0600
12150SOL    HW137293   7.991   4.696   5.069  0.6792  0.5050  1.8756
12150SOL    HW237294   7.964   4.547   5.064 -0.1001  0.6760 -2.4914
12151SOL     OW37295   0.741   2.080   5.383 -0.0431 -0.3871 -0.2174
12151SOL    HW137296   0.661   2.133   5.385 -0.3917 -0.7824 -2.1662
12151SOL    HW237297   0.811   2.141   5.405 -0.8327  0.0168  1.2827
12152SOL     OW37298   1.955   6.348   0.818  0.1701  0.7669  0.0211
12152SOL    HW137299   1.891   6.411   0.785 -1.7340  0.0931  2.1396
12152SOL    HW237300   1.962   6.283   0.749 -0.2664  1.6752 -0.8995
12153SOL     OW37301   6.140   5.457   3.283 -0.5977  0.3292  0.3788
12153SOL    HW137302   6.160   5.364   3.293 -2.0343 -0.0249  0.1397
12153SOL    HW237303   6.171   5.497   3.365  0.5997 -0.2438  0.2214
12154SOL     OW37304   3.780   1.180   7.355 -0.3864 -0.4403 -0.2143
12154SOL    HW137305   3.757   1.217   7.270 -1.0748 -1.4953 -0.4943
12154SOL    HW237306   3.740   1.093   7.356 -2.5516  0.4552  2.1420
12155SOL     OW37307   1.248   5.528   5.096 -0.5933 -0.5892  0.0560
12155SOL    HW137308   1.258   5.546   5.189 -0.5974 -0.6619  0.0705
12155SOL    HW237309   1.154   5.536   5.081 -0.5651 -0.3277  0.0071
12156SOL     OW37310   3.703   2.332   4.662 -0.3056 -0.0929  0.0558
12156SOL    HW137311   3.725   2.324   4.569 -0.3480  2.9292 -0.3145
12156SOL    HW237312   3.687   2.242   4.691 -0.6521 -1.0972 -2.9318
12157SOL     OW37313   6.635   1.645   0.516 -0.1589  0.3175  0.1330
12157SOL    HW137314   6.696   1.648   0.442  1.5493  0.5336  1.4991
12157SOL    HW237315   6.649   1.728   0.562 -1.1603  0.1721  0.7301
12158SOL     OW37316   3.082   1.711   3.315 -0.8379  0.0124 -0.8136
12158SOL    HW137317   3.111   1.746   3.230 -0.6157  0.8165 -0.4202
12158SOL    HW237318   3.104   1.780   3.378  1.7886 -1.7672  0.3798
12159SOL     OW37319   6.740   7.436   3.972  0.7492  0.0255  0.2028
12159SOL    HW137320   6.691   7.412   4.050 -1.6726 -0.4165 -1.3478
12159SOL    HW237321   6.709   7.524   3.950 -1.0680 -1.0730 -1.9836
12160SOL     OW37322   5.753   6.424   0.416 -0.2237  0.1240  0.6639
12160SOL    HW137323   5.770   6.329   0.422  0.6239  0.2246  0.0653
12160SOL    HW237324   5.749   6.453   0.507 -1.3657 -0.6296  0.8705
12161SOL     OW37325   2.234   1.921   0.728 -0.0679  0.0306 -0.6098
12161SOL    HW137326   2.275   1.946   0.646 -0.5844 -0.3966 -1.0074
12161SOL    HW237327   2.178   1.996   0.750  1.5221  0.9892  0.3811
12162SOL     OW37328   2.186   1.521   8.132 -0.0394 -0.2160  0.0222
12162SOL    HW137329   2.269   1.562   8.157  0.6160 -0.3469 -1.7492
12162SOL    HW237330   2.125   1.594   8.125 -0.0574 -0.1042  1.2439
12163SOL     OW37331   7.741   6.826   3.030  0.3934  0.7090  0.1639
12163SOL    HW137332   7.740   6.910   2.984  0.6896  0.1463 -0.9229
12163SOL    HW237333   7.681   6.771   2.980  0.8934  0.0051  0.3265
12164SOL     OW37334   0.414   5.557   0.919  0.0489 -0.1529  0.0928
12164SOL    HW137335   0.426   5.492   0.849 -1.4631  1.1106 -1.4247
12164SOL    HW237336   0.503   5.581   0.945  0.7078 -3.5192  1.4677
12165SOL     OW37337   3.443   6.482   7.140  0.8720  0.0902  0.2917
12165SOL    HW137338   3.504   6.449   7.073  0.3112  1.1458 -0.7742
12165SOL    HW237339   3.438   6.411   7.204  0.3008 -1.6111 -1.5184
12166SOL     OW37340   5.192   1.738   4.254  0.0302 -0.0331  0.2520
12166SOL    HW137341   5.129   1.798   4.214  0.4938  0.7864  0.7122
12166SOL    HW237342   5.259   1.726   4.187 -0.8039 -1.2553 -0.4041
12167SOL     OW37343   2.610   5.650   7.835 -0.3011  0.1577 -1.0035
12167SOL    HW137344   2.548   5.577   7.831 -1.7425  1.3070 -0.6253
12167SOL    HW237345   2.661   5.643   7.754 -1.1379 -0.6618 -1.4795
12168SOL     OW37346   4.491   6.480   2.318 -0.2952 -0.0399 -0.1039
12168SOL    HW137347   4.522   6.537   2.388 -1.4465 -0.1155  0.4801
12168SOL    HW237348   4.567   6.470   2.260  0.9873 -0.7879  1.6372
12169SOL     OW37349   2.558   6.106   7.244  0.0904 -0.4592 -0.3295
12169SOL    HW137350   2.637   6.154   7.218 -0.1353 -0.2443 -0.6166
12169SOL    HW237351   2.501   6.173   7.283  1.3371 -1.0822  2.9347
12170SOL     OW37352   6.042   0.295   7.758 -0.5228  0.9649 -0.2576
12170SOL    HW137353   6.060   0.222   7.817 -1.1182  1.3332  0.3968
12170SOL    HW237354   6.020   0.253   7.675 -1.0083  0.3833  0.1527
12171SOL     OW37355   6.477   6.415   6.316  0.6955 -0.0117 -0.3722
12171SOL    HW137356   6.493   6.508   6.300 -1.5521  0.3445 -1.0104
12171SOL    HW237357   6.434   6.413   6.402 -1.3064 -0.1333 -1.3113
12172SOL     OW37358   7.366   6.013   1.358  0.2362  0.0218 -0.1862
12172SOL    HW137359   7.294   6.052   1.407  0.1686 -0.6686  0.2721
12172SOL    HW237360   7.393   5.938   1.410  0.5369 -0.3943 -0.9243
12173SOL     OW37361   4.337   7.282   2.179  0.0930 -0.2253  0.2794
12173SOL    HW137362   4.370   7.192   2.181  2.4505  0.5709  0.6017
12173SOL    HW237363   4.297   7.291   2.093  2.9406 -0.6249 -1.1985
12174SOL     OW37364   6.950   1.502   3.687  0.7827  0.1843 -1.0313
12174SOL    HW137365   6.887   1.470   3.623 -0.9006  1.7791 -0.2489
12174SOL    HW237366   7.035   1.481   3.649 -0.1593  0.4651 -3.4510
12175SOL     OW37367   5.218   8.053   5.575 -0.3206 -0.0162 -0.2393
12175SOL    HW137368   5.220   8.148   5.588  5.1506  0.2202 -0.3303
12175SOL    HW237369   5.201   8.042   5.481 -2.1170  0.7192 -0.0347
12176SOL     OW37370   3.445   3.916   6.799 -0.1403  0.1595 -0.1131
12176SOL    HW137371   3.403   3.856   6.861  1.7199 -0.6162  0.4749
12176SOL    HW237372   3.421   4.003   6.830 -0.5586 -0.2441  0.7525
12177SOL     OW37373   0.812   3.469   3.582 -0.2415 -0.1054  0.3444
12177SOL    HW137374   0.825   3.564   3.581 -1.8175  0.1391  0.3478
12177SOL    HW237375   0.890   3.434   3.538 -0.3891  1.2869 -1.1425
12178SOL     OW37376   4.442   5.387   2.020 -0.1141  0.0109 -0.1068
12178SOL    HW137377   4.458   5.482   2.019 -1.0449  0.1822 -2.0361
12178SOL    HW237378   4.524   5.349   1.988  0.7464  0.0344  1.9464
12179SOL     OW37379   4.549   1.748   2.470  0.1301  0.3267 -0.5528
12179SOL    HW137380   4.460   1.717   2.487  0.0876  0.6315 -0.1906
12179SOL    HW237381   4.586   1.762   2.557  0.1003  1.4138 -0.7057
12180SOL     OW37382   2.344   3.322   6.588  0.5310 -0.0332  0.0715
12180SOL    HW137383   2.401   3.394   6.612 -0.5443  1.1405 -0.7861
12180SOL    HW237384   2.310   3.344   6.502 -0.8723 -0.8908  0.3592
12181SOL     OW37385   0.683   4.028   0.611  0.1484 -0.4428 -0.1915
12181SOL    HW137386   0.657   4.114   0.643 -0.4936 -1.1287  1.2530
12181SOL    HW237387   0.603   3.991   0.574  0.2873 -0.6181 -0.3161
12182SOL     OW37388   2.536   1.813   2.013  0.8175 -0.3309 -0.0468
12182SOL    HW137389   2.461   1.802   1.954 -0.6096  1.7997  1.2193
12182SOL    HW237390   2.611   1.821   1.955  0.0826 -2.3352 -1.3752
12183SOL     OW37391   5.676   0.612   0.330  0.1716  0.1508  0.1908
12183SOL    HW137392   5.617   0.686   0.346 -1.6140 -0.9980 -0.7014
12183SOL    HW237393   5.761   0.653   0.312 -1.0492  2.0994 -1.6889
12184SOL     OW37394   5.667   4.229   6.276  0.2090 -0.3881  0.3052
12184SOL    HW137395   5.598   4.288   6.304  0.6893  0.1874  0.2855
12184SOL    HW237396   5.673   4.241   6.181  0.1211 -0.6720  0.2615
12185SOL     OW37397   0.248   1.844   7.333 -0.0131 -0.1709  0.4684
12185SOL    HW137398   0.309   1.782   7.293 -0.2629 -0.6434  0.8077
12185SOL    HW237399   0.189   1.870   7.263  0.4871  0.1834  0.1694
12186SOL     OW37400   5.008   0.235   1.511  0.0252  0.4207  0.4918
12186SOL    HW137401   5.005   0.259   1.418 -1.0464 -0.0298  0.3904
12186SOL    HW237402   5.033   0.143   1.511  2.2788  0.9851  0.7858
12187SOL     OW37403   4.997   1.551   0.511 -0.0889  0.1149  0.2149
12187SOL    HW137404   4.989   1.638   0.550 -1.1399 -0.2681  0.8988
12187SOL    HW237405   4.947   1.557   0.430 -0.1802  0.1411  0.2729
12188SOL     OW37406   2.209   3.582   6.720 -0.0115  0.4017  0.4481
12188SOL    HW137407   2.293   3.546   6.690 -0.6764 -1.9574  1.1459
12188SOL    HW237408   2.217   3.676   6.707  0.9666 -0.0685 -4.0331
12189SOL     OW37409   0.359   7.760   1.749  0.4901 -0.6986 -1.2060
12189SOL    HW137410   0.408   7.841   1.762 -1.0623  0.3081 -1.4521
12189SOL    HW237411   0.362   7.745   1.655  0.0796 -0.4785 -1.2540
12190SOL     OW37412   1.948   1.516   7.700 -0.2317  0.1073 -0.0775
12190SOL    HW137413   1.972   1.593   7.753 -0.0561  0.3870 -0.5543
12190SOL    HW237414   1.898   1.552   7.627 -1.5307 -0.4023  0.5352
12191SOL     OW37415   2.428   8.126   3.348 -0.3111 -0.4923 -0.1686
12191SOL    HW137416   2.434   8.185   3.273  0.0440  0.4782  0.5992
12191SOL    HW237417   2.478   8.170   3.417 -2.4682 -0.2404  1.3285
12192SOL     OW37418   1.857   2.199   0.394  0.8020  0.3913  0.1025
12192SOL    HW137419   1.876   2.207   0.300  1.6826  0.8836  0.3175
12192SOL    HW237420   1.800   2.122   0.400 -1.1063  1.6202 -1.0845
12193SOL     OW37421   3.813   0.107   5.156  0.2783 -0.7196 -0.2781
12193SOL    HW137422   3.905   0.082   5.162  0.7681  1.0014 -0.0239
12193SOL    HW237423   3.804   0.146   5.070  0.0899  0.1918  0.1398
12194SOL     OW37424   5.073   6.140   1.339  0.5334  0.4355 -0.1423
12194SOL    HW137425   5.111   6.223   1.368 -1.5633  1.1876  0.6380
12194SOL    HW237426   5.002   6.124   1.401 -2.0549  0.4244 -2.9047
12195SOL     OW37427   5.725   2.016   6.421 -0.6428  0.2377  0.2358
12195SOL    HW137428   5.758   2.099   6.458  0.9086 -0.0998 -0.3000
12195SOL    HW237429   5.704   1.963   6.497 -1.4845  1.0363  0.5904
12196SOL     OW37430   4.898   2.959   6.574 -0.0207 -0.1602 -0.1616
12196SOL    HW137431   4.958   3.028   6.544 -2.0160  0.8987 -1.9431
12196SOL    HW237432   4.884   2.978   6.667 -0.9378  2.2070 -0.7335
12197SOL     OW37433   2.373   0.519   6.430  0.4529 -0.3094 -0.0360
12197SOL    HW137434   2.404   0.591   6.375 -0.7481  0.7013  0.5487
12197SOL    HW237435   2.341   0.562   6.510  0.4834 -1.5779  0.6850
12198SOL     OW37436   6.240   4.008   8.118  0.4652 -0.0375  0.0509
12198SOL    HW137437   6.317   3.987   8.066 -0.4745 -1.3976 -0.8348
12198SOL    HW237438   6.204   3.924   8.145  0.2868  0.5966  2.0096
12199SOL     OW37439   4.515   6.759   1.677 -0.4206 -0.2155  0.3446
12199SOL    HW137440   4.536   6.682   1.625 -0.2306  0.3142 -0.3882
12199SOL    HW237441   4.507   6.829   1.612 -0.5625  0.3833  1.0011
12200SOL     OW37442   3.082   2.474   2.705 -0.2933  0.2663  0.1837
12200SOL    HW137443   2.994   2.485   2.670  0.3153  0.5931 -1.3104
12200SOL    HW237444   3.083   2.386   2.743 -1.6259  0.7394  1.3882
12201SOL     OW37445   3.507   1.778   6.790  1.0853 -0.3877  0.0811
12201SOL    HW137446   3.591   1.767   6.836  0.5105 -0.2748  1.1855
12201SOL    HW237447   3.530   1.828   6.712  2.2842 -1.6199 -0.4090
12202SOL     OW37448   6.663   0.849   0.831  0.7747 -0.1763  0.0466
12202SOL    HW137449   6.659   0.798   0.911 -0.3428 -1.1671 -0.6231
12202SOL    HW237450   6.597   0.811   0.774 -0.3580  2.2309 -0.3652
12203SOL     OW37451   6.745   4.755   5.029 -0.1887 -0.0644 -0.7594
12203SOL    HW137452   6.727   4.796   4.945  0.3648  1.4449 -0.1682
12203SOL    HW237453   6.727   4.822   5.094 -0.3504 -1.1195  0.3298
12204SOL     OW37454   7.510   1.067   4.811  0.4238  0.2933 -0.8791
12204SOL    HW137455   7.445   1.011   4.767  0.2194  0.9247 -1.4018
12204SOL    HW237456   7.508   1.149   4.761  0.1807  1.0461  0.3335
12205SOL     OW37457   2.081   7.618   6.003 -0.2676  0.3456  0.2167
12205SOL    HW137458   2.134   7.684   6.047 -1.7864  1.4669  0.4510
12205SOL    HW237459   2.073   7.547   6.068 -0.6011  0.9970  0.9075
12206SOL     OW37460   2.829   0.580   0.865  0.0778  0.2946 -0.4236
12206SOL    HW137461   2.923   0.568   0.857 -0.0634 -0.4532 -1.1115
12206SOL    HW237462   2.791   0.508   0.814 -0.8703  0.1634  0.4297
12207SOL     OW37463   7.786   7.726   0.897 -0.3249 -0.2565 -0.7093
12207SOL    HW137464   7.751   7.815   0.900  2.3827  0.9206  1.4351
12207SOL    HW237465   7.810   7.713   0.806  0.8344  2.0150 -0.8244
12208SOL     OW37466   5.585   3.864   0.897  0.0813  0.8965 -0.3468
12208SOL    HW137467   5.639   3.938   0.924  0.5694  1.0723 -1.7093
12208SOL    HW237468   5.590   3.864   0.801  0.3837 -1.1093 -0.3816
12209SOL     OW37469   3.343   5.566   2.807 -0.1258  0.3707 -0.7948
12209SOL    HW137470   3.286   5.642   2.821  0.5766  0.8115 -0.2427
12209SOL    HW237471   3.424   5.589   2.853 -0.6415 -1.6262  1.2786
12210SOL     OW37472   3.257   7.359   1.635  0.2283  0.1856  0.2546
12210SOL    HW137473   3.347   7.376   1.607 -0.5097  0.0386 -2.4330
12210SOL    HW237474   3.231   7.440   1.681  1.7209  0.1846  1.1753
12211SOL     OW37475   3.090   0.307   1.325  0.0580 -0.1983 -0.0810
12211SOL    HW137476   3.175   0.267   1.306  0.1279  0.7086 -1.9003
12211SOL    HW237477   3.099   0.398   1.295 -1.5890 -0.1175 -0.4226
12212SOL     OW37478   6.101   0.771   7.801  0.1208  0.0836 -0.5748
12212SOL    HW137479   6.080   0.689   7.846 -0.9180  0.3503 -0.5387
12212SOL    HW237480   6.173   0.809   7.851 -0.1328 -0.2766  0.0700
12213SOL     OW37481   3.426   3.900   7.990  0.7081 -0.4168 -0.0897
12213SOL    HW137482   3.436   3.842   7.914 -0.9824 -1.1882  0.2336
12213SOL    HW237483   3.454   3.986   7.959 -2.0636 -0.1899 -2.3440
12214SOL     OW37484   3.620   0.618   6.919  0.0829 -0.2509 -0.1529
12214SOL    HW137485   3.703   0.585   6.953  0.8988  2.8413  1.1312
12214SOL    HW237486   3.554   0.574   6.973  0.9612 -1.2107  0.1836
12215SOL     OW37487   4.653   7.079   7.097 -0.1059 -0.0112  0.0720
12215SOL    HW137488   4.741   7.111   7.117  0.6264 -2.4754  1.2968
12215SOL    HW237489   4.597   7.157   7.098  2.0073  1.6012 -0.6193
12216SOL     OW37490   8.107   1.434   4.985  0.6470 -0.4893  0.6738
12216SOL    HW137491   8.049   1.363   4.957 -0.6989  1.5736 -2.3030
12216SOL    HW237492   8.118   1.488   4.907  1.9799  2.3088  2.6382
12217SOL     OW37493   3.904   4.744   0.930 -0.8045 -0.1166  0.3195
12217SOL    HW137494   3.891   4.728   0.836 -3.5717  1.3591  0.3400
12217SOL    HW237495   3.897   4.657   0.970 -1.3067 -0.5790 -0.7270
12218SOL     OW37496   4.377   5.008   5.089  0.3895  0.0917 -0.3080
12218SOL    HW137497   4.406   4.940   5.029 -0.3743 -0.6162  0.1121
12218SOL    HW237498   4.353   4.961   5.169  1.3636  1.0118  0.5560
12219SOL     OW37499   5.722   7.251   6.756  0.6536  0.1862 -0.0550
12219SOL    HW137500   5.780   7.230   6.829  0.8706  0.9648 -0.0046
12219SOL    HW237501   5.634   7.231   6.788  0.7704  0.3103  0.3389
12220SOL     OW37502   6.956   1.180   0.930 -0.3703 -0.6096 -0.3812
12220SOL    HW137503   6.945   1.115   1.000 -0.4424 -0.5648 -0.3505
12220SOL    HW237504   6.867   1.205   0.906 -0.3372 -0.2279 -0.1165
12221SOL     OW37505   0.645   0.625   5.546  0.2180 -0.4190 -0.2123
12221SOL    HW137506   0.605   0.537   5.545  2.3890 -1.4651 -1.2401
12221SOL    HW237507   0.584   0.679   5.496 -0.6398 -1.6102 -0.5042
12222SOL     OW37508   2.798   2.948   3.363  0.0295  0.1430 -0.1954
12222SOL    HW137509   2.768   2.858   3.347  2.4976 -0.9444  0.7984
12222SOL    HW237510   2.746   2.978   3.436 -0.4923 -0.6688 -0.2207
12223SOL     OW37511   0.179   2.891   2.216  0.1594  0.2509 -0.0408
12223SOL    HW137512   0.119   2.944   2.164  0.7360  0.2327 -0.7433
12223SOL    HW237513   0.240   2.854   2.152 -0.3259 -1.4115  0.3969
12224SOL     OW37514   2.411   1.588   2.714 -0.0329  0.0687 -0.0562
12224SOL    HW137515   2.480   1.655   2.714 -0.1675  0.2078  0.1293
12224SOL    HW237516   2.330   1.638   2.720 -0.0859 -0.1587  1.3204
12225SOL     OW37517   1.175   4.303   6.032  0.1804  0.0039 -0.6416
12225SOL    HW137518   1.192   4.208   6.031 -0.3577 -0.1185  0.5986
12225SOL    HW237519   1.242   4.339   5.974  1.2652 -0.9992 -0.0674
12226SOL     OW37520   1.343   4.291   5.010  0.9120  0.6317  0.8085
12226SOL    HW137521   1.252   4.319   4.994  0.7094 -0.2352  0.3900
12226SOL    HW237522   1.357   4.308   5.104  0.1566  0.3340  0.9820
12227SOL     OW37523   4.512   6.932   6.354  0.1689 -0.9631  0.4883
12227SOL    HW137524   4.540   6.985   6.280 -3.3470  0.5583  0.0106
12227SOL    HW237525   4.476   6.852   6.315 -1.5215 -0.2392  0.4616
12228SOL     OW37526   0.233   5.263   0.551  0.5888 -0.2081 -0.4438
12228SOL    HW137527   0.156   5.276   0.607  0.8591  0.6753 -0.2672
12228SOL    HW237528   0.198   5.246   0.464  0.2004  1.7620 -0.6963
12229SOL     OW37529   6.237   2.384   4.237  0.4369  0.0588 -0.2612
12229SOL    HW137530   6.301   2.433   4.185 -1.9110  2.1178 -1.4097
12229SOL    HW237531   6.217   2.441   4.310 -1.6937  0.5148 -1.1389
12230SOL     OW37532   4.660   0.095   8.028  0.2326  0.0453 -0.4022
12230SOL    HW137533   4.704   0.029   8.082 -0.7295 -0.3548 -0.0877
12230SOL    HW237534   4.620   0.044   7.957  0.9132  0.4945 -1.1272
12231SOL     OW37535   4.016   4.038   6.360  0.0644  0.0394 -0.2362
12231SOL    HW137536   3.935   4.087   6.349  0.4001  0.2217 -2.2667
12231SOL    HW237537   4.071   4.066   6.286  1.9894 -0.0628  1.0759
12232SOL     OW37538   7.143   7.693   6.223  0.2995  0.1918 -0.6241
12232SOL    HW137539   7.165   7.605   6.253 -1.1370  0.0481  0.0733
12232SOL    HW237540   7.094   7.731   6.296  0.7266  1.5073 -0.9943
12233SOL     OW37541   0.505   5.469   4.694 -0.3003  0.0906  0.7158
12233SOL    HW137542   0.458   5.528   4.635 -0.7784 -0.9231  0.0594
12233SOL    HW237543   0.505   5.514   4.778  1.6655  2.2649 -0.3107
12234SOL     OW37544   6.842   8.000   5.719 -0.3306 -1.0850  0.2900
12234SOL    HW137545   6.859   8.003   5.813 -0.5330 -0.3791  0.3125
12234SOL    HW237546   6.835   7.907   5.699 -0.2134 -1.2466  0.9613
12235SOL     OW37547   3.054   0.404   7.658 -0.1947  0.3276  0.1435
12235SOL    HW137548   2.992   0.468   7.692  0.0611 -0.1777  1.6325
12235SOL    HW237549   3.130   0.412   7.715  0.2401 -0.6001 -0.2791
12236SOL     OW37550   4.698   5.912   7.925  0.2783 -0.0896 -0.1872
12236SOL    HW137551   4.659   5.874   8.004  0.5433  0.8047  0.3881
12236SOL    HW237552   4.625   5.953   7.879 -0.1074 -1.6899 -1.0826
12237SOL     OW37553   0.942   1.929   2.605 -0.0736 -0.0610  0.0645
12237SOL    HW137554   0.995   1.981   2.544  1.6423 -0.5215  1.0750
12237SOL    HW237555   0.862   1.909   2.557  0.6209  0.7562 -1.5150
12238SOL     OW37556   5.477   6.480   5.870  0.1904  0.2343  0.3568
12238SOL    HW137557   5.544   6.546   5.885 -0.0154  0.4654  0.2700
12238SOL    HW237558   5.395   6.529   5.867 -0.0460 -0.0987  1.0056
12239SOL     OW37559   7.248   3.185   5.948 -0.2659 -0.2765  0.4572
12239SOL    HW137560   7.308   3.226   6.010  0.4281 -1.1101  0.3563
12239SOL    HW237561   7.207   3.114   5.997 -1.9625  0.8924  0.8331
12240SOL     OW37562   3.562   0.308   5.527 -0.0215  0.3031  0.3914
12240SOL    HW137563   3.559   0.212   5.520 -1.6659  0.1354  2.5788
12240SOL    HW237564   3.623   0.334   5.457 -1.1743 -2.1473 -1.7362
12241SOL     OW37565   4.458   7.418   2.718  0.6144 -0.5270 -0.2078
12241SOL    HW137566   4.536   7.429   2.773  1.5196  2.4123 -1.8669
12241SOL    HW237567   4.488   7.435   2.629 -1.4403 -2.0301 -1.2802
12242SOL     OW37568   6.007   2.171   3.709  0.0607 -0.3772 -0.1098
12242SOL    HW137569   5.972   2.256   3.684  0.3075  0.3729  1.8799
12242SOL    HW237570   6.091   2.165   3.664 -0.7643 -0.4334 -1.7268
12243SOL     OW37571   5.046   2.500   7.296  0.1487 -0.1915 -0.2316
12243SOL    HW137572   4.952   2.482   7.300  0.3522 -2.3248 -2.3132
12243SOL    HW237573   5.086   2.422   7.335  1.1044  1.5943  2.5532
12244SOL     OW37574   2.870   6.117   4.320  0.2444 -0.0868 -0.2294
12244SOL    HW137575   2.924   6.141   4.395  2.3525  0.2875 -1.7790
12244SOL    HW237576   2.900   6.030   4.295 -1.1841 -0.6656 -0.0331
12245SOL     OW37577   2.079   7.852   1.537  0.3775 -0.3145  0.2287
12245SOL    HW137578   2.070   7.783   1.472 -0.8859 -0.4557  0.5312
12245SOL    HW237579   2.111   7.928   1.488 -0.9903 -0.2828 -0.6627
12246SOL     OW37580   4.963   0.844   4.396 -0.1030 -0.1608  0.9940
12246SOL    HW137581   4.899   0.862   4.326  0.2109  0.8337  0.9563
12246SOL    HW237582   5.036   0.902   4.377  0.0037  0.0950  2.1401
12247SOL     OW37583   5.744   0.055   3.579  0.5183  0.0248  0.8320
12247SOL    HW137584   5.669   0.065   3.638  0.4834  0.3786  0.7309
12247SOL    HW237585   5.772   0.145   3.560  1.3727 -0.1170  1.3800
12248SOL     OW37586   2.495   6.856   3.189 -0.3137  0.1618  0.6095
12248SOL    HW137587   2.553   6.779   3.191  0.8919  1.0422  0.6235
12248SOL    HW237588   2.489   6.879   3.097  1.7974  1.8047  0.8008
12249SOL     OW37589   2.264   4.540   7.440 -0.1989 -0.3378 -0.1848
12249SOL    HW137590   2.286   4.544   7.347 -1.1269 -2.3833 -0.5311
12249SOL    HW237591   2.314   4.612   7.479  1.5130 -0.4505 -1.9996
12250SOL     OW37592   0.890   1.610   4.960 -0.1224  0.6812  0.4037
12250SOL    HW137593   0.818   1.579   5.016 -0.1291 -0.3478 -0.1433
12250SOL    HW237594   0.871   1.702   4.945 -0.0462  1.0376  2.2111
12251SOL     OW37595   2.877   0.118   6.969 -0.2621 -0.5089  0.4581
12251SOL    HW137596   2.898   0.059   6.897  0.7833 -0.0956  0.3993
12251SOL    HW237597   2.905   0.072   7.048 -0.8342 -0.7060  0.5488
12252SOL     OW37598   4.890   3.268   1.349  0.3494  0.2308  0.1813
12252SOL    HW137599   4.851   3.284   1.263 -1.0489 -0.1505  0.7305
12252SOL    HW237600   4.951   3.195   1.334 -2.4744 -2.3014  0.1401
12253SOL     OW37601   0.624   0.461   1.067  0.1644 -0.0137  0.1272
12253SOL    HW137602   0.705   0.484   1.021 -1.1210  0.3591 -2.0976
12253SOL    HW237603   0.570   0.540   1.063 -1.3775 -1.0453 -0.9871
12254SOL     OW37604   5.446   7.718   5.460 -0.3404  0.4052  0.1670
12254SOL    HW137605   5.373   7.658   5.443 -0.0110  0.1762 -0.4908
12254SOL    HW237606   5.450   7.773   5.381  0.6707 -0.0786 -0.1241
12255SOL     OW37607   6.545   2.279   8.084 -0.0920  0.2851 -0.3500
12255SOL    HW137608   6.493   2.200   8.068 -0.2050 -0.1341  1.8336
12255SOL    HW237609   6.619   2.271   8.024  0.1402 -1.7342  0.1201
12256SOL     OW37610   8.140   3.997   2.680  0.4928 -0.1307  0.3721
12256SOL    HW137611   8.203   4.042   2.737 -0.6910 -0.4806  2.0090
12256SOL    HW237612   8.098   4.067   2.630  1.3067  0.2105  0.1460
12257SOL     OW37613   8.018   0.756   4.056  0.2610  0.2518  0.1916
12257SOL    HW137614   7.955   0.696   4.019  0.4980 -0.0461  0.2652
12257SOL    HW237615   8.017   0.832   3.998  0.7699 -0.2879 -0.5401
12258SOL     OW37616   5.315   3.607   0.782 -0.6411 -0.1357  0.3090
12258SOL    HW137617   5.322   3.606   0.686  2.7000  1.1861  0.4130
12258SOL    HW237618   5.324   3.699   0.806  1.7633 -0.6947  1.9419
12259SOL     OW37619   2.493   4.128   4.011 -0.0725 -0.1596 -0.1535
12259SOL    HW137620   2.499   4.177   3.929 -0.1074  0.5871  0.2855
12259SOL    HW237621   2.557   4.057   4.002 -0.4226 -0.3713 -1.0185
12260SOL     OW37622   0.535   3.748   4.828  0.0241 -0.0755  0.7622
12260SOL    HW137623   0.552   3.664   4.785 -1.4313 -0.0258  0.0286
12260SOL    HW237624   0.613   3.800   4.811  0.1830 -0.6533 -0.3571
12261SOL     OW37625   7.732   6.560   1.431  0.2649 -0.2360 -0.1808
12261SOL    HW137626   7.802   6.547   1.367 -0.4171  0.9460 -1.2132
12261SOL    HW237627   7.651   6.555   1.380 -0.2355  2.7511  0.1223
12262SOL     OW37628   7.382   1.151   7.005 -0.1684 -0.3722  0.1102
12262SOL    HW137629   7.312   1.196   7.052  0.6218 -0.3651  1.3098
12262SOL    HW237630   7.415   1.086   7.067 -0.0692 -1.3613 -0.9485
12263SOL     OW37631   7.547   4.422   4.510  0.4250  0.4151  0.1232
12263SOL    HW137632   7.476   4.366   4.480  2.0487 -1.1043 -1.1104
12263SOL    HW237633   7.591   4.370   4.577  1.2853  0.6637 -0.2392
12264SOL     OW37634   3.401   4.742   6.400 -0.0818  0.2889  0.0284
12264SOL    HW137635   3.458   4.772   6.329 -0.8340 -0.5193 -0.9595
12264SOL    HW237636   3.386   4.820   6.453 -1.5894  1.6164 -2.1759
12265SOL     OW37637   5.929   2.359   6.022 -0.0659  0.2085  0.2113
12265SOL    HW137638   5.879   2.384   6.100  0.9433  2.3283  0.2587
12265SOL    HW237639   5.868   2.306   5.970 -1.3913  0.3513  1.5393
12266SOL     OW37640   3.774   3.611   2.578 -0.0915  0.1453  0.2832
12266SOL    HW137641   3.750   3.564   2.657  1.4012 -0.6919  0.2789
12266SOL    HW237642   3.766   3.704   2.602 -0.0110 -0.0999  1.2976
12267SOL     OW37643   0.304   2.394   2.860  0.0360  0.6620  0.6628
12267SOL    HW137644   0.331   2.306   2.836  0.4477  0.2838  2.3934
12267SOL    HW237645   0.305   2.442   2.777  1.2015 -0.5805 -0.1015
12268SOL     OW37646   2.905   7.387   0.355 -0.4867  0.0219 -0.0606
12268SOL    HW137647   2.818   7.379   0.393  0.0212  0.1015  1.1856
12268SOL    HW237648   2.890   7.422   0.268 -1.7154 -0.1974  0.0431
12269SOL     OW37649   0.446   7.595   4.179 -0.2995  0.1614 -0.2705
12269SOL    HW137650   0.409   7.529   4.237  1.4530 -0.2526  0.4314
12269SOL    HW237651   0.375   7.657   4.164 -1.0816 -0.2640  1.5159
12270SOL     OW37652   3.927   0.654   4.447  0.1796  0.1407  0.1338
12270SOL    HW137653   3.896   0.586   4.387 -0.0517  1.7175 -1.6454
12270SOL    HW237654   3.990   0.609   4.503 -2.7543 -2.3945  1.6745
12271SOL     OW37655   2.618   7.757   1.117  0.2498 -0.5945 -0.5634
12271SOL    HW137656   2.536   7.712   1.138  0.5519 -0.6372  0.6207
12271SOL    HW237657   2.591   7.845   1.091 -0.1342 -0.1506  1.1728
12272SOL     OW37658   8.210   3.142   6.369 -0.1788 -0.4969  0.3795
12272SOL    HW137659   8.204   3.109   6.459  1.0454 -1.6536  0.0695
12272SOL    HW237660   8.139   3.099   6.322 -0.7395  0.0083  0.7529
12273SOL     OW37661   5.954   5.563   8.145 -0.3653 -0.1566  0.0984
12273SOL    HW137662   6.023   5.498   8.156  0.7241  0.9166 -0.1660
12273SOL    HW237663   5.880   5.528   8.195  0.7783 -0.7432  1.4456
12274SOL     OW37664   0.811   3.211   8.128  0.5399  0.1288  0.0107
12274SOL    HW137665   0.773   3.266   8.059  0.0514 -0.6899 -0.3884
12274SOL    HW237666   0.737   3.161   8.162  1.2712 -1.7837 -1.0327
12275SOL     OW37667   2.340   0.485   4.789  0.1411  0.2741 -0.4736
12275SOL    HW137668   2.352   0.567   4.837 -0.0712 -0.1134  0.2546
12275SOL    HW237669   2.261   0.446   4.825 -1.0512  0.8038 -2.3787
12276SOL     OW37670   3.306   1.080   1.953 -0.1067  0.4230 -0.2217
12276SOL    HW137671   3.282   1.081   2.045 -0.8386  2.6027 -0.3796
12276SOL    HW237672   3.401   1.069   1.953 -0.1826 -0.4107  0.7199
12277SOL     OW37673   0.014   3.751   1.819  0.1191  0.1814 -0.0688
12277SOL    HW137674   0.013   3.828   1.763 -1.4667 -0.5757 -1.1749
12277SOL    HW237675  -0.032   3.684   1.769  2.1439 -1.7633  0.5097
12278SOL     OW37676   7.486   1.123   5.076  0.0137  0.1543  0.3577
12278SOL    HW137677   7.492   1.110   4.981  1.0449  0.1053  0.4233
12278SOL    HW237678   7.397   1.094   5.098 -0.6468  1.2290 -0.7469
12279SOL     OW37679   7.070   0.096   1.633 -0.2213 -0.5162  0.2623
12279SOL    HW137680   7.130   0.159   1.673 -0.2613 -0.7877  0.7691
12279SOL    HW237681   7.038   0.044   1.707 -0.6864 -0.7060 -0.0705
12280SOL     OW37682   4.764   0.777   5.769 -0.1904  0.5346  0.9737
12280SOL    HW137683   4.704   0.748   5.699 -1.0220  0.0720  1.8545
12280SOL    HW237684   4.761   0.706   5.833  1.5143  0.3874  0.9368
12281SOL     OW37685   3.174   0.693   2.495 -0.1358  0.2702  0.1591
12281SOL    HW137686   3.092   0.739   2.476  0.5134  0.8601 -1.4338
12281SOL    HW237687   3.242   0.754   2.469  0.7680 -1.5937 -2.2523
12282SOL     OW37688   1.313   5.738   4.809  0.7627  0.1076  0.6437
12282SOL    HW137689   1.249   5.772   4.746  0.0969 -1.3531  0.5024
12282SOL    HW237690   1.296   5.644   4.812  3.1198 -0.3813  0.3791
12283SOL     OW37691   0.412   3.080   1.372 -0.2491  0.4937  0.6144
12283SOL    HW137692   0.330   3.129   1.370 -0.8016 -0.3993 -0.5580
12283SOL    HW237693   0.386   2.991   1.395  0.0481 -0.2725 -1.6698
12284SOL     OW37694   0.261   5.631   1.147  0.4560 -0.0737  0.0122
12284SOL    HW137695   0.295   5.656   1.061  0.0607  0.1670 -0.0759
12284SOL    HW237696   0.267   5.711   1.199 -1.0896  0.3230 -0.3579
12285SOL     OW37697   4.699   0.146   5.383 -0.1549  0.2236  0.1660
12285SOL    HW137698   4.789   0.179   5.380 -0.4223  0.9813  0.1976
12285SOL    HW237699   4.674   0.136   5.291 -0.6311  1.7162  0.1079
12286SOL     OW37700   2.133   7.726   1.186 -0.2491  0.0811 -1.1359
12286SOL    HW137701   2.063   7.661   1.184  0.7440 -1.1260  0.5883
12286SOL    HW237702   2.214   7.675   1.186  0.5624  1.2955  0.0086
12287SOL     OW37703   4.178   0.230   3.827 -0.3764  0.0632  0.8840
12287SOL    HW137704   4.108   0.186   3.778 -1.9187  0.9541  2.1895
12287SOL    HW237705   4.132   0.285   3.891  1.3982  3.4132 -0.4433
12288SOL     OW37706   8.200   6.182   4.206  0.3981  0.0707  0.2623
12288SOL    HW137707   8.119   6.141   4.176  0.1202  0.1053  0.9423
12288SOL    HW237708   8.235   6.121   4.271  1.4595 -0.4440 -0.7397
12289SOL     OW37709   7.788   1.607   6.480 -1.1640  0.4411 -0.0947
12289SOL    HW137710   7.835   1.585   6.400  0.2630  2.0749  0.2339
12289SOL    HW237711   7.796   1.530   6.536 -2.2880 -0.7712 -1.5167
12290SOL     OW37712   5.373   5.968   3.457 -0.3001  0.2110  0.3371
12290SOL    HW137713   5.349   6.057   3.479 -1.1143 -0.4074  2.0951
12290SOL    HW237714   5.331   5.952   3.372  0.3091  1.6279 -0.2658
12291SOL     OW37715   6.156   3.960   5.105  0.1262  0.0739 -0.5363
12291SOL    HW137716   6.124   4.024   5.168  0.4691 -0.5650  0.3153
12291SOL    HW237717   6.185   3.886   5.159  1.1717 -0.1706 -1.3953
12292SOL     OW37718   6.396   2.735   6.555  0.0649  0.0575 -0.3315
12292SOL    HW137719   6.422   2.757   6.465  0.1988 -1.0494 -0.5845
12292SOL    HW237720   6.370   2.818   6.594  0.4390  0.6224 -1.2559
12293SOL     OW37721   0.790   4.608   3.579  0.1175  0.0444 -0.1515
12293SOL    HW137722   0.700   4.621   3.549  0.1344 -1.8180 -1.1138
12293SOL    HW237723   0.843   4.615   3.500  0.9762  1.9665  0.5205
12294SOL     OW37724   4.778   5.830   0.157  0.2421 -0.0560  0.2124
12294SOL    HW137725   4.735   5.893   0.099 -0.7757 -1.3937 -0.5420
12294SOL    HW237726   4.797   5.754   0.101  0.8327 -0.6850  1.2330
12295SOL     OW37727   7.749   0.001   7.029  0.0856 -0.2198  0.0924
12295SOL    HW137728   7.768   0.077   6.975  1.9809 -1.4838 -1.1496
12295SOL    HW237729   7.654   0.003   7.042 -0.1433  1.2541 -1.5462
12296SOL     OW37730   4.762   6.288   6.504  0.4881 -0.0179  0.3138
12296SOL    HW137731   4.676   6.266   6.469  0.3355 -0.0853  0.7198
12296SOL    HW237732   4.775   6.227   6.576  1.4338 -0.8537 -0.5452
12297SOL     OW37733   2.372   0.389   6.064  0.8208  0.6114  0.0535
12297SOL    HW137734   2.418   0.403   5.981  0.9205  1.4771  0.2467
12297SOL    HW237735   2.440   0.357   6.123  0.0173 -4.2874 -1.2301
12298SOL     OW37736   2.725   5.264   6.020 -0.3943 -0.1601 -0.0961
12298SOL    HW137737   2.777   5.222   6.089 -0.2995 -0.4349 -0.3347
12298SOL    HW237738   2.635   5.241   6.041 -0.3163 -0.7883 -0.4301
12299SOL     OW37739   2.607   8.115   2.368 -0.7575  0.0382  0.4429
12299SOL    HW137740   2.646   8.196   2.335 -1.7487  0.9204  1.3578
12299SOL    HW237741   2.681   8.054   2.378 -0.1370  0.4870 -1.1893
12300SOL     OW37742   7.426   7.677   4.118  0.0136 -0.2694  0.5877
12300SOL    HW137743   7.420   7.753   4.176  1.5834 -0.6785  1.3308
12300SOL    HW237744   7.482   7.705   4.046 -1.6955  0.1423 -0.6548
12301SOL     OW37745   0.515   1.625   3.307  0.1216 -0.0677  0.0732
12301SOL    HW137746   0.516   1.695   3.372 -0.1050 -0.4661  0.5088
12301SOL    HW237747   0.605   1.593   3.306 -0.1743 -0.9632  1.1817
12302SOL     OW37748   7.357   2.198   0.356  0.4402 -0.4938 -0.4418
12302SOL    HW137749   7.428   2.259   0.334  0.5782 -1.3401 -2.6228
12302SOL    HW237750   7.280   2.234   0.312  0.5210 -1.8148 -1.7550
12303SOL     OW37751   6.049   1.547   0.059 -0.2274  0.2612 -0.0821
12303SOL    HW137752   5.967   1.595   0.047 -0.9208 -0.8599 -0.0059
12303SOL    HW237753   6.092   1.589   0.133 -0.5930  1.0368 -0.3020
12304SOL     OW37754   3.523   6.438   4.524 -0.0753  0.6650  0.4800
12304SOL    HW137755   3.455   6.374   4.545 -2.2023  2.7134  0.4123
12304SOL    HW237756   3.582   6.437   4.600 -0.2153 -1.1120  0.5987
12305SOL     OW37757   6.669   4.498   5.329 -0.6346 -0.2516 -0.5379
12305SOL    HW137758   6.578   4.518   5.348 -0.6355  0.2335 -1.0368
12305SOL    HW237759   6.680   4.519   5.236  0.0241 -0.1590 -0.4448
12306SOL     OW37760   0.148   6.096   4.956  0.1440  0.1531  0.3276
12306SOL    HW137761   0.160   6.191   4.956  0.8402  0.0673  0.7167
12306SOL    HW237762   0.071   6.082   5.011 -0.6194  0.5601 -0.5995
12307SOL     OW37763   0.417   3.961   5.404  0.3006 -0.0237  0.5076
12307SOL    HW137764   0.446   3.874   5.376  0.2395 -0.4177  1.6048
12307SOL    HW237765   0.421   3.958   5.500  1.4151  1.5794  0.5471
12308SOL     OW37766   2.568   8.206   5.594  0.5193  0.5336  0.6278
12308SOL    HW137767   2.498   8.270   5.583 -2.8710 -2.8917  0.0695
12308SOL    HW237768   2.611   8.203   5.509 -1.7417 -0.4024 -0.5755
12309SOL     OW37769   2.117   1.316   1.202  0.1599  0.2531  0.2475
12309SOL    HW137770   2.141   1.252   1.134  1.2948  0.5249  0.3703
12309SOL    HW237771   2.045   1.275   1.250 -0.8902  0.1811 -1.2985
12310SOL     OW37772   0.340   3.363   0.014  0.7969 -0.0221  0.2665
12310SOL    HW137773   0.347   3.458   0.024  0.6942  0.1176 -0.8954
12310SOL    HW237774   0.260   3.339   0.061 -1.5428  1.0539 -2.8490
12311SOL     OW37775   6.146   7.646   0.996  0.4952  0.2563  0.0498
12311SOL    HW137776   6.061   7.601   1.007  0.7729  0.0666  1.8032
12311SOL    HW237777   6.207   7.575   0.976  0.1278  0.5017 -2.1528
12312SOL     OW37778   7.336   4.411   4.768 -0.1808  0.3014  0.0357
12312SOL    HW137779   7.331   4.493   4.719 -2.9037  0.9721  1.2535
12312SOL    HW237780   7.384   4.433   4.847 -1.2044  0.8676  0.5243
12313SOL     OW37781   4.081   7.692   1.439  0.3979 -0.2177 -0.1226
12313SOL    HW137782   4.102   7.768   1.385  0.2434 -0.1043 -0.0234
12313SOL    HW237783   4.001   7.717   1.486  1.0617  0.0605  0.8883
12314SOL     OW37784   2.200   4.113   4.739  0.4605 -0.0529  0.3511
12314SOL    HW137785   2.174   4.061   4.663 -0.7797 -0.5941  1.1260
12314SOL    HW237786   2.151   4.195   4.728  0.1016 -0.2227  0.6855
12315SOL     OW37787   6.409   8.138   7.316 -0.3549 -0.1050  0.0601
12315SOL    HW137788   6.418   8.230   7.292 -1.6492 -0.5963 -2.7462
12315SOL    HW237789   6.469   8.091   7.256 -0.6718 -1.1638  0.5420
12316SOL     OW37790   4.701   7.042   2.823  0.4143 -0.2791 -0.2591
12316SOL    HW137791   4.685   7.133   2.847  1.0711  0.0963 -1.1732
12316SOL    HW237792   4.641   6.992   2.877 -0.9647  0.7899 -0.7445
12317SOL     OW37793   5.819   3.667   1.311  0.0180  0.1878 -0.2419
12317SOL    HW137794   5.798   3.692   1.221 -0.3905  0.6257 -0.0335
12317SOL    HW237795   5.825   3.751   1.358 -1.3043 -0.0773  0.4542
12318SOL     OW37796   7.155   5.992   3.322  0.1163  0.3695  0.4363
12318SOL    HW137797   7.229   5.997   3.262  0.9813 -0.7314  1.3592
12318SOL    HW237798   7.165   5.907   3.365 -0.5226  1.0669  2.0514
12319SOL     OW37799   0.373   1.017   6.249 -0.0603  0.5811 -0.3990
12319SOL    HW137800   0.361   1.088   6.187 -2.3875  0.6639  0.0812
12319SOL    HW237801   0.411   1.059   6.327  2.6543  0.5119 -1.5486
12320SOL     OW37802   4.671   3.700   3.891  0.1960 -0.8506  0.4498
12320SOL    HW137803   4.712   3.737   3.812  1.4303 -2.7672  0.1051
12320SOL    HW237804   4.597   3.648   3.857 -1.5004  1.1430  0.9199
12321SOL     OW37805   2.422   3.687   1.056  0.4044 -0.2006  0.5243
12321SOL    HW137806   2.399   3.613   1.112 -1.2374 -1.1418 -1.3091
12321SOL    HW237807   2.345   3.702   1.003  1.3966  1.6187 -0.4786
12322SOL     OW37808   7.943   0.518   4.323  0.1808 -0.7638  0.2824
12322SOL    HW137809   7.934   0.444   4.262 -0.0635 -1.8443  1.5753
12322SOL    HW237810   8.037   0.531   4.330  0.2021 -0.1521 -0.8445
12323SOL     OW37811   5.321   5.380   3.310 -0.3832  0.3442  0.0194
12323SOL    HW137812   5.262   5.319   3.267 -0.4212  0.0334  0.4983
12323SOL    HW237813   5.276   5.403   3.392 -0.5436  1.3086 -0.3233
12324SOL     OW37814   5.093   1.870   1.754 -0.2560  0.2802  0.1911
12324SOL    HW137815   5.050   1.821   1.824  0.2642  0.6775  0.7979
12324SOL    HW237816   5.037   1.857   1.677  0.1032 -1.6574  0.2053
12325SOL     OW37817   1.119   1.459   4.994 -0.5934 -0.0677 -0.6036
12325SOL    HW137818   1.145   1.441   5.085  0.2136 -0.8192 -0.9720
12325SOL    HW237819   1.054   1.528   5.002 -0.3067  0.1027  0.5321
12326SOL     OW37820   1.546   7.765   3.041  0.1436  0.7796 -0.2510
12326SOL    HW137821   1.535   7.812   3.124  3.3824 -0.9418  1.3850
12326SOL    HW237822   1.629   7.797   3.006 -0.5483  0.5552 -2.2314
12327SOL     OW37823   5.878   6.699   0.291  0.1381  0.1086  0.3644
12327SOL    HW137824   5.946   6.634   0.309  0.9396  0.4316 -1.2878
12327SOL    HW237825   5.802   6.668   0.340  1.2038 -0.7487  1.5450
12328SOL     OW37826   7.375   1.586   2.115  0.2679 -0.8861 -0.0646
12328SOL    HW137827   7.359   1.653   2.048 -0.9225 -1.4773 -0.4067
12328SOL    HW237828   7.421   1.633   2.185 -0.0234  0.1584 -0.5451
12329SOL     OW37829   0.127   7.690   4.197  0.2289  0.8100  0.0675
12329SOL    HW137830   0.082   7.617   4.240  0.4769  0.4044 -0.3581
12329SOL    HW237831   0.168   7.738   4.269  0.9732 -0.0852  0.2687
12330SOL     OW37832   3.652   2.463   1.662 -0.1639  0.1999  0.2483
12330SOL    HW137833   3.688   2.379   1.690  0.6247  1.6035  4.0130
12330SOL    HW237834   3.563   2.464   1.695 -1.1866 -0.1353 -2.2377
12331SOL     OW37835   4.575   5.348   6.805  0.5329 -0.7147  0.7216
12331SOL    HW137836   4.589   5.285   6.734  0.0479  0.0750 -0.0876
12331SOL    HW237837   4.663   5.367   6.837  0.7298 -1.3423  0.5612
12332SOL     OW37838   3.280   6.107   6.864  0.0135  0.0242  0.1675
12332SOL    HW137839   3.311   6.022   6.897  4.4681  0.7900 -1.3087
12332SOL    HW237840   3.249   6.153   6.942  0.2211 -1.9138  1.4631
12333SOL     OW37841   2.104   0.123   8.027  0.4157 -0.1289  0.1348
12333SOL    HW137842   2.132   0.151   7.940  1.7873  1.0583  0.9112
12333SOL    HW237843   2.011   0.145   8.031  0.8401  1.9852 -0.2530
12334SOL     OW37844   6.010   5.416   6.849  0.3666 -0.3870 -0.1602
12334SOL    HW137845   5.983   5.391   6.937  2.6175 -0.1579  0.6854
12334SOL    HW237846   6.058   5.498   6.862 -1.0211  0.7634 -1.9244
12335SOL     OW37847   6.092   7.311   5.497  0.0625  0.0625 -0.3068
12335SOL    HW137848   5.999   7.316   5.520  0.0265  0.8835 -0.6089
12335SOL    HW237849   6.093   7.267   5.412 -0.1585  1.2953 -0.9555
12336SOL     OW37850   2.959   1.883   8.107  0.1651  0.2663 -0.1172
12336SOL    HW137851   3.048   1.854   8.087  0.5313  0.8039  0.6723
12336SOL    HW237852   2.971   1.954   8.170 -0.7130  1.6903 -1.4800
12337SOL     OW37853   6.677   0.990   6.142  0.1509 -0.0337  0.0127
12337SOL    HW137854   6.646   1.026   6.059  0.4235 -0.1670 -0.1494
12337SOL    HW237855   6.615   1.022   6.207  0.8181  1.3869 -0.0100
12338SOL     OW37856   2.854   5.266   5.457 -0.2058 -0.1750 -0.0875
12338SOL    HW137857   2.904   5.325   5.401  0.1959 -1.3727 -1.0386
12338SOL    HW237858   2.898   5.181   5.449  0.5243 -0.2085  2.8996
12339SOL     OW37859   0.689   4.427   2.517 -0.3961 -0.1889 -0.2357
12339SOL    HW137860   0.774   4.396   2.547  0.6181 -1.6823 -4.0448
12339SOL    HW237861   0.628   4.357   2.542  0.0077 -0.3868  0.1985
12340SOL     OW37862   5.143   0.636   4.443  0.2834 -0.1110 -0.4564
12340SOL    HW137863   5.172   0.638   4.535  0.6300  0.8607 -0.5754
12340SOL    HW237864   5.055   0.674   4.445 -0.0374 -0.8216 -0.4348
12341SOL     OW37865   0.523   0.824   5.872 -0.3371  0.0994 -0.0310
12341SOL    HW137866   0.447   0.872   5.907 -2.6917 -3.3565  0.0365
12341SOL    HW237867   0.562   0.782   5.948 -0.3223 -0.7275 -0.4927
12342SOL     OW37868   5.144   6.793   7.272 -0.0334  0.3371 -0.6197
12342SOL    HW137869   5.119   6.860   7.336  1.5886  1.3137 -0.9585
12342SOL    HW237870   5.066   6.738   7.263  0.0403 -0.5752  3.0408
12343SOL     OW37871   3.595   4.302   1.092 -0.5007 -0.1207  0.3565
12343SOL    HW137872   3.588   4.384   1.044 -0.1226  1.0493  2.2099
12343SOL    HW237873   3.668   4.256   1.050 -0.6645  0.5090 -0.6467
12344SOL     OW37874   0.931   1.548   4.576 -0.5553  0.1049 -0.0416
12344SOL    HW137875   0.973   1.562   4.661  1.4259  0.0923 -0.9757
12344SOL    HW237876   0.971   1.469   4.541 -0.9086  0.4358 -1.2508
12345SOL     OW37877   1.989   6.031   4.758 -0.2658  0.1664 -0.1241
12345SOL    HW137878   1.960   5.944   4.786 -1.3994  1.2736  2.4725
12345SOL    HW237879   2.084   6.024   4.754 -0.3290 -1.1326  0.2479
12346SOL     OW37880   1.897   3.127   3.535  0.0732  0.0398 -0.6107
12346SOL    HW137881   1.913   3.219   3.555 -0.4853  0.2673 -1.1640
12346SOL    HW237882   1.942   3.112   3.452  1.6637 -0.6714  0.3317
12347SOL     OW37883   4.567   4.224   3.179 -0.0555 -0.6598  0.8339
12347SOL    HW137884   4.600   4.260   3.261  0.4778  0.6380  0.0716
12347SOL    HW237885   4.505   4.290   3.147 -0.0724 -1.0424  0.0669
12348SOL     OW37886   3.644   5.743   3.256 -0.0012 -0.1572 -0.2416
12348SOL    HW137887   3.715   5.807   3.246 -0.5639  0.4839 -0.2253
12348SOL    HW237888   3.580   5.787   3.311 -0.2128 -0.9053  0.1200
12349SOL     OW37889   4.046   5.579   1.007  0.0187  0.0050  0.2457
12349SOL    HW137890   4.132   5.602   1.044 -0.0274 -0.0999  0.4212
12349SOL    HW237891   4.040   5.631   0.927  0.7803 -0.9322 -0.4313
12350SOL     OW37892   4.994   7.621   0.049  0.1974  0.2096  0.2495
12350SOL    HW137893   4.915   7.657   0.088 -0.2744 -1.3199  0.7702
12350SOL    HW237894   4.999   7.532   0.082  2.0367  0.2030  0.0589
12351SOL     OW37895   0.033   6.617   0.147  0.3354  0.5562 -0.5004
12351SOL    HW137896   0.065   6.562   0.075 -1.0983  1.0875 -1.6050
12351SOL    HW237897  -0.029   6.561   0.194 -1.5188  1.2789 -1.9330
12352SOL     OW37898   3.491   2.526   6.826 -0.4157 -0.2188  0.6194
12352SOL    HW137899   3.562   2.590   6.831 -0.3907 -0.2826  1.1291
12352SOL    HW237900   3.521   2.460   6.763 -0.5173  0.3576 -0.0503
12353SOL     OW37901   1.259   4.197   3.377 -0.0147  0.1431  0.2747
12353SOL    HW137902   1.298   4.141   3.444  2.4345 -1.6415 -2.4213
12353SOL    HW237903   1.321   4.269   3.367 -0.3171  0.3537 -0.1347
12354SOL     OW37904   3.969   3.408   4.760  0.5992 -0.0537 -0.8217
12354SOL    HW137905   3.934   3.408   4.849  1.1067 -2.1056 -0.5746
12354SOL    HW237906   3.901   3.449   4.707 -1.2039 -1.8154  0.0031
12355SOL     OW37907   5.516   5.450   0.848 -0.2722  0.0741  0.0197
12355SOL    HW137908   5.493   5.430   0.939  1.1015  0.8559  0.5667
12355SOL    HW237909   5.494   5.370   0.800 -0.6055 -0.5117  1.1054
12356SOL     OW37910   6.360   5.038   2.831 -0.0017  0.7102  0.2475
12356SOL    HW137911   6.411   4.958   2.816  1.4844  1.5986  0.2651
12356SOL    HW237912   6.294   5.038   2.762  2.5707  1.4583 -2.4056
12357SOL     OW37913   0.130   3.233   6.691  0.3146  0.3201  0.0284
12357SOL    HW137914   0.151   3.192   6.775 -1.1079  1.1062  0.7880
12357SOL    HW237915   0.035   3.243   6.691  0.0945 -0.8602 -2.2519
12358SOL     OW37916   3.951   0.834   1.605  0.1368  0.2995 -0.0956
12358SOL    HW137917   3.903   0.878   1.676 -1.8233  0.5154 -1.4534
12358SOL    HW237918   4.028   0.798   1.647 -0.1068  1.8225  1.8228
12359SOL     OW37919   0.816   3.765   0.239 -0.2207 -0.3409  0.2354
12359SOL    HW137920   0.733   3.718   0.248 -0.0764 -0.3641  1.7165
12359SOL    HW237921   0.862   3.748   0.321  1.2447 -0.2925 -0.5395
12360SOL     OW37922   1.978   0.075   6.200 -0.3200  0.0513 -0.0356
12360SOL    HW137923   1.949   0.164   6.179  1.6513  1.2514  1.8808
12360SOL    HW237924   2.073   0.082   6.204 -0.1998 -1.8316  1.5338
12361SOL     OW37925   0.606   5.472   7.469  0.1240 -0.3929 -0.2751
12361SOL    HW137926   0.621   5.498   7.560 -0.0097 -0.5791 -0.1988
12361SOL    HW237927   0.630   5.549   7.417 -1.0419  0.1657 -0.0044
12362SOL     OW37928   5.506   4.300   2.528  0.2060 -0.3422  0.6554
12362SOL    HW137929   5.428   4.323   2.478 -0.1383  2.0082  2.1121
12362SOL    HW237930   5.511   4.367   2.596  1.5403 -2.4746  2.7839
12363SOL     OW37931   4.119   5.769   6.886  0.1860  0.1524  0.2185
12363SOL    HW137932   4.152   5.687   6.922  0.1749 -0.8783 -1.9891
12363SOL    HW237933   4.125   5.758   6.791  0.6855  2.9228 -0.1496
12364SOL     OW37934   6.827   4.098   2.082 -0.5417 -0.0169 -0.2136
12364SOL    HW137935   6.897   4.033   2.088 -0.4761  0.0283 -0.4714
12364SOL    HW237936   6.753   4.059   2.128 -0.0217  0.3699  0.9963
12365SOL     OW37937   3.832   6.951   6.151 -0.1391  0.2113  0.1234
12365SOL    HW137938   3.841   7.019   6.218 -1.0951 -1.5050  2.1046
12365SOL    HW237939   3.904   6.890   6.169  1.0608  0.8984 -1.9940
12366SOL     OW37940   0.914   2.357   3.935 -0.3927 -0.5720  0.2082
12366SOL    HW137941   0.912   2.320   4.023 -0.1629 -1.8486 -0.3129
12366SOL    HW237942   0.997   2.328   3.899  0.4968  1.6683  0.2689
12367SOL     OW37943   7.608   5.923   6.450  0.1014 -1.2304 -0.4309
12367SOL    HW137944   7.614   5.970   6.366 -0.8372  1.7012  0.9971
12367SOL    HW237945   7.692   5.939   6.492 -0.4861 -0.1147  0.3700
12368SOL     OW37946   2.319   2.112   7.182  1.0479 -0.6300  0.2983
12368SOL    HW137947   2.292   2.039   7.125  1.1089 -0.4629  0.0564
12368SOL    HW237948   2.243   2.171   7.183  2.1872  1.0249 -2.2747
12369SOL     OW37949   2.430   7.489   5.465  0.0884 -0.3922  0.6393
12369SOL    HW137950   2.508   7.528   5.505 -0.0017 -0.5347  0.9502
12369SOL    HW237951   2.457   7.400   5.442  0.5972  0.1371 -0.9448
12370SOL     OW37952   6.649   6.404   0.572 -0.1074 -0.1070  0.1714
12370SOL    HW137953   6.633   6.471   0.506  0.0981 -1.0873 -0.9003
12370SOL    HW237954   6.599   6.328   0.543 -0.4330 -0.4005  1.4267
12371SOL     OW37955   7.509   6.368   3.631 -0.0552 -0.2888 -0.8335
12371SOL    HW137956   7.418   6.340   3.641 -0.4794  0.8318 -1.4169
12371SOL    HW237957   7.527   6.359   3.538 -0.3805  1.8283 -1.1322
12372SOL     OW37958   4.082   5.955   7.564  0.3687 -0.1005 -0.1986
12372SOL    HW137959   4.013   5.891   7.547  1.4237 -1.9118  1.8331
12372SOL    HW237960   4.042   6.040   7.544 -2.1700 -1.1392  0.1270
12373SOL     OW37961   3.636   0.019   1.948  0.0057  0.1995 -0.1394
12373SOL    HW137962   3.658   0.108   1.975 -2.6726  0.7987  0.3327
12373SOL    HW237963   3.713  -0.010   1.899  1.8843  1.9042  1.5803
12374SOL     OW37964   5.220   6.679   2.661 -0.3752 -0.2057 -0.2698
12374SOL    HW137965   5.240   6.708   2.572  1.8536  1.6345  0.7276
12374SOL    HW237966   5.126   6.692   2.670 -0.1908  2.6398 -1.3892
12375SOL     OW37967   6.865   3.758   4.090  0.2698 -0.3693  0.5231
12375SOL    HW137968   6.774   3.730   4.097 -0.4959  1.1797 -1.8828
12375SOL    HW237969   6.866   3.847   4.127  1.3495 -1.1382  2.5258
12376SOL     OW37970   2.396   7.705   7.235  0.5420  0.7792  0.4056
12376SOL    HW137971   2.360   7.763   7.303 -1.0857  0.3401 -0.0444
12376SOL    HW237972   2.322   7.651   7.208  1.1957  0.8477 -1.6399
12377SOL     OW37973   2.963   1.231   1.558 -0.2665 -0.1885 -0.3121
12377SOL    HW137974   3.018   1.256   1.632  0.5385 -1.7095 -0.3496
12377SOL    HW237975   2.889   1.291   1.562  1.0674  1.5027  0.1142
12378SOL     OW37976   1.149   1.082   2.908 -0.1253  0.2366  0.3737
12378SOL    HW137977   1.123   1.142   2.977  1.1613 -0.4825  1.5463
12378SOL    HW237978   1.132   1.130   2.826 -2.4207  0.7941  1.1215
12379SOL     OW37979   1.022   3.205   1.022  0.1091  0.3839  0.0836
12379SOL    HW137980   0.992   3.122   0.985 -0.3783 -0.1709  1.6255
12379SOL    HW237981   0.960   3.224   1.092  0.7197  1.6125  0.3304
12380SOL     OW37982   1.264   6.785   3.701 -0.0470 -0.2327  0.7473
12380SOL    HW137983   1.172   6.760   3.699 -0.2892  0.6009  1.1114
12380SOL    HW237984   1.308   6.709   3.739  0.0481 -2.3611 -3.1335
12381SOL     OW37985   0.694   3.385   5.894  0.2968  0.2363  0.3648
12381SOL    HW137986   0.626   3.363   5.958 -0.0248  3.2900  1.2533
12381SOL    HW237987   0.770   3.408   5.947  0.3106  1.9272 -0.3106
12382SOL     OW37988   3.855   5.077   3.594 -0.2471 -0.1082  0.6014
12382SOL    HW137989   3.821   5.085   3.683  0.6210 -0.1913  0.9502
12382SOL    HW237990   3.800   5.010   3.553 -1.9903  1.3882  0.3907
12383SOL     OW37991   1.071   0.188   3.259  0.0700  0.3301  0.1155
12383SOL    HW137992   1.098   0.213   3.347  1.0959  1.6182 -0.5233
12383SOL    HW237993   1.152   0.171   3.212 -0.4462 -0.0592 -0.6717
12384SOL     OW37994   7.331   7.377   0.402  0.1213  0.0378  0.4199
12384SOL    HW137995   7.266   7.349   0.466 -0.8810  2.1111  0.3995
12384SOL    HW237996   7.414   7.378   0.450 -0.0425 -1.4756  0.7719
12385SOL     OW37997   8.044   5.604   4.173  0.3829  0.0602  0.1766
12385SOL    HW137998   8.079   5.684   4.213  1.1719  0.6238 -1.5581
12385SOL    HW237999   8.004   5.557   4.246  2.7796  0.4557  1.8905
12386SOL     OW38000   3.515   4.005   1.215  0.1129  0.3335 -0.1256
12386SOL    HW138001   3.539   3.977   1.126 -1.0330 -0.7469 -0.1249
12386SOL    HW238002   3.595   4.045   1.250  0.5910  0.7770 -1.6311
12387SOL     OW38003   1.000   1.788   0.507 -0.5586 -0.6868  0.5664
12387SOL    HW138004   0.917   1.836   0.497 -0.5364 -0.8627 -0.6272
12387SOL    HW238005   1.039   1.825   0.586 -1.6849 -0.4697  1.0458
12388SOL     OW38006   7.815   2.143   8.200  0.4505 -0.2921  0.1866
12388SOL    HW138007   7.799   2.233   8.230  1.3195  0.3863 -1.2684
12388SOL    HW238008   7.895   2.117   8.245 -0.2164 -0.6567  1.2071
12389SOL     OW38009   6.827   8.106   3.997  0.3901  0.6381  0.1528
12389SOL    HW138010   6.872   8.037   3.949 -0.1233  0.0178  0.5348
12389SOL    HW238011   6.886   8.129   4.068  0.8355  1.0401 -0.3443
12390SOL     OW38012   1.168   4.163   8.059 -0.3060  0.1986 -0.0903
12390SOL    HW138013   1.130   4.152   8.145  1.1307  0.8001  0.6652
12390SOL    HW238014   1.224   4.086   8.046  1.0785  1.0660  0.4372
12391SOL     OW38015   7.702   3.492   5.743 -0.0735 -0.1020  0.3405
12391SOL    HW138016   7.638   3.460   5.680 -0.1195 -1.7576  1.1896
12391SOL    HW238017   7.763   3.419   5.754  0.8636  0.7532  0.9985
12392SOL     OW38018   7.088   7.060   2.039 -0.5497  0.0239  0.4550
12392SOL    HW138019   7.160   7.080   2.100 -1.1022 -0.3711  1.2649
12392SOL    HW238020   7.105   6.971   2.009 -0.7944 -0.1455  0.8038
12393SOL     OW38021   2.712   4.553   2.300  0.4708  0.7785  0.1271
12393SOL    HW138022   2.736   4.634   2.255 -2.6113  1.4311 -0.5739
12393SOL    HW238023   2.618   4.544   2.284  1.1515 -5.1626 -3.5870
12394SOL     OW38024   7.253   0.362   1.336  0.5770 -0.1843  0.4807
12394SOL    HW138025   7.163   0.329   1.332 -0.1621  1.7544 -1.6024
12394SOL    HW238026   7.305   0.296   1.290 -0.4994  0.4086 -1.7421
12395SOL     OW38027   4.846   3.642   2.438  0.4330  0.1942 -0.0705
12395SOL    HW138028   4.922   3.653   2.380  0.4676 -0.1732 -0.1008
12395SOL    HW238029   4.776   3.691   2.395  0.3462 -0.4099 -0.6521
12396SOL     OW38030   7.996   6.292   1.679  0.2169 -0.0875 -0.2639
12396SOL    HW138031   7.977   6.255   1.593 -2.0518  0.8928 -0.2455
12396SOL    HW238032   7.935   6.365   1.688  1.3291  0.6818  1.6467
12397SOL     OW38033   5.126   4.910   2.627  0.2321 -0.5912  0.1069
12397SOL    HW138034   5.171   4.837   2.583 -1.3844 -1.2071 -0.6207
12397SOL    HW238035   5.141   4.895   2.720  1.3975 -0.8576 -0.1131
12398SOL     OW38036   5.211   6.750   0.317 -0.0931 -0.3137  0.0321
12398SOL    HW138037   5.140   6.727   0.258  0.1437  0.6214 -0.6412
12398SOL    HW238038   5.187   6.836   0.352  0.2890 -0.3745  0.4586
12399SOL     OW38039   1.423   1.845   5.416  0.2297 -0.7693  0.4016
12399SOL    HW138040   1.440   1.855   5.510  0.1445 -1.5127  0.5054
12399SOL    HW238041   1.493   1.895   5.374  1.1432 -1.6093  0.8559
12400SOL     OW38042   3.569   1.701   5.599 -0.0768  0.5205 -0.3389
12400SOL    HW138043   3.559   1.793   5.625  1.9329  0.3914  1.1626
12400SOL    HW238044   3.664   1.687   5.599 -0.2618 -1.2025 -1.9528
12401SOL     OW38045   4.169   5.556   7.338 -0.5536 -0.8175 -0.1740
12401SOL    HW138046   4.088   5.536   7.384  0.3215 -1.1634  1.3007
12401SOL    HW238047   4.177   5.652   7.344 -0.6232 -0.8280  0.0922
12402SOL     OW38048   4.781   5.263   7.751 -0.3006 -0.4938  0.0737
12402SOL    HW138049   4.688   5.252   7.772 -0.1168  1.3097  2.2541
12402SOL    HW238050   4.825   5.254   7.836  1.3787  0.0170 -0.7153
12403SOL     OW38051   3.931   2.152   7.615 -0.1011  0.0988 -0.1989
12403SOL    HW138052   3.847   2.107   7.629 -0.8665  1.5314 -0.0675
12403SOL    HW238053   3.909   2.245   7.615  0.7287  0.5144 -4.4780
12404SOL     OW38054   1.123   0.429   7.091 -0.4199  0.0637 -0.3892
12404SOL    HW138055   1.119   0.449   6.998 -3.6654 -2.3116 -0.9361
12404SOL    HW238056   1.059   0.488   7.131  2.5196  2.6692  0.8694
12405SOL     OW38057   6.953   2.970   2.320  0.3102  0.0612  0.1375
12405SOL    HW138058   6.980   3.021   2.397  1.5873  3.4774 -2.3403
12405SOL    HW238059   7.033   2.926   2.291 -0.0491 -0.7911  0.3973
12406SOL     OW38060   3.679   3.847   5.359 -0.6363 -0.0331 -0.5908
12406SOL    HW138061   3.754   3.868   5.415 -0.3006  0.2856 -1.1550
12406SOL    HW238062   3.622   3.795   5.415 -0.0930 -0.1024 -0.0874
12407SOL     OW38063   6.605   7.257   3.035 -0.1643  0.3021 -0.2446
12407SOL    HW138064   6.696   7.226   3.035 -0.8711 -1.9805  0.5622
12407SOL    HW238065   6.603   7.325   3.103  0.8308  0.0471  0.0573
12408SOL     OW38066   3.870   3.112   2.842 -0.4839  0.5946  0.1518
12408SOL    HW138067   3.921   3.184   2.878 -0.3972  1.0136 -0.7840
12408SOL    HW238068   3.934   3.059   2.793 -0.8681  0.9325 -0.7371
12409SOL     OW38069   2.638   6.744   1.083 -0.1432 -0.1016  0.4786
12409SOL    HW138070   2.556   6.786   1.108 -0.5739 -0.3589 -0.4481
12409SOL    HW238071   2.615   6.688   1.009  1.5869  3.3371 -3.0710
12410SOL     OW38072   3.628   3.774   4.208  0.0272 -0.3837 -0.1507
12410SOL    HW138073   3.618   3.679   4.217  0.1896 -0.7387 -2.9593
12410SOL    HW238074   3.700   3.785   4.147 -0.8633  1.5093 -0.9370
12411SOL     OW38075   7.946   4.267   4.229  0.2937 -0.3679  0.1791
12411SOL    HW138076   8.013   4.209   4.264  0.9682 -0.4236 -1.1517
12411SOL    HW238077   7.866   4.242   4.275  1.1539 -0.3097  1.7710
12412SOL     OW38078   2.972   0.515   5.471 -0.2602  0.3181 -0.2839
12412SOL    HW138079   2.922   0.438   5.495  1.0712 -1.1776 -2.0332
12412SOL    HW238080   3.012   0.545   5.553 -0.6118 -0.9680  0.3748
12413SOL     OW38081   3.093   5.994   6.403  0.0473  0.4995 -0.4727
12413SOL    HW138082   3.089   5.936   6.479 -1.5905  0.7446 -0.3442
12413SOL    HW238083   3.036   6.068   6.426  0.2346  1.0093 -1.5798
12414SOL     OW38084   1.885   2.296   7.822  0.7848 -0.3819 -0.7455
12414SOL    HW138085   1.798   2.327   7.797  1.5690  2.4022 -0.3540
12414SOL    HW238086   1.869   2.221   7.879 -1.3873  0.3399 -0.3163
12415SOL     OW38087   4.601   4.759   0.419  0.1384 -0.0377  0.3604
12415SOL    HW138088   4.566   4.777   0.506 -2.6809  0.6772 -0.8095
12415SOL    HW238089   4.620   4.846   0.382  1.0637 -0.3204  0.1331
12416SOL     OW38090   2.796   2.416   5.404  0.0677  0.0016  0.2776
12416SOL    HW138091   2.811   2.442   5.494 -2.2179 -1.8272  1.3033
12416SOL    HW238092   2.701   2.420   5.393  0.2789  0.2215 -2.0892
12417SOL     OW38093   7.391   5.885   6.648 -0.6226  0.0588 -0.2767
12417SOL    HW138094   7.455   5.918   6.585 -0.7291 -2.7733 -2.0707
12417SOL    HW238095   7.440   5.876   6.729  1.1763 -1.4541 -1.4442
12418SOL     OW38096   4.836   6.988   3.691  0.1852 -0.4381 -0.4680
12418SOL    HW138097   4.849   7.051   3.762  0.3121 -0.4862 -0.4483
12418SOL    HW238098   4.820   6.905   3.735 -0.4758 -0.3263 -0.4890
12419SOL     OW38099   4.106   3.504   3.255  0.5840 -0.4477 -0.2458
12419SOL    HW138100   4.107   3.409   3.262  1.4292 -0.5392 -1.4601
12419SOL    HW238101   4.113   3.535   3.346 -0.9465 -1.5115  0.2825
12420SOL     OW38102   1.390   5.714   0.515 -0.6901 -0.0044 -0.5167
12420SOL    HW138103   1.347   5.678   0.438  0.5532 -2.2266 -0.2447
12420SOL    HW238104   1.345   5.673   0.589 -1.5425  1.7292 -0.0124
12421SOL     OW38105   1.387   0.649   4.483  0.2404  0.0459  0.2209
12421SOL    HW138106   1.466   0.645   4.537  0.1736  1.4767  0.4621
12421SOL    HW238107   1.320   0.685   4.542 -0.3284 -0.2068 -0.2661
12422SOL     OW38108   4.497   5.869   6.957 -0.5305  0.3239  0.4702
12422SOL    HW138109   4.491   5.938   6.891  0.0419  1.2059  1.3253
12422SOL    HW238110   4.487   5.788   6.907 -0.2357  0.9732 -0.6818
12423SOL     OW38111   0.715   1.923   2.891  0.1902 -0.0835  0.1682
12423SOL    HW138112   0.622   1.947   2.898 -0.2540 -1.5485 -0.3391
12423SOL    HW238113   0.720   1.836   2.932  1.1329 -0.4652 -0.7312
12424SOL     OW38114   6.494   6.526   4.467  0.2119 -0.1878  0.0548
12424SOL    HW138115   6.512   6.445   4.514  0.7801  0.5510  1.1725
12424SOL    HW238116   6.409   6.555   4.500 -0.9817 -1.3477 -1.8629
12425SOL     OW38117   0.619   6.568   4.966 -0.7364  0.1590  0.2362
12425SOL    HW138118   0.531   6.533   4.975 -0.7214  0.0282 -0.1193
12425SOL    HW238119   0.607   6.654   4.926 -0.7391  0.3731  0.6859
12426SOL     OW38120   1.411   7.645   2.635  0.0953  0.6020  0.1659
12426SOL    HW138121   1.390   7.699   2.712  3.0764  0.5822  1.0985
12426SOL    HW238122   1.457   7.704   2.576 -0.4133  0.1101 -0.7368
12427SOL     OW38123   1.629   2.508   1.474 -1.2530  0.0867  0.3779
12427SOL    HW138124   1.584   2.440   1.524 -2.4305  1.2062  0.8916
12427SOL    HW238125   1.720   2.503   1.505 -1.5576 -0.5074  1.2218
12428SOL     OW38126   6.064   3.595   3.756 -0.3970  0.6805  0.0139
12428SOL    HW138127   6.021   3.516   3.788 -1.1022  0.0833 -2.2575
12428SOL    HW238128   6.002   3.634   3.695  1.3872  0.9673 -1.7265
12429SOL     OW38129   0.137   1.887   1.990 -0.7270  0.4273  0.0843
12429SOL    HW138130   0.068   1.838   2.033 -0.8622  0.5518  0.0104
12429SOL    HW238131   0.093   1.933   1.918 -1.2587  3.1643  2.0151
12430SOL     OW38132   1.083   0.870   1.192  0.5035  0.2103 -0.6737
12430SOL    HW138133   1.144   0.901   1.259  1.3082 -0.3404 -1.1304
12430SOL    HW238134   1.138   0.855   1.115 -0.3043  0.2177 -1.2685
12431SOL     OW38135   7.195   5.287   3.373 -0.5852 -0.0087  0.4137
12431SOL    HW138136   7.181   5.252   3.461 -0.1901  2.4329  1.5178
12431SOL    HW238137   7.115   5.336   3.354  0.0534  0.9708  0.1941
12432SOL     OW38138   3.973   7.742   0.042 -1.1413  0.0587  0.3161
12432SOL    HW138139   3.915   7.712  -0.029 -1.4222  3.0292 -0.8531
12432SOL    HW238140   4.037   7.671   0.052 -2.4054 -1.4270 -1.3474
12433SOL     OW38141   3.634   3.895   6.168  0.1508  0.1828  0.0735
12433SOL    HW138142   3.572   3.965   6.147  0.1105 -0.2290 -1.2508
12433SOL    HW238143   3.707   3.908   6.107 -0.6969 -2.0129 -1.5337
12434SOL     OW38144   7.252   0.007   2.973 -0.3045  0.6519 -0.0754
12434SOL    HW138145   7.204   0.001   2.890 -0.5236  0.6932  0.0477
12434SOL    HW238146   7.185   0.002   3.040 -0.0708 -0.0064  0.1159
12435SOL     OW38147   5.783   0.732   6.984 -0.1755  0.1501  0.0068
12435SOL    HW138148   5.795   0.821   6.950 -1.3345  0.0152 -0.8094
12435SOL    HW238149   5.869   0.707   7.016  0.4367  1.1329 -0.8132
12436SOL     OW38150   4.369   3.217   5.728  0.1245 -0.2279 -0.0179
12436SOL    HW138151   4.399   3.250   5.643 -0.4941 -0.7641 -0.4622
12436SOL    HW238152   4.286   3.262   5.743  0.4103  0.1395  0.4851
12437SOL     OW38153   3.157   7.532   5.003 -0.1470 -0.0879  0.1767
12437SOL    HW138154   3.164   7.447   5.046  0.9674 -0.0068  0.1976
12437SOL    HW238155   3.117   7.513   4.918 -1.3247 -0.4003  0.7881
12438SOL     OW38156   0.459   0.830   3.920 -0.3916  0.6186  0.0035
12438SOL    HW138157   0.520   0.804   3.851  0.2264 -0.0349  0.7704
12438SOL    HW238158   0.373   0.808   3.885 -0.1510  0.9980 -0.8594
12439SOL     OW38159   6.711   7.671   6.306  0.2144 -0.0557  0.0893
12439SOL    HW138160   6.655   7.717   6.369  0.3584 -0.7632  0.7553
12439SOL    HW238161   6.665   7.679   6.222 -0.2148  0.5050  0.3675
12440SOL     OW38162   1.598   6.134   1.468 -0.2147 -0.3915  0.5965
12440SOL    HW138163   1.688   6.111   1.445  0.9489  1.3379  3.0116
12440SOL    HW238164   1.583   6.217   1.423 -0.4869 -0.5157  0.4595
12441SOL     OW38165   1.839   0.797   7.655  0.5284 -1.0420  0.3858
12441SOL    HW138166   1.780   0.725   7.677  1.3571 -1.2005  2.2905
12441SOL    HW238167   1.896   0.761   7.588 -0.6927 -1.2891 -0.5610
12442SOL     OW38168   2.982   7.128   3.074  0.0210 -0.4088 -0.1897
12442SOL    HW138169   3.007   7.036   3.061  0.4291 -0.5234  1.2926
12442SOL    HW238170   2.899   7.124   3.121 -0.1490 -0.0136 -0.4526
12443SOL     OW38171   1.873   0.585   4.416 -0.2620 -0.6238 -0.1621
12443SOL    HW138172   1.822   0.504   4.415  0.5254 -1.1357  0.0190
12443SOL    HW238173   1.892   0.603   4.324 -2.7663  0.8984 -0.4722
12444SOL     OW38174   0.253   7.132   0.667 -0.3077 -0.3383 -0.0862
12444SOL    HW138175   0.321   7.074   0.700  0.4917 -0.0507 -1.1802
12444SOL    HW238176   0.298   7.189   0.604 -1.1790  1.0779  0.5047
12445SOL     OW38177   4.989   7.774   8.049  0.2329  0.1630  0.1743
12445SOL    HW138178   4.909   7.748   8.095 -0.4268  0.0891 -0.9971
12445SOL    HW238179   5.056   7.715   8.084 -1.0761 -2.8399 -1.9088
12446SOL     OW38180   3.517   1.999   3.768 -0.3085  0.4734  0.6681
12446SOL    HW138181   3.496   1.921   3.820 -0.2770  1.5749  2.4253
12446SOL    HW238182   3.450   2.063   3.793 -0.6481  0.8638 -1.1438
12447SOL     OW38183   7.345   5.375   4.109  0.3701 -0.0331  0.1373
12447SOL    HW138184   7.389   5.430   4.173  0.0225 -0.7636  1.0154
12447SOL    HW238185   7.345   5.288   4.147 -1.8647 -0.0657  0.2064
12448SOL     OW38186   0.982   5.439   1.640 -0.1678 -0.1161  0.3179
12448SOL    HW138187   0.898   5.480   1.660  1.0627  1.6111  2.2719
12448SOL    HW238188   1.016   5.409   1.724  0.6427 -1.9209 -0.5942
12449SOL     OW38189   2.864   1.554   5.559 -0.5952 -0.7129 -0.0810
12449SOL    HW138190   2.808   1.552   5.637  0.1047 -1.0769  0.4127
12449SOL    HW238191   2.876   1.462   5.536 -2.0286 -0.5965 -1.5319
12450SOL     OW38192   5.616   3.291   2.115 -0.4109 -0.1848  0.1790
12450SOL    HW138193   5.678   3.360   2.093 -2.5160  1.2573 -1.7321
12450SOL    HW238194   5.659   3.210   2.086  1.3540  0.4877  0.7915
12451SOL     OW38195   5.434   3.318   4.064 -0.4656  0.0348 -0.4650
12451SOL    HW138196   5.430   3.274   4.149 -0.4776  0.8313 -0.0485
12451SOL    HW238197   5.406   3.408   4.082  0.4094  0.4552 -1.1368
12452SOL     OW38198   4.369   7.107   4.502 -0.5910 -0.0515 -0.3719
12452SOL    HW138199   4.354   7.069   4.588  0.6303 -1.5793 -0.7987
12452SOL    HW238200   4.448   7.160   4.512 -0.0354 -0.7977 -0.6902
12453SOL     OW38201   1.202   4.268   7.412 -0.4138 -0.4843 -0.0611
12453SOL    HW138202   1.202   4.345   7.469  1.7121  1.4522 -2.4466
12453SOL    HW238203   1.111   4.259   7.383 -0.9523  0.2280  1.3375
12454SOL     OW38204   3.560   1.318   3.058  0.3616 -0.2563 -0.4054
12454SOL    HW138205   3.512   1.361   3.129  0.2609 -0.5972 -0.2683
12454SOL    HW238206   3.517   1.233   3.047 -0.1535  0.1198 -1.4382
12455SOL     OW38207   2.352   6.985   0.342  0.3323  0.4791  0.2666
12455SOL    HW138208   2.353   6.891   0.359  0.7479  0.4350  0.0189
12455SOL    HW238209   2.378   7.025   0.425 -0.6911  0.4250  0.6280
12456SOL     OW38210   4.572   0.650   5.645  0.0388  0.3889  0.1577
12456SOL    HW138211   4.516   0.688   5.577 -0.6984  0.8294  0.9826
12456SOL    HW238212   4.606   0.570   5.606  1.4101  1.6955 -1.5424
12457SOL     OW38213   6.222   6.781   1.554  0.1333  0.2808 -0.0200
12457SOL    HW138214   6.199   6.720   1.625  1.5124 -1.0143 -0.6221
12457SOL    HW238215   6.160   6.760   1.484  0.9935 -0.9335 -0.4599
12458SOL     OW38216   3.032   5.709   3.894  0.5930  0.4331 -0.2822
12458SOL    HW138217   3.109   5.690   3.841  0.4346  1.3851 -0.8740
12458SOL    HW238218   2.999   5.623   3.921  2.4262  0.0204  0.8225
12459SOL     OW38219   7.711   8.017   1.873  0.1189 -0.6744 -0.0999
12459SOL    HW138220   7.651   8.084   1.841 -0.4541 -1.3334 -0.4105
12459SOL    HW238221   7.798   8.056   1.859 -0.1784 -0.2766 -0.9220
12460SOL     OW38222   2.500   1.958   7.902  0.2905 -0.4340  0.3006
12460SOL    HW138223   2.579   2.011   7.898  0.3929 -0.3098  2.5280
12460SOL    HW238224   2.515   1.898   7.975 -0.5178 -2.4016 -1.0571
12461SOL     OW38225   8.172   0.895   5.724 -0.0666  0.0018  0.0761
12461SOL    HW138226   8.204   0.960   5.787  0.7235  0.9031 -1.2050
12461SOL    HW238227   8.077   0.904   5.726 -0.0919 -0.2596  1.3894
12462SOL     OW38228   3.418   5.613   5.872 -0.3880  0.0985  0.7092
12462SOL    HW138229   3.323   5.617   5.858  0.0337 -0.5729 -4.0122
12462SOL    HW238230   3.439   5.520   5.861  0.8675  0.1989  1.9677
12463SOL     OW38231   3.322   0.574   0.551  0.2022 -0.0504  0.1543
12463SOL    HW138232   3.244   0.597   0.501 -0.5564 -1.6010  0.5750
12463SOL    HW238233   3.326   0.478   0.547  2.4396  0.0221 -0.3897
12464SOL     OW38234   0.799   6.468   6.770 -0.2164  0.3243 -0.7065
12464SOL    HW138235   0.795   6.471   6.865  1.5743  2.7255 -0.5990
12464SOL    HW238236   0.870   6.407   6.751 -1.5591 -1.3298 -0.6227
12465SOL     OW38237   1.615   1.526   7.321  0.2003 -0.2289  0.0430
12465SOL    HW138238   1.550   1.593   7.300  0.3754 -0.0442  0.0852
12465SOL    HW238239   1.597   1.455   7.260 -0.2114 -0.2862  0.2338
12466SOL     OW38240   7.188   3.304   7.138 -0.3652 -0.0133  0.4662
12466SOL    HW138241   7.223   3.301   7.049 -2.1319  0.6022 -0.3056
12466SOL    HW238242   7.172   3.398   7.154 -1.3967 -0.2376  0.8526
12467SOL     OW38243   5.075   8.139   2.854  0.2541 -0.1824  0.2317
12467SOL    HW138244   5.112   8.187   2.781  1.7977 -0.1360  0.9954
12467SOL    HW238245   5.125   8.169   2.930 -1.1210 -0.4229  1.2629
12468SOL     OW38246   1.758   5.671   4.559  0.4471  0.2568 -0.2583
12468SOL    HW138247   1.752   5.743   4.621 -0.1268  0.1731 -0.2088
12468SOL    HW238248   1.679   5.679   4.506  0.5349 -0.1538 -0.4532
12469SOL     OW38249   0.072   3.440   6.509 -0.0576 -0.0940  0.2193
12469SOL    HW138250   0.107   3.371   6.565 -0.8181 -1.4285 -0.8729
12469SOL    HW238251   0.117   3.519   6.537  0.6926 -0.9889  1.6616
12470SOL     OW38252   7.652   0.713   7.121  0.1610 -0.1428 -0.1104
12470SOL    HW138253   7.737   0.734   7.081 -0.5891  0.2224 -1.5878
12470SOL    HW238254   7.629   0.627   7.086  0.3358 -0.6761  1.0352
12471SOL     OW38255   2.830   4.865   7.645  0.5603 -0.2155  0.4131
12471SOL    HW138256   2.840   4.947   7.691 -2.0961  0.3022  0.2671
12471SOL    HW238257   2.868   4.881   7.558 -1.3475  1.4822 -0.1854
12472SOL     OW38258   1.474   8.122   8.144 -0.4641 -0.2297 -0.2819
12472SOL    HW138259   1.528   8.124   8.224 -0.4810 -1.4397 -0.2304
12472SOL    HW238260   1.487   8.208   8.105  0.6649 -0.1214  0.2915
12473SOL     OW38261   1.514   3.006   2.193  0.7549  0.0942 -0.8903
12473SOL    HW138262   1.570   2.951   2.249  0.9942  0.5022 -0.7191
12473SOL    HW238263   1.570   3.030   2.119  0.1814 -1.1337 -1.7541
12474SOL     OW38264   3.853   4.400   8.085 -0.0804  0.0944  0.7824
12474SOL    HW138265   3.834   4.349   8.007 -1.2256  1.0230  0.4183
12474SOL    HW238266   3.782   4.380   8.146  0.9518 -0.8429  1.7286
12475SOL     OW38267   1.972   6.805   3.073 -0.1329  0.2143  0.3915
12475SOL    HW138268   2.008   6.756   3.148  1.1577  0.5347  0.0038
12475SOL    HW238269   2.049   6.844   3.032 -1.1382  2.7206  0.7654
12476SOL     OW38270   7.799   2.217   2.741 -0.3217 -0.1008 -0.3799
12476SOL    HW138271   7.774   2.235   2.832  0.2153  0.1130 -0.2700
12476SOL    HW238272   7.784   2.301   2.696  0.5367  0.1397 -0.2341
12477SOL     OW38273   7.120   0.824   1.524  0.1973 -0.3406 -0.2310
12477SOL    HW138274   7.078   0.761   1.581 -4.5114  1.6004 -1.0454
12477SOL    HW238275   7.131   0.903   1.578 -1.7261  0.6230 -1.1357
12478SOL     OW38276   3.434   3.478   2.728 -0.1036  0.0686 -0.3594
12478SOL    HW138277   3.424   3.559   2.679 -1.1388  0.5671  0.6325
12478SOL    HW238278   3.352   3.431   2.714  0.8821 -1.3350 -1.7925
12479SOL     OW38279   7.994   4.717   3.276  0.4888 -0.2195 -0.8317
12479SOL    HW138280   7.959   4.629   3.265  0.3032  0.0070 -2.2347
12479SOL    HW238281   7.923   4.766   3.317  0.2666 -0.5054 -0.8702
12480SOL     OW38282   3.405   7.796   1.551  0.2722  0.1099 -0.4318
12480SOL    HW138283   3.310   7.804   1.541  0.1542 -0.7305 -0.0563
12480SOL    HW238284   3.429   7.867   1.611 -0.0614  0.5465 -0.8040
12481SOL     OW38285   3.095   5.911   7.174 -0.2092 -0.7368 -0.7600
12481SOL    HW138286   3.146   5.905   7.094  0.7802  0.5455 -0.2611
12481SOL    HW238287   3.155   5.949   7.238 -1.1477 -1.1955  0.4352
12482SOL     OW38288   1.668   5.742   1.458  0.5074 -0.0513 -0.4257
12482SOL    HW138289   1.642   5.814   1.516 -0.9763  0.4800 -1.6517
12482SOL    HW238290   1.743   5.777   1.410  0.0275  0.5598 -0.7507
12483SOL     OW38291   7.467   1.547   5.120 -0.8997 -0.0558 -0.9798
12483SOL    HW138292   7.442   1.632   5.156 -2.0128 -0.6412 -0.3209
12483SOL    HW238293   7.393   1.490   5.139 -0.1467 -1.2012 -1.3608
12484SOL     OW38294   2.575   5.430   4.936 -0.5661 -0.7411 -0.0253
12484SOL    HW138295   2.611   5.430   4.847 -0.5417  1.3042 -0.0659
12484SOL    HW238296   2.498   5.374   4.931  1.1315 -3.1589 -0.5536
12485SOL     OW38297   2.354   1.028   3.009 -0.2723 -0.5980  0.8084
12485SOL    HW138298   2.330   1.080   2.932 -1.1742 -1.0632  0.7660
12485SOL    HW238299   2.427   1.076   3.048 -1.9667  1.5094  1.5906
12486SOL     OW38300   6.308   3.191   5.117  0.0059  0.1259 -0.1260
12486SOL    HW138301   6.360   3.251   5.064 -1.9805  1.7697 -0.3483
12486SOL    HW238302   6.283   3.121   5.056  1.1830 -0.2160 -0.2350
12487SOL     OW38303   1.248   5.474   2.154 -0.0873 -0.1680  0.2028
12487SOL    HW138304   1.220   5.384   2.170  0.9918 -0.6945 -0.7351
12487SOL    HW238305   1.196   5.526   2.215 -3.0530 -1.0444 -1.3743
12488SOL     OW38306   8.169   0.144   5.766  0.3305  0.1880 -0.4899
12488SOL    HW138307   8.166   0.127   5.860 -2.4342  0.0678 -0.5097
12488SOL    HW238308   8.255   0.183   5.751  0.0832  2.1612  2.4606
12489SOL     OW38309   4.453   3.026   2.683 -0.0439 -0.0509 -0.0942
12489SOL    HW138310   4.431   3.115   2.657 -1.5906 -0.0603  0.9902
12489SOL    HW238311   4.527   3.036   2.743 -0.1149  0.4976 -0.0941
12490SOL     OW38312   1.357   0.454   3.299  0.5092 -0.1098 -0.7637
12490SOL    HW138313   1.318   0.373   3.266  1.4880 -0.6423 -0.6268
12490SOL    HW238314   1.351   0.446   3.394  2.9096 -1.2205 -0.6377
12491SOL     OW38315   1.413   7.294   5.331  0.3384  0.4555 -0.5132
12491SOL    HW138316   1.373   7.207   5.334 -0.3731  0.7992  0.7216
12491SOL    HW238317   1.340   7.355   5.335  0.8934  1.0901  0.5599
12492SOL     OW38318   5.642   5.706   6.328 -0.6173  0.1023  0.4148
12492SOL    HW138319   5.549   5.690   6.344 -0.2182 -1.9961  0.9889
12492SOL    HW238320   5.651   5.801   6.330 -2.4779  0.3050  1.9726
12493SOL     OW38321   0.611   4.894   2.512  0.2388 -0.1961 -0.1172
12493SOL    HW138322   0.626   4.852   2.428  0.1472  1.1768 -0.8563
12493SOL    HW238323   0.637   4.985   2.498 -0.2433  0.1739  1.2016
12494SOL     OW38324   1.839   5.702   7.894 -0.0798  0.2801 -0.2546
12494SOL    HW138325   1.831   5.646   7.971 -1.7147 -0.4785 -0.9323
12494SOL    HW238326   1.877   5.646   7.827  1.2335  0.9067 -0.0675
12495SOL     OW38327   4.858   3.367   2.323 -0.2056 -0.4441  0.3150
12495SOL    HW138328   4.864   3.388   2.230 -0.9504 -1.3167  0.0535
12495SOL    HW238329   4.889   3.445   2.367  1.0809 -0.3636 -0.6765
12496SOL     OW38330   2.315   1.486   5.118 -0.3214 -0.3371 -0.1035
12496SOL    HW138331   2.367   1.427   5.172 -0.1787  0.3706  0.5619
12496SOL    HW238332   2.225   1.472   5.146 -0.5912 -1.9244 -1.6046
12497SOL     OW38333   8.101   7.424   7.158  0.0029 -0.1538  0.4562
12497SOL    HW138334   8.149   7.349   7.124 -0.8536 -0.2480 -0.6007
12497SOL    HW238335   8.056   7.390   7.236 -1.0588 -1.0082 -0.4897
12498SOL     OW38336   0.576   5.171   1.538 -0.0189  0.1282 -0.3187
12498SOL    HW138337   0.518   5.244   1.518 -0.0876 -0.3996 -2.2574
12498SOL    HW238338   0.639   5.170   1.466  3.3855  1.5316  2.3275
12499SOL     OW38339   6.586   6.557   6.696 -1.1534  0.2285  0.1549
12499SOL    HW138340   6.514   6.522   6.643  0.2438 -3.1960  0.2337
12499SOL    HW238341   6.548   6.569   6.783 -1.3409 -3.8087  0.8453
12500SOL     OW38342   6.152   2.266   5.726 -0.2954 -0.1982  0.0337
12500SOL    HW138343   6.218   2.214   5.680  1.2304 -0.0394  1.9125
12500SOL    HW238344   6.195   2.294   5.806 -2.5930  0.1405  1.2443
12501SOL     OW38345   7.649   6.666   8.164  0.2636 -0.5016  0.1507
12501SOL    HW138346   7.586   6.713   8.219  0.1058 -1.1319  0.5150
12501SOL    HW238347   7.672   6.588   8.214  1.5827 -0.1331  0.1618
12502SOL     OW38348   1.337   6.130   0.509 -0.0041  0.7449  0.1054
12502SOL    HW138349   1.327   6.080   0.428  0.0217 -0.8528  1.0446
12502SOL    HW238350   1.342   6.221   0.481  2.7860  0.0764 -1.9430
12503SOL     OW38351   6.109   2.589   1.414  0.1588 -0.3497 -0.1920
12503SOL    HW138352   6.088   2.589   1.507 -0.0938  0.3786 -0.2416
12503SOL    HW238353   6.091   2.500   1.385  1.1465 -0.8589  0.6523
12504SOL     OW38354   0.259   4.033   3.555  0.3262  0.2370  0.4922
12504SOL    HW138355   0.261   4.090   3.478 -2.7018 -0.0910  0.0566
12504SOL    HW238356   0.319   4.074   3.616  0.5983  2.1576 -0.9655
12505SOL     OW38357   3.660   3.033   0.604  0.2059 -0.1374  0.2112
12505SOL    HW138358   3.628   2.949   0.570  1.0498 -0.3988  0.0538
12505SOL    HW238359   3.739   3.010   0.653  1.1977  0.7158 -0.9453
12506SOL     OW38360   0.105   2.584   8.182 -0.0512  0.2586 -0.0699
12506SOL    HW138361   0.048   2.513   8.212 -2.0254  0.7515 -2.3197
12506SOL    HW238362   0.051   2.663   8.191  0.9011  1.0062 -0.6899
12507SOL     OW38363   4.971   7.601   6.664 -0.5396  0.4864  0.7404
12507SOL    HW138364   4.924   7.601   6.748 -1.3773 -0.3713  0.2912
12507SOL    HW238365   4.903   7.621   6.599 -0.1485 -0.1171  0.1432
12508SOL     OW38366   0.823   4.407   7.964  0.0599  0.0745 -0.1336
12508SOL    HW138367   0.902   4.459   7.954  0.2462 -0.4785 -1.7819
12508SOL    HW238368   0.847   4.320   7.931  0.1607 -1.5710  3.6861
12509SOL     OW38369   7.662   7.618   6.072  0.4997 -0.3470  0.1178
12509SOL    HW138370   7.694   7.672   6.000  1.0554 -2.0785 -0.9977
12509SOL    HW238371   7.571   7.646   6.084  0.8361  0.9899 -0.2237
12510SOL     OW38372   0.648   5.436   3.824  0.3144  0.0006  1.0609
12510SOL    HW138373   0.625   5.518   3.780 -1.4105 -1.0982 -0.2032
12510SOL    HW238374   0.625   5.450   3.916 -1.5441  0.3924  0.5584
12511SOL     OW38375   1.674   1.707   4.949 -0.0076  0.2281 -0.0776
12511SOL    HW138376   1.627   1.635   4.992 -1.0562  0.0316 -1.4939
12511SOL    HW238377   1.609   1.778   4.943  0.3887  0.5564 -0.5509
12512SOL     OW38378   7.969   3.462   3.826 -0.0450  0.4588  0.1761
12512SOL    HW138379   8.042   3.522   3.831  0.3475  0.1553 -1.3193
12512SOL    HW238380   7.921   3.475   3.907 -0.8643  3.9259 -0.7034
12513SOL     OW38381   5.617   3.734   7.937  0.3242 -0.4705  0.5954
12513SOL    HW138382   5.590   3.825   7.952  0.8113 -0.5793  2.3266
12513SOL    HW238383   5.706   3.740   7.905 -0.4149 -0.2733 -1.5798
12514SOL     OW38384   1.125   5.253   4.563  0.6992  0.1434  0.0937
12514SOL    HW138385   1.214   5.264   4.597  1.0753  1.7136 -1.2139
12514SOL    HW238386   1.092   5.343   4.554 -0.1310 -0.2832 -1.5964
12515SOL     OW38387   1.607   6.136   0.851 -0.6985  0.4431  0.3113
12515SOL    HW138388   1.633   6.063   0.907  0.7611  0.2036 -0.6414
12515SOL    HW238389   1.573   6.095   0.772 -0.9134  0.8004  0.2151
12516SOL     OW38390   2.176   5.977   2.474  0.4696  0.3660  0.6763
12516SOL    HW138391   2.155   5.959   2.565  1.3874 -0.5525  0.7213
12516SOL    HW238392   2.091   5.974   2.429 -0.0419  1.2535  1.5432
12517SOL     OW38393   4.585   5.949   4.724 -0.2736  0.0634  0.7424
12517SOL    HW138394   4.597   5.872   4.669  1.3673  0.1124  0.9824
12517SOL    HW238395   4.607   5.919   4.812  1.3972  1.0272  0.6884
12518SOL     OW38396   3.925   1.059   4.765  0.2039 -0.2157  0.4393
12518SOL    HW138397   3.926   0.997   4.838  1.2984 -0.4529  0.2465
12518SOL    HW238398   3.896   1.007   4.690 -2.1924  0.3305  0.9214
12519SOL     OW38399   4.566   7.491   4.993 -0.6110  0.0946  0.2304
12519SOL    HW138400   4.554   7.497   5.088 -1.3196 -1.0447  0.2344
12519SOL    HW238401   4.528   7.406   4.969  3.2009 -1.6288 -0.4822
12520SOL     OW38402   6.947   2.319   4.482 -0.1196 -0.1677 -0.5411
12520SOL    HW138403   6.945   2.342   4.575 -3.0568  2.0138 -0.9726
12520SOL    HW238404   6.919   2.228   4.479  0.6072 -0.4591  0.7020
12521SOL     OW38405   6.147   3.086   3.576 -0.1056 -0.6535  0.9126
12521SOL    HW138406   6.226   3.131   3.608  0.3459 -1.4603  0.9718
12521SOL    HW238407   6.175   3.041   3.497 -1.0405  0.7236 -0.2424
12522SOL     OW38408   0.945   7.737   3.396 -0.5581 -0.8299 -0.2087
12522SOL    HW138409   0.883   7.803   3.427  2.5791  1.9813  0.5775
12522SOL    HW238410   0.923   7.659   3.447 -0.9897  1.2054  2.9966
12523SOL     OW38411   7.092   1.024   1.734  0.0928 -0.6383 -0.3797
12523SOL    HW138412   7.112   1.113   1.761  1.7753 -1.1647  0.2962
12523SOL    HW238413   6.998   1.016   1.744 -0.0325  0.9344 -0.0477
12524SOL     OW38414   5.038   4.829   1.793 -0.4444  0.1664  0.7141
12524SOL    HW138415   5.124   4.804   1.826  0.3520  2.3227  0.4813
12524SOL    HW238416   5.011   4.755   1.739  1.6290 -0.2777  0.1733
12525SOL     OW38417   0.811   6.304   6.478  0.1413 -0.1608  0.4872
12525SOL    HW138418   0.774   6.228   6.432 -0.4975  0.0671  0.6064
12525SOL    HW238419   0.794   6.288   6.570 -1.5954  0.9223  0.4028
12526SOL     OW38420   3.143   2.152   4.077 -0.4790  0.3188 -0.4864
12526SOL    HW138421   3.132   2.242   4.110  0.4901 -0.2292  1.4960
12526SOL    HW238422   3.077   2.101   4.123  0.3314 -0.3280 -0.0051
12527SOL     OW38423   5.736   3.069   2.036  0.1600 -0.0277  0.7510
12527SOL    HW138424   5.801   3.003   2.060  0.0851 -1.0884 -1.6546
12527SOL    HW238425   5.779   3.120   1.966 -0.4418  1.3398  1.3548
12528SOL     OW38426   0.401   4.892   0.310  0.2164 -0.1214 -0.5034
12528SOL    HW138427   0.383   4.802   0.338  1.4568 -0.2213  0.0302
12528SOL    HW238428   0.318   4.938   0.323  0.1548 -0.6710  1.3923
12529SOL     OW38429   0.947   3.645   0.447  0.6301  0.3022  0.4923
12529SOL    HW138430   1.037   3.669   0.471  1.4318 -2.1870  0.2729
12529SOL    HW238431   0.909   3.612   0.528  1.3075 -2.3507 -0.1594
12530SOL     OW38432   7.903   7.968   7.023  0.7782 -0.5545  0.3598
12530SOL    HW138433   7.853   8.049   7.031 -1.8534 -2.2227  2.4721
12530SOL    HW238434   7.983   7.985   7.074  0.7924  1.0157 -0.1203
12531SOL     OW38435   7.569   2.451   6.942 -0.3318 -0.3135  0.0288
12531SOL    HW138436   7.611   2.511   7.005  0.3960 -0.3334 -0.4230
12531SOL    HW238437   7.492   2.418   6.988 -1.5095  1.9557 -0.1719
12532SOL     OW38438   3.715   7.339   4.505 -0.0217 -0.1589 -0.3104
12532SOL    HW138439   3.791   7.296   4.466  0.7646  1.2983 -0.4417
12532SOL    HW238440   3.642   7.316   4.447  0.4125 -1.1119 -0.4990
12533SOL     OW38441   2.480   1.405   6.925  0.2751  0.1196 -0.3726
12533SOL    HW138442   2.423   1.430   6.997  0.3560 -3.6085  1.2239
12533SOL    HW238443   2.532   1.483   6.906 -1.7356  2.0618  1.6274
12534SOL     OW38444   7.645   6.396   7.851  0.3744  0.4575  0.1353
12534SOL    HW138445   7.553   6.400   7.878  0.6531  0.1871  1.1754
12534SOL    HW238446   7.642   6.389   7.756 -0.7270 -1.0258  0.2547
12535SOL     OW38447   7.387   2.499   3.904 -0.2894 -0.0656 -0.4319
12535SOL    HW138448   7.300   2.496   3.944  0.0274  0.5842  0.3144
12535SOL    HW238449   7.382   2.571   3.840 -0.2190  0.1458 -0.1991
12536SOL     OW38450   7.993   0.143   4.504 -0.2863 -0.1329  0.1272
12536SOL    HW138451   7.924   0.085   4.473 -0.3556  0.9178 -1.8235
12536SOL    HW238452   8.067   0.125   4.447  0.2242  0.5539  0.5568
12537SOL     OW38453   7.597   5.668   4.709 -0.2234  0.0468 -0.3047
12537SOL    HW138454   7.657   5.709   4.771  0.2464  0.8238 -1.2576
12537SOL    HW238455   7.583   5.734   4.641  0.9885 -1.5083 -2.1872
12538SOL     OW38456   5.448   3.193   1.130 -0.5078 -0.0259  0.1012
12538SOL    HW138457   5.384   3.208   1.200  0.4618 -2.0586  1.5001
12538SOL    HW238458   5.401   3.217   1.050 -2.3928  0.2814  1.2396
12539SOL     OW38459   2.013   1.561   5.921 -0.3945 -0.6168 -0.6822
12539SOL    HW138460   1.951   1.623   5.883  0.6497  0.1184 -1.2112
12539SOL    HW238461   2.081   1.615   5.960 -0.5349 -1.3989  0.7232
12540SOL     OW38462   4.751   7.533   5.776  0.1260  0.2873 -0.6980
12540SOL    HW138463   4.751   7.472   5.850 -0.9446  0.7698 -0.2667
12540SOL    HW238464   4.818   7.597   5.797  0.4917 -0.1144 -0.6211
12541SOL     OW38465   3.884   7.118   0.415  0.2288 -0.1180  0.1796
12541SOL    HW138466   3.856   7.202   0.378 -1.6169  0.0900  1.8895
12541SOL    HW238467   3.919   7.070   0.340  0.0308  1.6387 -1.1146
12542SOL     OW38468   7.183   1.648   2.777  0.3903  0.2419 -0.0214
12542SOL    HW138469   7.183   1.569   2.832 -0.5127  0.9281  1.0123
12542SOL    HW238470   7.167   1.720   2.838 -0.9656  1.0112 -1.2213
12543SOL     OW38471   0.415   2.873   2.384  0.5377  0.3524  0.3015
12543SOL    HW138472   0.347   2.898   2.322 -0.5301 -1.6304  0.6094
12543SOL    HW238473   0.492   2.857   2.329 -0.2961 -1.0290 -0.4911
12544SOL     OW38474   8.157   6.073   4.711 -0.2438  0.3507 -0.2319
12544SOL    HW138475   8.231   6.046   4.656 -0.0336 -0.4178  0.4224
12544SOL    HW238476   8.133   6.160   4.677  0.1696  0.0835 -1.2407
12545SOL     OW38477   7.765   6.511   4.784 -0.0712  0.3672 -0.3381
12545SOL    HW138478   7.806   6.583   4.736 -0.8256  0.6488 -0.5755
12545SOL    HW238479   7.704   6.472   4.722 -0.1122 -0.0969 -0.0164
12546SOL     OW38480   3.251   8.119   4.916 -0.0108 -0.2397 -0.2587
12546SOL    HW138481   3.157   8.137   4.922 -0.5051 -2.6189  0.4444
12546SOL    HW238482   3.256   8.038   4.864  1.6117 -0.4027  0.1024
12547SOL     OW38483   5.735   4.313   1.963  0.3555 -0.1024 -0.2935
12547SOL    HW138484   5.672   4.310   2.034  1.7620  1.0887  1.0621
12547SOL    HW238485   5.682   4.307   1.883 -1.3830  0.1206  0.8102
12548SOL     OW38486   3.381   2.116   6.137 -0.0204 -0.5141  0.4742
12548SOL    HW138487   3.337   2.051   6.081 -0.3047 -0.2102  0.3432
12548SOL    HW238488   3.328   2.118   6.217 -0.4801  0.1414  0.1591
12549SOL     OW38489   5.831   7.961   2.159  0.6734  0.5005 -0.0492
12549SOL    HW138490   5.805   7.872   2.134 -1.1916  0.0917  2.8701
12549SOL    HW238491   5.926   7.954   2.175  0.8516 -0.5409 -1.3604
12550SOL     OW38492   7.633   6.000   4.242 -0.5413 -0.2039 -0.8116
12550SOL    HW138493   7.552   6.047   4.221 -1.3790 -1.8914 -1.5785
12550SOL    HW238494   7.672   5.980   4.158 -0.8606 -1.9063 -0.6016
12551SOL     OW38495   5.542   5.883   4.989  0.1693  0.1438 -0.0146
12551SOL    HW138496   5.534   5.906   5.081 -1.4753  0.6153 -0.2410
12551SOL    HW238497   5.635   5.897   4.969  0.7452 -0.8145  1.7506
12552SOL     OW38498   8.061   8.158   0.212  0.4266  0.1838  0.1103
12552SOL    HW138499   8.082   8.236   0.264  3.0950  0.1910 -0.8112
12552SOL    HW238500   8.057   8.190   0.122  0.4059 -0.5606 -0.1597
12553SOL     OW38501   5.446   7.225   6.615 -0.3585  0.6319  0.2486
12553SOL    HW138502   5.460   7.213   6.708  2.0206  1.4617  0.0711
12553SOL    HW238503   5.406   7.312   6.608 -2.6522 -0.3269  0.5617
12554SOL     OW38504   3.049   7.320   7.079  0.2011  0.3282  0.4856
12554SOL    HW138505   3.126   7.310   7.136  1.2988  0.0817 -0.9836
12554SOL    HW238506   3.025   7.230   7.055 -0.0303  0.4423  0.2803
12555SOL     OW38507   2.676   5.508   4.430  0.2874 -0.1185  0.5033
12555SOL    HW138508   2.755   5.549   4.394 -0.2644  0.4891 -0.0626
12555SOL    HW238509   2.606   5.571   4.411 -0.1652 -0.1284  1.9877
12556SOL     OW38510   3.380   2.775   4.771 -0.1357  0.1575 -0.7420
12556SOL    HW138511   3.342   2.857   4.804  0.2860 -0.0632  0.3632
12556SOL    HW238512   3.473   2.783   4.792 -0.0798 -0.5639 -0.6983
12557SOL     OW38513   5.483   5.621   4.407 -0.2470 -0.1580 -0.1488
12557SOL    HW138514   5.431   5.543   4.427  0.7379 -1.5829 -2.6469
12557SOL    HW238515   5.573   5.596   4.426  0.0313  0.5485 -0.4997
12558SOL     OW38516   1.816   0.254   5.821  0.0498  0.2658  0.2623
12558SOL    HW138517   1.902   0.223   5.848  0.4657 -1.7909 -2.9164
12558SOL    HW238518   1.833   0.320   5.754 -0.8315 -0.3645 -0.6064
12559SOL     OW38519   0.861   1.351   6.690  0.6453  0.6404  0.1029
12559SOL    HW138520   0.908   1.427   6.657  1.4815  0.9983  1.9660
12559SOL    HW238521   0.841   1.373   6.781 -2.7702  0.2947 -0.4392
12560SOL     OW38522   5.562   5.390   0.535  0.2862  0.1495  0.0430
12560SOL    HW138523   5.494   5.457   0.526  1.7109  1.5902 -0.4590
12560SOL    HW238524   5.524   5.325   0.594 -1.5870  0.8035 -0.3678
12561SOL     OW38525   3.502   5.267   3.217  0.0564 -0.4561 -0.0704
12561SOL    HW138526   3.580   5.308   3.253 -0.7925  0.4180  0.8470
12561SOL    HW238527   3.449   5.341   3.187 -0.1276 -1.0707 -1.3183
12562SOL     OW38528   3.831   5.710   1.644 -0.1777 -0.0031  0.0211
12562SOL    HW138529   3.850   5.616   1.641 -1.8735 -0.5283  2.6649
12562SOL    HW238530   3.906   5.748   1.690  1.0830  0.1937 -2.0840
12563SOL     OW38531   6.183   0.499   5.199 -0.1758  0.1182  0.4027
12563SOL    HW138532   6.256   0.453   5.158 -1.1353 -0.7346 -0.4046
12563SOL    HW238533   6.218   0.586   5.219  1.3904 -0.6127  1.0852
12564SOL     OW38534   2.974   0.624   6.392 -0.5818  0.1087  0.1770
12564SOL    HW138535   3.005   0.713   6.382 -0.6569  0.0474 -0.6424
12564SOL    HW238536   2.879   0.630   6.386 -0.5890 -0.0267  0.1433
12565SOL     OW38537   3.104   3.812   6.644 -0.0740  0.3281  0.2607
12565SOL    HW138538   3.086   3.906   6.643  0.3159  0.4205  1.1964
12565SOL    HW238539   3.017   3.772   6.654 -0.0407  0.7066  2.7422
12566SOL     OW38540   7.273   4.734   7.138  0.1638 -0.1258  0.6372
12566SOL    HW138541   7.266   4.642   7.162 -0.0648 -0.6515 -1.2538
12566SOL    HW238542   7.348   4.737   7.078 -1.5048  0.3790 -1.5293
12567SOL     OW38543   6.325   1.809   5.158  0.2754  0.2343  0.3111
12567SOL    HW138544   6.266   1.752   5.207  1.3447 -1.3682 -0.2032
12567SOL    HW238545   6.319   1.893   5.204 -1.1186 -0.3385  1.2721
12568SOL     OW38546   7.104   6.415   2.793  0.0551 -0.2407 -0.0475
12568SOL    HW138547   7.082   6.387   2.882  0.6646  0.0654  0.2068
12568SOL    HW238548   7.068   6.504   2.787  3.5022  1.4484  1.3704
12569SOL     OW38549   5.260   1.873   5.924 -0.2379 -0.3894  0.1566
12569SOL    HW138550   5.263   1.834   6.012 -0.6183 -0.7898 -0.0013
12569SOL    HW238551   5.174   1.848   5.891 -1.0124  1.5813  0.5008
12570SOL     OW38552   2.474   7.857   1.942  0.0622 -0.3344 -0.2447
12570SOL    HW138553   2.456   7.819   2.028 -1.4959 -0.6454 -0.6815
12570SOL    HW238554   2.492   7.782   1.885 -1.5134 -0.3512 -0.7645
12571SOL     OW38555   6.651   1.412   0.101 -0.2528  0.3612 -0.3084
12571SOL    HW138556   6.638   1.321   0.127  1.8437  0.1116  0.0257
12571SOL    HW238557   6.718   1.409   0.034  0.3446  1.7034  0.1892
12572SOL     OW38558   5.507   1.057   7.428 -0.2342 -0.5610  0.0211
12572SOL    HW138559   5.596   1.040   7.395  0.4821  0.3342  1.3869
12572SOL    HW238560   5.461   0.974   7.415  0.8973 -1.1484 -0.4206
12573SOL     OW38561   2.756   0.228   6.018 -0.1972 -0.5294  0.8359
12573SOL    HW138562   2.701   0.211   5.941  0.5384 -0.1586  0.2166
12573SOL    HW238563   2.820   0.157   6.018 -0.4247 -0.7364  1.3228
12574SOL     OW38564   7.907   7.519   6.660  0.0441  0.2855 -0.0186
12574SOL    HW138565   7.965   7.588   6.626 -1.1365  0.5006 -1.7393
12574SOL    HW238566   7.819   7.556   6.654 -0.4869 -0.8608  0.3826
12575SOL     OW38567   1.944   3.056   2.271  0.0730  0.2903 -0.2993
12575SOL    HW138568   1.940   3.122   2.339  0.4253  0.0473 -0.0440
12575SOL    HW238569   1.885   3.089   2.202 -0.1876  0.5914  0.0648
12576SOL     OW38570   4.329   2.092   1.571 -0.0982  0.3750 -0.1001
12576SOL    HW138571   4.274   2.051   1.505 -0.4217  0.8271 -0.1189
12576SOL    HW238572   4.418   2.082   1.538 -0.2699  0.7758 -0.7161
12577SOL     OW38573   6.777   3.774   5.269 -0.5646 -0.0100 -0.0255
12577SOL    HW138574   6.750   3.813   5.186  2.2993  0.7863 -0.7001
12577SOL    HW238575   6.821   3.845   5.315 -0.1081 -1.0327  1.1646
12578SOL     OW38576   2.128   2.891   6.481  0.2282  0.0408 -0.0640
12578SOL    HW138577   2.032   2.897   6.488  0.4365  2.1884  1.9977
12578SOL    HW238578   2.160   2.909   6.569  2.5489 -2.0071 -0.3812
12579SOL     OW38579   5.332   2.056   7.293 -0.3131 -0.5615 -0.7779
12579SOL    HW138580   5.407   2.109   7.265  0.1609 -0.8225 -0.0449
12579SOL    HW238581   5.262   2.119   7.306  0.1708 -0.1268 -0.1772
12580SOL     OW38582   6.252   7.093   7.715 -0.3859  0.3173  0.3676
12580SOL    HW138583   6.230   7.186   7.723 -1.9466  0.3450 -2.7151
12580SOL    HW238584   6.167   7.049   7.714  0.2103 -0.8585 -0.7790
12581SOL     OW38585   3.583   5.254   2.427 -0.2057 -0.3768  0.3941
12581SOL    HW138586   3.644   5.181   2.436 -2.9333 -2.9946 -0.7515
12581SOL    HW238587   3.587   5.299   2.512  1.4749 -1.9177  1.1955
12582SOL     OW38588   5.442   1.310   4.245 -0.5321 -0.2397  0.4124
12582SOL    HW138589   5.408   1.389   4.203  0.6275  0.0472 -0.0151
12582SOL    HW238590   5.451   1.247   4.173 -0.3183 -0.3621  0.5455
12583SOL     OW38591   4.498   4.845   4.907  0.3600  0.1665  0.0054
12583SOL    HW138592   4.524   4.788   4.835 -0.5492 -0.3370  0.0768
12583SOL    HW238593   4.573   4.843   4.967  0.5592 -0.5065 -0.2569
12584SOL     OW38594   4.930   6.271   2.121  0.4507 -0.1817 -0.5376
12584SOL    HW138595   4.966   6.219   2.194 -0.3916 -1.0290 -0.7106
12584SOL    HW238596   5.003   6.327   2.094  1.1106 -0.6347  0.2459
12585SOL     OW38597   4.586   4.616   0.982 -0.3389  0.5076 -0.3594
12585SOL    HW138598   4.559   4.708   0.976  1.2585  1.0329  0.0902
12585SOL    HW238599   4.519   4.575   1.037 -0.0650  1.8455  1.0458
12586SOL     OW38600   5.742   7.829   8.048 -0.0706  0.1858 -0.5926
12586SOL    HW138601   5.816   7.820   8.108 -0.6307 -0.4123  0.0240
12586SOL    HW238602   5.729   7.924   8.041 -1.2417  0.2888  1.8312
12587SOL     OW38603   1.648   1.308   0.559 -0.4163  0.7350  0.1947
12587SOL    HW138604   1.733   1.348   0.540  0.9199 -2.1027 -0.4909
12587SOL    HW238605   1.646   1.301   0.655  0.1391  0.8046  0.2153
12588SOL     OW38606   7.554   6.713   6.360  0.9069 -0.6922 -0.0164
12588SOL    HW138607   7.566   6.695   6.266  1.7309 -0.2251 -0.0056
12588SOL    HW238608   7.534   6.806   6.364  0.5444 -0.7799  0.2547
12589SOL     OW38609   7.814   1.431   4.051 -0.5127 -0.2980 -0.7007
12589SOL    HW138610   7.780   1.344   4.074 -4.0995  1.2181  0.3358
12589SOL    HW238611   7.868   1.456   4.126  1.0721 -1.7731 -1.2714
12590SOL     OW38612   3.422   7.130   3.037  0.3042  0.3794 -0.3771
12590SOL    HW138613   3.430   7.049   2.985  0.3566 -0.1971  0.5090
12590SOL    HW238614   3.354   7.180   2.991  0.1862 -0.2169 -0.8828
12591SOL     OW38615   5.185   0.619   4.714 -0.1996 -0.3344  0.0541
12591SOL    HW138616   5.261   0.677   4.719 -0.1622 -0.2642 -1.1019
12591SOL    HW238617   5.126   0.652   4.783 -0.1580  1.0568 -0.5384
12592SOL     OW38618   3.854   8.030   7.504  0.5258 -0.6354 -0.2051
12592SOL    HW138619   3.780   8.053   7.446  1.2702 -0.1245 -0.9798
12592SOL    HW238620   3.829   7.945   7.541 -0.0560 -0.9009 -1.1530
12593SOL     OW38621   1.272   2.494   6.814 -0.1591  0.5745  0.3742
12593SOL    HW138622   1.244   2.516   6.903  0.3815 -0.0941  0.7220
12593SOL    HW238623   1.190   2.484   6.766 -0.4624  0.8538  0.8132
12594SOL     OW38624   5.911   3.534   2.201  0.5020  0.3829  0.3711
12594SOL    HW138625   5.994   3.549   2.156 -0.1906  1.0981 -0.7214
12594SOL    HW238626   5.909   3.600   2.270  0.3020  1.1991 -0.3968
12595SOL     OW38627   6.775   1.736   3.342  0.2006  0.0260 -0.1558
12595SOL    HW138628   6.845   1.673   3.364 -1.0250 -1.2209  0.3315
12595SOL    HW238629   6.745   1.709   3.256 -0.5384 -0.2641  0.1843
12596SOL     OW38630   5.070   1.372   6.408 -0.1442 -0.2335  0.0515
12596SOL    HW138631   5.001   1.312   6.381 -0.4997 -0.2239  0.9105
12596SOL    HW238632   5.024   1.443   6.452  0.3175  0.4146 -0.5055
12597SOL     OW38633   2.010   6.684   6.268  0.2342 -0.2289 -0.0758
12597SOL    HW138634   2.013   6.734   6.350  0.7047 -2.0512  1.0659
12597SOL    HW238635   2.101   6.665   6.248  0.0476 -0.9681 -0.2564
12598SOL     OW38636   3.350   6.893   0.034  0.6454  0.4666  0.5161
12598SOL    HW138637   3.315   6.949   0.103 -2.5897 -1.6573  0.8576
12598SOL    HW238638   3.274   6.842   0.005  2.8812 -2.0752 -1.3307
12599SOL     OW38639   0.173   2.882   2.845 -0.0477  0.0430 -0.6460
12599SOL    HW138640   0.195   2.834   2.765  0.7547  1.4201 -1.2763
12599SOL    HW238641   0.246   2.864   2.904  0.3552  0.6372 -0.9565
12600SOL     OW38642   2.952   4.916   3.956 -0.1194 -0.1524 -0.1775
12600SOL    HW138643   2.913   4.874   4.033 -1.3775 -2.6663 -2.0445
12600SOL    HW238644   2.885   4.976   3.925 -0.4324 -0.6213 -0.4243
12601SOL     OW38645   0.028   8.075   3.550 -0.3577 -0.0047 -0.3068
12601SOL    HW138646   0.108   8.023   3.553  0.1490  0.6664  3.7552
12601SOL    HW238647   0.056   8.160   3.514  0.7018  0.0480  0.5832
12602SOL     OW38648   5.051   6.783   6.385  0.1688 -0.0628 -0.1015
12602SOL    HW138649   5.088   6.772   6.473  0.3819 -0.5781 -0.2515
12602SOL    HW238650   5.017   6.873   6.385 -0.9013 -0.4444  0.8992
12603SOL     OW38651   2.185   1.912   6.280  0.8932  0.4023 -0.0431
12603SOL    HW138652   2.194   1.967   6.203 -0.6965 -0.0958 -0.6184
12603SOL    HW238653   2.212   1.824   6.251  0.2152  0.1965 -0.0679
12604SOL     OW38654   5.148   5.302   0.418  0.0829 -0.3626  0.3201
12604SOL    HW138655   5.066   5.255   0.404  0.4176 -0.7771 -0.3012
12604SOL    HW238656   5.123   5.382   0.463 -0.7472 -0.1667 -0.4740
12605SOL     OW38657   1.013   0.542   1.452  0.3911 -0.3316 -0.2871
12605SOL    HW138658   1.062   0.546   1.369  0.1215 -1.2558 -0.4903
12605SOL    HW238659   0.932   0.497   1.430  0.5922 -1.1599  0.6091
12606SOL     OW38660   3.423   0.807   0.464  0.0150  0.2811 -0.6662
12606SOL    HW138661   3.352   0.816   0.401 -0.9684  0.1991  0.4151
12606SOL    HW238662   3.407   0.723   0.507  2.1670 -0.9563 -2.0937
12607SOL     OW38663   3.135   0.051   0.328  0.2102 -0.4173 -0.1965
12607SOL    HW138664   3.166   0.110   0.397  2.2846 -0.3060 -1.1467
12607SOL    HW238665   3.096  -0.022   0.376 -0.3488  0.6329  1.0377
12608SOL     OW38666   1.697   7.764   7.324  0.1499 -0.4949  0.5042
12608SOL    HW138667   1.716   7.857   7.310 -0.5070 -0.2309  1.2955
12608SOL    HW238668   1.783   7.722   7.326  0.4791  0.1890  0.7787
12609SOL     OW38669   0.719   7.645   2.702  0.0491  0.2953  0.4745
12609SOL    HW138670   0.804   7.688   2.708 -0.3054  0.7826  3.6535
12609SOL    HW238671   0.740   7.552   2.694  0.8195  0.5187 -0.3591
12610SOL     OW38672   2.040   2.197   3.842 -0.1009  0.5419  0.9229
12610SOL    HW138673   2.081   2.115   3.866  0.4690  0.9905  1.5037
12610SOL    HW238674   1.952   2.193   3.881 -0.4955 -0.2478  0.0061
12611SOL     OW38675   3.989   3.819   1.847 -0.5656  0.2430  0.1478
12611SOL    HW138676   3.982   3.900   1.898 -0.9979  0.8043 -0.7709
12611SOL    HW238677   3.935   3.835   1.769  0.5105 -0.3830 -0.7562
12612SOL     OW38678   7.522   0.663   4.002 -0.0237 -0.6450 -0.2544
12612SOL    HW138679   7.570   0.634   3.925 -0.7230 -0.3543 -0.8049
12612SOL    HW238680   7.590   0.675   4.069  0.8937  1.1975 -1.4289
12613SOL     OW38681   4.217   5.914   7.814 -0.5226  0.0845 -0.0944
12613SOL    HW138682   4.169   5.931   7.732 -0.3083 -0.6535 -0.3826
12613SOL    HW238683   4.186   5.981   7.874 -1.0500  0.3374 -0.6346
12614SOL     OW38684   7.909   4.023   1.091  0.5923  0.1736  0.0943
12614SOL    HW138685   7.816   4.025   1.070  0.3221 -3.8469  0.2011
12614SOL    HW238686   7.953   4.025   1.006  0.2594 -0.4270 -0.0988
12615SOL     OW38687   5.220   4.996   1.649  0.5239  0.1065 -0.1929
12615SOL    HW138688   5.235   4.956   1.563  0.5295 -0.3413  0.0147
12615SOL    HW238689   5.153   4.941   1.690  1.0501 -0.1267  0.3819
12616SOL     OW38690   5.344   3.696   2.243  0.5493  0.9879  0.5791
12616SOL    HW138691   5.369   3.670   2.332  0.7035 -2.8544 -0.4210
12616SOL    HW238692   5.426   3.718   2.200  0.6707  1.1387  0.8855
12617SOL     OW38693   7.994   7.871   1.130  0.2421 -0.2383  0.2665
12617SOL    HW138694   8.008   7.788   1.085 -0.1511  0.3262 -0.9345
12617SOL    HW238695   7.922   7.853   1.192  0.7868 -1.0182  0.6981
12618SOL     OW38696   2.445   6.466   2.370  0.2266 -0.2606  0.0410
12618SOL    HW138697   2.440   6.475   2.275  1.4766  1.7256  0.0947
12618SOL    HW238698   2.527   6.417   2.384  1.4290  1.6557  0.0957
12619SOL     OW38699   0.687   2.807   1.151  0.1270  0.2858  0.3438
12619SOL    HW138700   0.745   2.844   1.218 -1.1041 -0.6096  1.9987
12619SOL    HW238701   0.621   2.874   1.137 -0.0661  0.1545  0.6265
12620SOL     OW38702   0.364   8.167   6.789 -0.2970  0.1809  0.4695
12620SOL    HW138703   0.351   8.124   6.873  0.3623 -0.2201  0.3718
12620SOL    HW238704   0.370   8.260   6.810 -0.2255  0.0894  0.8583
12621SOL     OW38705   2.509   0.852   3.645  0.2222  0.3615 -0.3651
12621SOL    HW138706   2.584   0.826   3.591  1.6095  0.4049  1.4420
12621SOL    HW238707   2.480   0.770   3.686  1.7509  0.8424  1.8558
12622SOL     OW38708   1.030   2.865   2.032  0.0725 -0.2197  0.7355
12622SOL    HW138709   1.099   2.859   1.966  0.7294  1.5456  1.1917
12622SOL    HW238710   1.007   2.774   2.051  2.9193 -0.9337  1.2380
12623SOL     OW38711   6.134   6.481   7.148  0.3924  0.1871 -0.3401
12623SOL    HW138712   6.110   6.538   7.221  0.5943  0.3231 -0.3782
12623SOL    HW238713   6.062   6.419   7.141 -1.8927  2.8381 -2.8422
12624SOL     OW38714   0.687   3.692   3.088 -0.1864 -0.3078  0.1387
12624SOL    HW138715   0.666   3.629   3.157  0.5759  0.3045  0.9565
12624SOL    HW238716   0.630   3.766   3.106  1.5400  0.7756  1.5139
12625SOL     OW38717   4.178   5.440   5.291 -0.4210 -0.0268  0.0199
12625SOL    HW138718   4.167   5.528   5.255 -0.2212  0.2718  0.6604
12625SOL    HW238719   4.170   5.382   5.216  2.1382  0.6994 -0.9252
12626SOL     OW38720   0.208   6.319   1.394 -0.2548 -0.1406  0.1606
12626SOL    HW138721   0.163   6.335   1.477 -0.1622  0.9100  0.0119
12626SOL    HW238722   0.167   6.377   1.332 -0.5228 -1.1415 -0.6226
12627SOL     OW38723   4.517   5.243   7.885 -0.3791 -0.0654  0.3021
12627SOL    HW138724   4.454   5.307   7.853  0.3861  0.1758 -0.7767
12627SOL    HW238725   4.479   5.209   7.966 -1.2524  1.0305  0.3587
12628SOL     OW38726   0.794   1.245   4.713  0.1988  0.2625 -0.6262
12628SOL    HW138727   0.715   1.282   4.673 -0.7126  0.3249  1.1290
12628SOL    HW238728   0.763   1.166   4.758  0.6419  1.4811  1.9949
12629SOL     OW38729   6.542   7.000   6.882  0.0853 -0.3911 -0.2298
12629SOL    HW138730   6.573   7.079   6.927 -0.5959 -0.4676  0.3984
12629SOL    HW238731   6.577   6.928   6.933  1.1924 -0.5225 -1.1386
12630SOL     OW38732   2.523   7.333   6.970 -0.4604 -0.5459  0.3138
12630SOL    HW138733   2.480   7.408   6.928  0.7108 -0.8133 -1.5028
12630SOL    HW238734   2.508   7.345   7.063 -0.2670  1.9838  0.0748
12631SOL     OW38735   2.399   1.754   4.021  0.3829  0.6708 -0.1845
12631SOL    HW138736   2.483   1.711   4.005 -0.5921 -1.2945 -0.3403
12631SOL    HW238737   2.422   1.842   4.051  2.5005 -0.0954  0.6121
12632SOL     OW38738   1.094   3.187   1.324  0.1724  0.4919 -0.5971
12632SOL    HW138739   0.999   3.182   1.330 -0.2815  2.7993 -3.3861
12632SOL    HW238740   1.117   3.266   1.373  0.8468 -0.5738  0.8882
12633SOL     OW38741   2.882   7.946   3.234  0.1631 -0.0875  0.2216
12633SOL    HW138742   2.926   8.009   3.291 -0.6949  1.0579 -0.3320
12633SOL    HW238743   2.858   7.873   3.292  0.2738  0.5542  1.0902
12634SOL     OW38744   6.539   4.679   5.493 -0.6501 -0.6868 -0.1878
12634SOL    HW138745   6.446   4.695   5.508 -0.5623 -1.2036  1.0632
12634SOL    HW238746   6.578   4.767   5.489 -1.1665 -0.4705 -0.6635
12635SOL     OW38747   7.043   1.470   0.609  0.1624  0.5459  0.2473
12635SOL    HW138748   7.075   1.560   0.615 -0.4205  0.7826 -0.1927
12635SOL    HW238749   7.017   1.459   0.518 -1.3559  0.4768  0.6752
12636SOL     OW38750   1.118   5.955   2.659 -0.0396 -0.1898 -0.1114
12636SOL    HW138751   1.084   5.870   2.688 -0.4967  0.3134  0.8864
12636SOL    HW238752   1.061   6.019   2.701  0.6420  0.6263 -0.4015
12637SOL     OW38753   1.132   1.058   6.392  0.5059  0.0319  0.3825
12637SOL    HW138754   1.208   1.092   6.440  2.0434 -1.8670 -0.5375
12637SOL    HW238755   1.109   0.977   6.438  0.0048 -0.1897 -0.2394
12638SOL     OW38756   2.557   1.966   7.125 -0.4731  0.3900 -0.3948
12638SOL    HW138757   2.509   2.001   7.200  0.3802  3.4703 -1.1351
12638SOL    HW238758   2.490   1.954   7.058 -1.3457 -2.9469  0.8694
12639SOL     OW38759   0.431   3.711   5.236  0.1599 -0.0357 -0.1243
12639SOL    HW138760   0.405   3.632   5.190 -2.8310  0.8448 -0.1380
12639SOL    HW238761   0.397   3.783   5.183  3.6819  1.4202 -0.6689
12640SOL     OW38762   7.020   6.147   3.490 -0.2100 -0.1825  0.0406
12640SOL    HW138763   7.075   6.098   3.429  1.1757  0.6698  0.5706
12640SOL    HW238764   7.061   6.133   3.576  0.2756  1.9320  0.2073
12641SOL     OW38765   7.462   3.789   1.501  0.1710 -0.0852  0.1796
12641SOL    HW138766   7.413   3.870   1.484  3.3258  1.9240 -0.1468
12641SOL    HW238767   7.463   3.781   1.596  1.4146  1.3724  0.3144
12642SOL     OW38768   4.575   5.845   8.200  0.0712 -0.3718  0.6177
12642SOL    HW138769   4.493   5.874   8.241  0.1213  0.6445  0.0374
12642SOL    HW238770   4.555   5.757   8.168 -0.7826 -0.1683  0.5568
12643SOL     OW38771   6.919   4.388   7.947 -0.5337 -0.7316 -0.2058
12643SOL    HW138772   6.923   4.292   7.945  1.6685 -0.6835 -0.6097
12643SOL    HW238773   6.839   4.408   7.996 -1.8129 -2.7426 -1.3317
12644SOL     OW38774   6.397   1.803   0.801 -0.0709 -0.0478  0.4315
12644SOL    HW138775   6.490   1.782   0.811  0.7984  2.3814 -1.6038
12644SOL    HW238776   6.396   1.891   0.765 -3.2513  0.5102  1.5826
12645SOL     OW38777   6.807   0.168   4.148  0.1962 -0.3383  0.4952
12645SOL    HW138778   6.878   0.111   4.177  1.0062  0.2653 -0.2636
12645SOL    HW238779   6.841   0.211   4.070 -1.3833 -0.7920 -0.4742
12646SOL     OW38780   4.435   7.288   8.034  0.4382 -0.1875 -0.3629
12646SOL    HW138781   4.445   7.328   7.947  2.0063 -1.1039 -0.6421
12646SOL    HW238782   4.507   7.324   8.085 -1.2035  1.3222  0.9971
12647SOL     OW38783   0.306   7.513   5.972  0.0169  0.2373 -0.1200
12647SOL    HW138784   0.385   7.472   6.008 -0.1363 -2.6296 -2.6158
12647SOL    HW238785   0.238   7.495   6.037  0.3603 -2.0272 -0.3140
12648SOL     OW38786   3.715   5.359   0.687  0.7324  0.2714 -0.0094
12648SOL    HW138787   3.629   5.401   0.695  1.1642  1.0199  0.7380
12648SOL    HW238788   3.724   5.342   0.593 -0.0312  0.6000 -0.1518
12649SOL     OW38789   7.963   1.751   1.244  0.5961 -0.1120  0.2410
12649SOL    HW138790   7.947   1.687   1.174  0.1016  1.3031 -1.0015
12649SOL    HW238791   8.050   1.786   1.225 -0.5165  2.1057 -1.2788
12650SOL     OW38792   7.481   0.591   5.128  0.4275  0.3989 -0.1558
12650SOL    HW138793   7.504   0.605   5.220  0.1968  0.6952 -0.1385
12650SOL    HW238794   7.452   0.677   5.098  0.6643  0.3403 -0.5548
12651SOL     OW38795   2.205   1.267   1.662 -0.3333  0.0688  0.0212
12651SOL    HW138796   2.221   1.189   1.715 -2.1195  0.3724  1.1045
12651SOL    HW238797   2.133   1.312   1.706 -1.2167  0.8913 -2.1064
12652SOL     OW38798   0.423   5.372   6.266  0.0310  0.4867 -0.2392
12652SOL    HW138799   0.381   5.410   6.189 -0.8712  1.1714  0.5744
12652SOL    HW238800   0.389   5.422   6.340  1.3184  0.2272  0.5720
12653SOL     OW38801   5.517   7.516   4.059  0.9464 -0.3444  0.1094
12653SOL    HW138802   5.440   7.573   4.053  2.0750  1.6239  2.2397
12653SOL    HW238803   5.543   7.522   4.151  1.2181 -4.3953  0.4760
12654SOL     OW38804   3.167   0.257   0.069 -0.3766 -0.1340 -0.5169
12654SOL    HW138805   3.247   0.214   0.097 -0.4729  1.0400  1.8351
12654SOL    HW238806   3.119   0.190   0.020  0.7335 -1.7557  0.5164
12655SOL     OW38807   4.720   3.521   4.755 -0.8132 -0.2110 -0.1100
12655SOL    HW138808   4.727   3.446   4.697  2.5258 -0.4563  0.4280
12655SOL    HW238809   4.747   3.596   4.702 -0.4354  0.0013  0.3703
12656SOL     OW38810   0.257   0.291   2.910 -0.8035  0.6984 -0.3049
12656SOL    HW138811   0.339   0.250   2.882  0.5121  2.4682  0.7679
12656SOL    HW238812   0.205   0.219   2.947  0.7498 -0.2792  0.0446
12657SOL     OW38813   8.201   6.408   5.028 -0.2765 -0.2267  0.9535
12657SOL    HW138814   8.138   6.480   5.036 -0.4880 -0.0747 -1.2580
12657SOL    HW238815   8.149   6.329   5.045 -0.7059 -0.0075  0.6937
12658SOL     OW38816   1.678   0.631   3.728  0.8475  0.0063  0.3037
12658SOL    HW138817   1.763   0.658   3.762  1.2673 -2.7713  1.7827
12658SOL    HW238818   1.618   0.638   3.803  0.2647 -0.0784 -0.1398
12659SOL     OW38819   2.710   3.624   6.374  0.2888  0.0911  0.0471
12659SOL    HW138820   2.710   3.643   6.280  1.0648  1.6388  0.3401
12659SOL    HW238821   2.666   3.699   6.414 -0.4193 -0.7559  0.8978
12660SOL     OW38822   4.496   1.156   0.940  0.0871 -0.1847  0.0221
12660SOL    HW138823   4.445   1.231   0.968 -0.1176 -0.9774  1.8708
12660SOL    HW238824   4.559   1.192   0.877 -1.1587  1.1989 -0.4876
12661SOL     OW38825   5.726   8.133   7.060 -0.8038  0.4299  0.0858
12661SOL    HW138826   5.799   8.193   7.071 -0.7654  0.2901  0.5914
12661SOL    HW238827   5.766   8.051   7.032 -0.5287 -0.2839  2.3697
12662SOL     OW38828   3.077   0.673   0.449  0.0216 -0.2744 -0.0890
12662SOL    HW138829   3.049   0.697   0.360 -0.5285  0.7250  0.3400
12662SOL    HW238830   3.033   0.590   0.466 -1.9896  0.8013  0.2091
12663SOL     OW38831   6.513   3.831   3.407  0.1577 -0.0399  0.3293
12663SOL    HW138832   6.501   3.748   3.452 -1.2622  0.8524  1.7077
12663SOL    HW238833   6.444   3.834   3.341  0.7359 -0.2980 -0.3022
12664SOL     OW38834   1.550   4.756   0.562  0.3288  0.4142 -0.1381
12664SOL    HW138835   1.562   4.848   0.539 -1.4712  0.2233 -2.1516
12664SOL    HW238836   1.602   4.709   0.497  0.9159 -0.0059  0.6345
12665SOL     OW38837   0.094   1.746   3.249  0.4883 -0.2048 -0.0691
12665SOL    HW138838   0.119   1.660   3.280  0.3704 -0.0434  0.4784
12665SOL    HW238839   0.003   1.736   3.221  0.5567 -0.3183 -0.2550
12666SOL     OW38840   4.211   0.294   2.047 -0.1344  0.2143  0.1478
12666SOL    HW138841   4.262   0.273   2.125  1.3813 -0.0488 -0.8524
12666SOL    HW238842   4.272   0.277   1.974 -1.6678 -0.0828 -1.1080
12667SOL     OW38843   3.099   4.389   0.163  0.3620  0.6321  0.2833
12667SOL    HW138844   3.022   4.399   0.219  0.9088  1.1374  0.9562
12667SOL    HW238845   3.077   4.438   0.084 -0.5174 -0.2953 -0.0714
12668SOL     OW38846   7.396   0.370   3.089  0.1172  0.6892  0.1819
12668SOL    HW138847   7.309   0.343   3.063  0.7779 -1.2632 -0.1411
12668SOL    HW238848   7.445   0.377   3.008  0.4154  1.2576  0.4017
12669SOL     OW38849   4.372   2.381   3.925  0.3545 -0.2814  0.0536
12669SOL    HW138850   4.412   2.467   3.915  2.0736 -1.0892 -0.3661
12669SOL    HW238851   4.433   2.332   3.980 -0.1591 -1.5004 -0.4172
12670SOL     OW38852   3.808   2.678   1.776  0.0926  0.0205  0.3225
12670SOL    HW138853   3.735   2.617   1.768  0.3380 -0.0634 -1.6711
12670SOL    HW238854   3.851   2.652   1.857 -1.0496 -1.0767  0.6169
12671SOL     OW38855   0.883   6.872   5.781  0.2969  0.1755 -0.2044
12671SOL    HW138856   0.965   6.921   5.792  0.9334 -1.0806  0.9621
12671SOL    HW238857   0.910   6.790   5.738 -0.0396 -0.9700  1.6581
12672SOL     OW38858   0.017   1.615   1.920  0.3994 -0.1587  0.2872
12672SOL    HW138859  -0.010   1.523   1.911  0.5408 -0.1968  0.2526
12672SOL    HW238860   0.045   1.641   1.833 -0.3935  0.1597  0.1223
12673SOL     OW38861   6.860   5.177   2.034 -0.2773  0.3594 -0.2437
12673SOL    HW138862   6.916   5.103   2.013 -1.3627 -0.5858  0.0903
12673SOL    HW238863   6.843   5.218   1.949 -0.4125 -0.3367 -0.5637
12674SOL     OW38864   4.928   4.005   3.024 -0.5128 -0.7009  0.4935
12674SOL    HW138865   5.017   3.990   3.057 -0.2759 -0.6359 -0.1011
12674SOL    HW238866   4.875   4.017   3.102  0.6378  3.0463  0.9019
12675SOL     OW38867   7.149   0.441   5.461 -0.0117  0.1602 -0.5199
12675SOL    HW138868   7.117   0.379   5.526  0.4195  1.1825  0.6976
12675SOL    HW238869   7.197   0.506   5.511  1.2140  0.4319 -1.9778
12676SOL     OW38870   2.602   6.049   3.852 -0.3654 -0.6682 -0.5129
12676SOL    HW138871   2.674   6.111   3.842 -2.2496  1.7563 -0.1731
12676SOL    HW238872   2.641   5.972   3.893  1.7692  1.1675  1.1798
12677SOL     OW38873   6.781   2.011   6.836 -0.4995  0.7238 -0.0757
12677SOL    HW138874   6.780   2.056   6.921 -0.7628  0.7773 -0.1077
12677SOL    HW238875   6.874   2.006   6.814 -0.4522  1.0542  0.0354
12678SOL     OW38876   3.250   2.306   8.029  0.6593 -0.1413  0.2205
12678SOL    HW138877   3.246   2.219   8.070 -0.8241 -0.6893 -0.9968
12678SOL    HW238878   3.243   2.289   7.935 -0.8242  1.3283  0.0151
12679SOL     OW38879   4.657   5.089   5.415  0.0268  0.0227 -0.2798
12679SOL    HW138880   4.666   5.100   5.510 -1.3896 -0.9356 -0.0059
12679SOL    HW238881   4.707   5.161   5.378  1.5524 -0.2236  1.1723
12680SOL     OW38882   4.008   1.604   1.687  0.0688  0.3251 -0.0533
12680SOL    HW138883   3.919   1.633   1.710 -0.0485 -0.3593  0.3824
12680SOL    HW238884   4.030   1.655   1.610 -0.4198  1.0382  0.2614
12681SOL     OW38885   5.494   0.539   4.170  0.0169  0.5242  0.2605
12681SOL    HW138886   5.483   0.596   4.246 -4.4257 -0.3688  0.5222
12681SOL    HW238887   5.506   0.452   4.208  1.7632  0.5549 -0.1461
12682SOL     OW38888   0.616   6.941   6.281  0.0347  0.1354  0.0179
12682SOL    HW138889   0.698   6.927   6.328 -0.9804 -0.2643  1.7687
12682SOL    HW238890   0.614   7.035   6.264  1.2164  0.0369 -0.7990
12683SOL     OW38891   6.984   3.253   1.096 -0.3001 -0.2190  0.4316
12683SOL    HW138892   6.915   3.187   1.091 -0.4585 -0.0545  0.4438
12683SOL    HW238893   6.991   3.273   1.190  1.0791 -1.6221  0.6744
12684SOL     OW38894   7.730   1.148   4.025 -0.1026  0.0236  0.4659
12684SOL    HW138895   7.800   1.085   4.016 -0.1490 -0.0460  0.5869
12684SOL    HW238896   7.650   1.098   4.007 -0.1061  0.1533  0.1063
12685SOL     OW38897   1.532   2.721   0.373  0.1029  0.3524  0.3236
12685SOL    HW138898   1.493   2.808   0.360 -1.9395 -0.6495 -0.8449
12685SOL    HW238899   1.474   2.678   0.435  1.3258 -0.0871  1.2007
12686SOL     OW38900   3.840   0.788   7.721 -0.0322  0.5038  0.4652
12686SOL    HW138901   3.848   0.712   7.663 -0.4533 -0.0568  1.1217
12686SOL    HW238902   3.816   0.750   7.805 -3.2519  1.5582  0.1308
12687SOL     OW38903   4.647   5.472   4.529 -0.3584 -0.4924  0.0182
12687SOL    HW138904   4.669   5.481   4.436  1.0710 -1.6118  0.2120
12687SOL    HW238905   4.594   5.392   4.533 -0.1378 -0.6261  0.2215
12688SOL     OW38906   3.851   4.367   3.305  0.0875 -0.8328 -0.2058
12688SOL    HW138907   3.850   4.329   3.392  2.2171 -0.0662  0.2326
12688SOL    HW238908   3.881   4.457   3.319 -1.3684 -0.0860 -1.5610
12689SOL     OW38909   6.396   2.326   3.934  0.4058 -0.1116  0.5051
12689SOL    HW138910   6.361   2.354   3.850 -0.3535 -1.5796  0.2972
12689SOL    HW238911   6.398   2.406   3.987  0.0912  0.6675 -0.6307
12690SOL     OW38912   2.216   3.946   7.202  0.1553  0.0113  0.9171
12690SOL    HW138913   2.125   3.960   7.228  0.5666  0.3820  2.2171
12690SOL    HW238914   2.245   3.873   7.258  0.9957  0.6725  1.3591
12691SOL     OW38915   4.687   4.998   4.541  0.7420  0.1127 -0.3012
12691SOL    HW138916   4.741   4.935   4.589  0.7584  0.8637  0.6883
12691SOL    HW238917   4.606   4.950   4.522  0.7902 -0.2365  0.3601
12692SOL     OW38918   4.983   5.341   6.135 -0.3107 -0.2704  0.3391
12692SOL    HW138919   4.917   5.409   6.122  0.5239  0.2528 -1.5509
12692SOL    HW238920   4.935   5.259   6.119 -0.9997 -0.0586  1.2398
12693SOL     OW38921   6.586   0.470   2.775  0.5657 -0.2080 -0.1509
12693SOL    HW138922   6.654   0.420   2.729  0.8542  0.2380 -0.2143
12693SOL    HW238923   6.504   0.425   2.753  0.6660  0.1740 -1.3420
12694SOL     OW38924   5.520   3.370   4.364 -0.0974 -0.2535 -0.3914
12694SOL    HW138925   5.430   3.339   4.367  0.2423 -1.3578 -0.9670
12694SOL    HW238926   5.565   3.322   4.434  0.3403 -0.7664 -1.0076
12695SOL     OW38927   6.919   5.251   1.655  0.2231  0.5632 -0.0152
12695SOL    HW138928   6.932   5.160   1.628  1.4272  0.7195 -0.0147
12695SOL    HW238929   7.007   5.283   1.674 -0.3612  1.1546  1.9072
12696SOL     OW38930   7.781   0.265   8.036  0.2938  0.0940  0.1346
12696SOL    HW138931   7.820   0.178   8.030 -0.1499 -0.2688  1.9708
12696SOL    HW238932   7.730   0.274   7.955  1.4503 -0.7622 -0.7286
12697SOL     OW38933   0.887   2.978   5.996  0.7522  0.2321 -0.5407
12697SOL    HW138934   0.915   3.049   5.938  0.2143 -0.0781 -1.1852
12697SOL    HW238935   0.955   2.911   5.986  0.9709  0.4200 -0.3496
12698SOL     OW38936   0.402   3.267   3.847  0.0230 -0.2135 -0.2531
12698SOL    HW138937   0.427   3.183   3.886 -1.2524 -0.3338  0.3661
12698SOL    HW238938   0.477   3.324   3.863  1.7170 -1.7228 -2.3783
12699SOL     OW38939   1.963   5.132   3.606 -0.1737 -0.0129 -0.1267
12699SOL    HW138940   1.954   5.117   3.512 -0.5121 -3.0884  0.2975
12699SOL    HW238941   1.874   5.142   3.638 -0.0698  0.8323 -0.0742
12700SOL     OW38942   8.070   7.033   5.611  0.3491  0.1764  0.2297
12700SOL    HW138943   8.098   7.123   5.627  0.0555  0.3694 -0.3251
12700SOL    HW238944   8.009   7.039   5.537 -1.3454 -0.1940  1.5222
12701SOL     OW38945   6.981   8.179   6.854  0.2075 -0.8097 -0.0492
12701SOL    HW138946   6.968   8.173   6.949  1.6406 -1.4014  0.1375
12701SOL    HW238947   6.896   8.206   6.820  0.1819  1.4897  1.6036
12702SOL     OW38948   5.395   6.825   2.837 -0.0547 -0.0560  0.1979
12702SOL    HW138949   5.386   6.771   2.759  2.7265 -1.2707  0.6134
12702SOL    HW238950   5.478   6.872   2.825 -1.2937  2.4639  0.8640
12703SOL     OW38951   7.551   3.048   3.585 -0.3608 -0.2387 -0.0630
12703SOL    HW138952   7.605   3.093   3.650  0.7952  0.8634 -1.6993
12703SOL    HW238953   7.476   3.015   3.634  0.2230  0.9728  1.7262
12704SOL     OW38954   4.413   4.637   3.832 -0.7557  0.2160 -0.5321
12704SOL    HW138955   4.405   4.707   3.767  1.4380  1.8380  0.7956
12704SOL    HW238956   4.327   4.634   3.875 -1.0381  1.7970 -0.9260
12705SOL     OW38957   5.238   5.417   1.290 -0.4503  0.2165 -0.2111
12705SOL    HW138958   5.230   5.485   1.357 -0.6800 -0.0563  0.0431
12705SOL    HW238959   5.280   5.344   1.336 -3.5278 -1.2113  0.5898
12706SOL     OW38960   2.774   0.292   7.987  0.0237 -0.4324 -0.4562
12706SOL    HW138961   2.755   0.239   8.064 -0.6518 -0.1868 -0.4452
12706SOL    HW238962   2.786   0.229   7.916 -0.2193 -0.6159 -0.3326
12707SOL     OW38963   6.106   6.447   1.926 -0.4945  0.0241 -0.1480
12707SOL    HW138964   6.064   6.391   1.861  1.1759 -1.0615 -0.3329
12707SOL    HW238965   6.191   6.406   1.943  0.6665  2.3170 -0.0365
12708SOL     OW38966   4.205   1.623   6.644  0.3880  0.3980  0.3029
12708SOL    HW138967   4.275   1.562   6.619 -0.6472 -0.6591 -0.0759
12708SOL    HW238968   4.171   1.589   6.726 -0.0054  0.6367  0.2400
12709SOL     OW38969   7.514   1.679   1.790  0.3411  0.4878 -0.2179
12709SOL    HW138970   7.470   1.692   1.706 -0.7724 -1.5392 -0.0060
12709SOL    HW238971   7.570   1.603   1.776  0.4238  0.3568  0.7713
12710SOL     OW38972   0.002   3.699   4.306  0.2032 -0.2333 -0.2722
12710SOL    HW138973   0.043   3.615   4.287 -1.4786 -1.0943 -0.3221
12710SOL    HW238974  -0.006   3.743   4.221  2.7210  0.8529 -0.0522
12711SOL     OW38975   5.830   2.248   6.964 -0.5118 -0.4050 -0.0575
12711SOL    HW138976   5.805   2.326   7.013  1.5253  1.0204 -1.1817
12711SOL    HW238977   5.868   2.190   7.030  1.2674  1.0681  0.2811
12712SOL     OW38978   1.256   2.549   1.307 -0.0448 -0.6882  0.0950
12712SOL    HW138979   1.272   2.599   1.387  0.7437 -1.5891  0.5165
12712SOL    HW238980   1.338   2.503   1.290 -1.0154 -2.6301  0.3014
12713SOL     OW38981   3.898   7.196   4.363 -0.1476 -0.7699  0.1223
12713SOL    HW138982   3.853   7.170   4.282 -1.7454 -0.0749  0.7408
12713SOL    HW238983   3.987   7.216   4.336 -1.0113  0.8769 -1.7753
12714SOL     OW38984   7.973   0.634   5.909  0.1775 -0.4421  0.0400
12714SOL    HW138985   7.927   0.553   5.888 -0.0971 -0.2779  0.0079
12714SOL    HW238986   8.005   0.666   5.824 -1.5680  0.6099 -0.2577
12715SOL     OW38987   2.637   6.298   2.997  0.2817 -0.5289  0.7435
12715SOL    HW138988   2.596   6.231   3.052  0.5044  0.4920  2.2388
12715SOL    HW238989   2.719   6.260   2.968 -0.5220 -1.6457 -0.1526
12716SOL     OW38990   7.805   7.247   1.908 -1.0022 -0.1073  0.5532
12716SOL    HW138991   7.735   7.303   1.942  0.0466  0.6261  1.5538
12716SOL    HW238992   7.856   7.222   1.985 -1.3774 -2.3994  0.1355
12717SOL     OW38993   2.022   6.048   0.946 -0.2259  0.2002  0.1384
12717SOL    HW138994   1.999   6.126   0.895 -1.3364 -0.1531  0.0884
12717SOL    HW238995   1.960   5.981   0.917 -1.3229  0.1630  2.3917
12718SOL     OW38996   6.210   1.141   3.460  0.2718  0.2477 -0.3139
12718SOL    HW138997   6.126   1.169   3.421 -0.7769  0.3712  1.8831
12718SOL    HW238998   6.223   1.201   3.534  0.3370 -2.0918  1.6854
12719SOL     OW38999   6.004   6.913   3.323  0.0548  0.0044  0.0559
12719SOL    HW139000   6.048   6.974   3.382 -0.1551  0.7027 -0.4814
12719SOL    HW239001   6.066   6.898   3.252 -1.2192  2.6269 -1.7884
12720SOL     OW39002   5.392   1.918   4.897  0.0604  0.2791 -0.0408
12720SOL    HW139003   5.446   1.983   4.942 -0.4044  1.0960 -0.6398
12720SOL    HW239004   5.307   1.960   4.886 -0.7758 -1.0436  1.0189
12721SOL     OW39005   0.932   0.752   6.838 -0.2110 -0.4272  0.3821
12721SOL    HW139006   0.881   0.806   6.898 -0.0435  0.6078 -0.3837
12721SOL    HW239007   1.022   0.783   6.848 -0.2036 -0.1405 -0.4980
12722SOL     OW39008   2.231   6.409   1.558  0.1324 -0.2017  0.1422
12722SOL    HW139009   2.139   6.403   1.583 -0.1434 -0.7727 -0.9690
12722SOL    HW239010   2.241   6.499   1.527 -0.2013 -0.3244 -0.3237
12723SOL     OW39011   1.356   4.308   5.637  0.2014 -0.2148  0.5166
12723SOL    HW139012   1.449   4.287   5.633  0.0090 -1.0426  0.1036
12723SOL    HW239013   1.338   4.353   5.554  0.3107  0.3172  0.7751
12724SOL     OW39014   7.491   7.422   8.143 -0.0470 -0.2774 -0.0588
12724SOL    HW139015   7.437   7.442   8.219  2.0234  0.8447  1.2243
12724SOL    HW239016   7.456   7.475   8.072  0.2228  1.5425  1.1244
12725SOL     OW39017   3.847   1.596   5.140  0.0863  0.1098 -0.2098
12725SOL    HW139018   3.826   1.651   5.216 -0.4583 -2.4348  1.6362
12725SOL    HW239019   3.831   1.651   5.064  0.4366  2.7313  1.5066
12726SOL     OW39020   0.523   7.662   5.247  0.6913 -0.3793  0.1500
12726SOL    HW139021   0.498   7.618   5.166  0.9192  0.6045 -0.4777
12726SOL    HW239022   0.440   7.683   5.290  0.5858 -2.6178  1.1653
12727SOL     OW39023   1.244   0.059   5.077 -0.1699  0.1320 -0.0573
12727SOL    HW139024   1.186   0.015   5.139  0.1070 -0.1093  0.0335
12727SOL    HW239025   1.278  -0.011   5.022  1.8395 -0.0761  1.3516
12728SOL     OW39026   7.187   8.064   1.979  0.4090  0.4719 -0.3921
12728SOL    HW139027   7.264   8.121   1.981  1.5909 -1.0750  0.4719
12728SOL    HW239028   7.154   8.063   2.069  0.3070 -0.0695 -0.4283
12729SOL     OW39029   4.726   1.605   6.012 -0.4551  0.3539  0.1140
12729SOL    HW139030   4.798   1.566   6.062 -0.2428 -0.4210 -0.7790
12729SOL    HW239031   4.701   1.682   6.063  1.3402  0.9255  0.1976
12730SOL     OW39032   1.457   5.279   6.943  0.2091  0.1074 -0.2652
12730SOL    HW139033   1.429   5.368   6.959 -2.0313 -0.4398 -0.8898
12730SOL    HW239034   1.409   5.226   7.007  1.7517 -0.6466  0.3290
12731SOL     OW39035   2.546   7.428   2.251  0.3755 -0.4815  0.1120
12731SOL    HW139036   2.622   7.428   2.193  0.2436 -0.7401 -0.0576
12731SOL    HW239037   2.477   7.386   2.201 -0.0742  0.3382  0.0143
12732SOL     OW39038   1.347   6.754   5.071 -0.2855 -0.4907 -0.1159
12732SOL    HW139039   1.299   6.759   4.988 -4.5476  0.7832  2.1066
12732SOL    HW239040   1.334   6.663   5.100  0.2431 -0.6392 -0.3449
12733SOL     OW39041   6.281   8.163   1.631 -0.5012 -0.1194  0.3717
12733SOL    HW139042   6.210   8.225   1.650 -0.4427  0.0114  0.1747
12733SOL    HW239043   6.275   8.098   1.700 -1.8019 -0.9884 -0.5104
12734SOL     OW39044   2.873   6.608   5.750  0.3362  0.1662  0.2282
12734SOL    HW139045   2.835   6.629   5.835 -1.1666 -1.2322 -0.0681
12734SOL    HW239046   2.871   6.691   5.702  0.8997  0.8927  1.4132
12735SOL     OW39047   7.983   0.460   1.718  0.2958 -0.4938  0.1386
12735SOL    HW139048   7.984   0.378   1.669 -1.0623 -1.0047  0.9146
12735SOL    HW239049   8.050   0.448   1.786 -0.9883 -1.6530  1.2646
12736SOL     OW39050   8.170   2.579   5.962  1.0547  0.2603 -0.0232
12736SOL    HW139051   8.118   2.523   5.904  0.5285 -0.5336  1.1671
12736SOL    HW239052   8.252   2.532   5.974 -0.1537 -1.3790  2.6084
12737SOL     OW39053   2.955   5.034   3.367  0.0820  0.1586 -0.4258
12737SOL    HW139054   3.008   5.107   3.337 -1.7998  2.2440  0.9942
12737SOL    HW239055   2.990   5.013   3.453 -0.0832  0.1472 -0.3606
12738SOL     OW39056   0.672   6.572   4.146 -0.0492  0.2427 -0.9456
12738SOL    HW139057   0.599   6.510   4.146 -0.5868  0.8312  0.3631
12738SOL    HW239058   0.679   6.601   4.055 -0.6950 -0.6768 -1.3066
12739SOL     OW39059   0.364   3.480   5.109  0.3748 -0.0648 -0.2905
12739SOL    HW139060   0.371   3.430   5.191 -1.0807 -1.2508 -0.8453
12739SOL    HW239061   0.291   3.440   5.063 -0.7859  2.5194 -0.8549
12740SOL     OW39062   0.894   6.830   6.203 -0.1494 -0.8347  0.3493
12740SOL    HW139063   0.827   6.877   6.154  2.2459  0.3762 -1.9520
12740SOL    HW239064   0.849   6.753   6.236 -2.8792  0.3585 -0.3113
12741SOL     OW39065   6.232   5.175   1.539 -0.6689  0.1953 -0.5639
12741SOL    HW139066   6.244   5.255   1.488  1.4102  0.9292  0.9094
12741SOL    HW239067   6.237   5.105   1.475  0.1672  1.1611 -1.5978
12742SOL     OW39068   1.775   1.695   2.209 -0.3645 -0.6613 -0.0669
12742SOL    HW139069   1.760   1.602   2.191 -0.6495 -0.7666  0.6572
12742SOL    HW239070   1.728   1.711   2.291  1.0801 -0.2767  0.7186
12743SOL     OW39071   7.041   2.631   2.845  0.3177 -0.0561  0.0038
12743SOL    HW139072   6.968   2.691   2.830  0.3430 -0.1119 -0.3599
12743SOL    HW239073   7.030   2.563   2.779  0.5585 -0.1988  0.1080
12744SOL     OW39074   3.403   6.967   0.434 -0.0040 -0.8802 -0.1663
12744SOL    HW139075   3.323   6.986   0.386  1.3289  2.0984 -1.4805
12744SOL    HW239076   3.391   7.010   0.519  0.0854 -0.6095 -0.2874
12745SOL     OW39077   0.474   4.971   2.763  0.0756  0.2429  0.1796
12745SOL    HW139078   0.510   4.941   2.680 -0.3546 -0.9707  0.4161
12745SOL    HW239079   0.512   4.913   2.828 -0.8105  0.1637  0.6452
12746SOL     OW39080   5.504   4.528   0.444 -0.2467  0.3613 -0.4172
12746SOL    HW139081   5.548   4.443   0.443 -2.9131 -1.1247 -1.9893
12746SOL    HW239082   5.503   4.555   0.352 -0.2626  1.6680 -0.0576
12747SOL     OW39083   6.394   0.367   7.025  0.4260  0.0196 -0.0914
12747SOL    HW139084   6.429   0.456   7.020  2.5930 -0.7749 -0.3316
12747SOL    HW239085   6.393   0.336   6.935 -0.9196 -0.0224 -0.0844
12748SOL     OW39086   5.197   4.224   4.249 -0.3381 -0.0988 -0.3386
12748SOL    HW139087   5.246   4.293   4.293  1.1568 -1.1753 -0.2335
12748SOL    HW239088   5.210   4.147   4.304 -1.6852 -0.5647 -0.6361
12749SOL     OW39089   8.115   5.747   2.574 -0.0915 -0.1986  0.4616
12749SOL    HW139090   8.144   5.681   2.512  1.6150  0.7115  0.2438
12749SOL    HW239091   8.159   5.724   2.656 -1.8634 -1.0502  1.2242
12750SOL     OW39092   7.959   5.002   6.187  0.8179 -0.1719  0.1177
12750SOL    HW139093   8.031   4.974   6.130 -0.2827 -0.3135 -1.2506
12750SOL    HW239094   7.962   4.940   6.260  0.4332 -1.8963 -1.2598
12751SOL     OW39095   2.684   6.603   4.578  0.0543  0.1148  0.2807
12751SOL    HW139096   2.657   6.692   4.601  1.4496  0.1446  1.9878
12751SOL    HW239097   2.748   6.615   4.508 -0.9926  0.2994 -0.6903
12752SOL     OW39098   0.577   0.879   2.985 -0.1156  0.6842 -0.7195
12752SOL    HW139099   0.657   0.849   2.942 -0.6446  0.4066 -1.5408
12752SOL    HW239100   0.536   0.936   2.920  1.0574  3.6320  0.9117
12753SOL     OW39101   2.263   0.164   2.100  0.4975 -0.1443 -0.1311
12753SOL    HW139102   2.305   0.144   2.184 -1.4786 -1.5934  0.6309
12753SOL    HW239103   2.204   0.237   2.120 -0.4584 -0.9153 -0.0439
12754SOL     OW39104   3.649   0.805   8.204  0.8049 -0.3036  0.0350
12754SOL    HW139105   3.565   0.802   8.249 -0.8193 -0.7227 -2.8092
12754SOL    HW239106   3.711   0.764   8.265 -0.7643  1.0022  2.6461
12755SOL     OW39107   4.997   7.551   7.159 -0.1592 -0.5788 -0.7174
12755SOL    HW139108   5.044   7.634   7.166 -1.1930  0.0340 -0.8463
12755SOL    HW239109   5.002   7.513   7.246 -0.6701  0.1849 -0.3439
12756SOL     OW39110   5.658   7.093   1.671  0.2846 -0.4882 -0.2548
12756SOL    HW139111   5.573   7.137   1.672  0.3274 -0.3551  1.6203
12756SOL    HW239112   5.660   7.044   1.589 -1.3368  0.0067 -0.6096
12757SOL     OW39113   2.664   3.784   5.612  0.0684 -0.2857 -0.7096
12757SOL    HW139114   2.667   3.706   5.667 -0.8980 -1.1186 -1.7795
12757SOL    HW239115   2.577   3.780   5.570  0.3029  0.9584 -1.3527
12758SOL     OW39116   4.952   5.846   5.940 -0.1254  0.3045  0.7894
12758SOL    HW139117   4.867   5.805   5.924 -0.2033  1.0156 -0.8621
12758SOL    HW239118   4.932   5.940   5.948  0.3460  0.3248  1.9050
12759SOL     OW39119   6.570   0.434   4.872 -0.3049  0.1770 -0.2450
12759SOL    HW139120   6.652   0.479   4.852  0.0350 -0.3702 -0.0938
12759SOL    HW239121   6.524   0.430   4.788 -0.1726  0.4722 -0.3343
12760SOL     OW39122   0.348   4.161   3.901  0.0625 -0.4900  0.0209
12760SOL    HW139123   0.372   4.069   3.898  0.5089 -0.3530 -1.1265
12760SOL    HW239124   0.300   4.171   3.983 -0.0820 -1.7608  0.1038
12761SOL     OW39125   0.404   5.708   3.152  0.0699 -0.6093 -0.1786
12761SOL    HW139126   0.465   5.770   3.191 -0.7355 -1.1914  2.1855
12761SOL    HW239127   0.318   5.734   3.187 -0.4471 -2.2640 -0.1276
12762SOL     OW39128   2.413   0.099   2.393 -0.0124  1.0964  0.3093
12762SOL    HW139129   2.461   0.174   2.357  0.7562  1.0798  1.2451
12762SOL    HW239130   2.482   0.034   2.413 -0.7661 -0.5064 -1.8637
12763SOL     OW39131   5.164   5.880   4.669  0.0524 -0.1060  0.1335
12763SOL    HW139132   5.076   5.872   4.705 -0.5161  0.1951 -1.1232
12763SOL    HW239133   5.195   5.790   4.660 -0.9245 -0.3453 -1.2349
12764SOL     OW39134   3.808   4.330   4.883  0.1212  0.1316 -0.9327
12764SOL    HW139135   3.788   4.368   4.968  1.7990 -0.8907 -0.0380
12764SOL    HW239136   3.722   4.312   4.844 -0.6967 -0.6899  1.1278
12765SOL     OW39137   4.896   1.600   1.267 -0.4096 -0.0548 -0.1995
12765SOL    HW139138   4.857   1.553   1.194 -2.8652  3.2303 -1.2256
12765SOL    HW239139   4.823   1.645   1.310  1.3045  0.2945  2.6805
12766SOL     OW39140   6.101   5.003   3.253 -0.6809  0.6246 -0.3910
12766SOL    HW139141   6.124   4.915   3.283 -0.8640  0.7929  0.2646
12766SOL    HW239142   6.106   4.998   3.158  0.1311  0.1347 -0.3321
12767SOL     OW39143   6.426   3.740   1.984 -0.3348  0.1724 -0.2397
12767SOL    HW139144   6.411   3.651   2.016 -1.3059  0.2201 -0.5256
12767SOL    HW239145   6.343   3.764   1.941  0.4079  0.6673 -1.4537
12768SOL     OW39146   3.042   3.167   4.410  0.0379  0.0974 -0.0187
12768SOL    HW139147   2.986   3.203   4.341 -0.2297  1.5629  0.9307
12768SOL    HW239148   3.050   3.074   4.388 -1.5239  0.1685 -1.0154
12769SOL     OW39149   4.462   1.976   0.421 -0.1152 -0.4662 -0.8669
12769SOL    HW139150   4.373   1.977   0.386 -1.0718  0.0117  1.3781
12769SOL    HW239151   4.491   2.068   0.416 -0.3422 -0.3569 -0.2243
12770SOL     OW39152   5.821   5.820   4.281  0.1716 -0.1038  0.4721
12770SOL    HW139153   5.756   5.845   4.215 -0.5868  1.2612  1.6870
12770SOL    HW239154   5.849   5.732   4.254 -0.2774  0.3062 -1.5132
12771SOL     OW39155   7.241   1.561   7.566 -0.1561  0.2706  0.6002
12771SOL    HW139156   7.220   1.630   7.503  1.3276  1.6046  1.5087
12771SOL    HW239157   7.332   1.577   7.590  0.1864 -1.9251  0.9753
12772SOL     OW39158   4.938   2.428   4.764 -0.1235 -0.0562 -0.3560
12772SOL    HW139159   5.033   2.434   4.751 -0.0191 -1.1676 -0.2267
12772SOL    HW239160   4.928   2.397   4.854 -0.6767  1.7750  0.2489
12773SOL     OW39161   4.683   0.524   7.462 -0.4918  0.4055 -0.3393
12773SOL    HW139162   4.634   0.485   7.534 -0.3441 -1.6223 -1.2633
12773SOL    HW239163   4.762   0.560   7.504 -1.4857  1.3405  0.7898
12774SOL     OW39164   3.832   4.284   0.876  0.5233 -0.3221  0.7201
12774SOL    HW139165   3.923   4.281   0.905  0.6746  0.4860  0.3594
12774SOL    HW239166   3.829   4.357   0.815  0.1129 -1.6887 -0.9632
12775SOL     OW39167   6.584   3.436   6.851 -0.0763 -0.4441  0.3032
12775SOL    HW139168   6.612   3.392   6.931 -0.4091 -0.1582  0.5758
12775SOL    HW239169   6.560   3.364   6.792  0.0021 -0.6479  0.5170
12776SOL     OW39170   4.267   0.566   2.249  0.2960 -0.1949 -0.5270
12776SOL    HW139171   4.259   0.632   2.180 -0.4453  1.2698  0.8663
12776SOL    HW239172   4.197   0.503   2.231 -1.7545  1.6780  0.3602
12777SOL     OW39173   5.868   4.239   0.323  0.2700 -0.4538  0.1492
12777SOL    HW139174   5.905   4.191   0.398 -0.0034 -2.6108 -1.0216
12777SOL    HW239175   5.778   4.259   0.349  0.4298 -0.4459  0.7090
12778SOL     OW39176   3.655   3.871   0.676  0.3218  0.0594 -0.3345
12778SOL    HW139177   3.706   3.807   0.626 -0.0737 -0.1393 -0.4856
12778SOL    HW239178   3.566   3.837   0.675  0.1593  0.4760 -0.1863
12779SOL     OW39179   4.186   5.951   0.865 -0.5075  0.1648 -0.2041
12779SOL    HW139180   4.097   5.981   0.847  0.1381  1.4274 -1.5256
12779SOL    HW239181   4.224   5.937   0.778  0.5827 -0.3795  0.3422
12780SOL     OW39182   1.941   6.346   7.224  0.7321  0.1836 -0.3479
12780SOL    HW139183   1.982   6.263   7.247 -1.1740 -1.1216 -1.4143
12780SOL    HW239184   1.878   6.363   7.294  1.2087  0.8256 -0.0602
12781SOL     OW39185   1.665   6.509   5.397 -0.0889  0.1667 -0.3250
12781SOL    HW139186   1.688   6.474   5.311 -0.9022  1.8542 -1.2735
12781SOL    HW239187   1.577   6.545   5.386 -0.8791 -0.9958  1.6664
12782SOL     OW39188   4.551   1.637   1.472 -0.1636  0.1781 -0.1174
12782SOL    HW139189   4.516   1.701   1.410 -0.6107 -0.0846 -0.1355
12782SOL    HW239190   4.578   1.563   1.418  1.7760  0.9472 -0.2687
12783SOL     OW39191   2.692   3.964   3.932 -0.0024 -0.5945 -0.1526
12783SOL    HW139192   2.683   3.885   3.986 -0.0319  0.1943  1.0380
12783SOL    HW239193   2.718   3.931   3.846  0.4618 -1.8676  0.4449
12784SOL     OW39194   7.276   8.165   1.096 -0.2832 -0.2351  0.1604
12784SOL    HW139195   7.310   8.115   1.171 -2.9842 -2.3276  0.1548
12784SOL    HW239196   7.336   8.143   1.024  0.5567 -0.7051  0.9686
12785SOL     OW39197   5.542   6.692   7.079 -0.0264  0.0147 -0.0764
12785SOL    HW139198   5.511   6.673   7.168 -0.6587 -0.0613 -0.3068
12785SOL    HW239199   5.466   6.729   7.035  0.4767  0.6737 -0.3935
12786SOL     OW39200   7.629   4.349   2.979  0.6287 -0.2006  0.2320
12786SOL    HW139201   7.667   4.265   2.953  1.0862 -0.0679  0.4730
12786SOL    HW239202   7.575   4.327   3.056 -0.0429 -0.4422 -0.2973
12787SOL     OW39203   2.556   6.810   3.738  0.1587 -0.1395  0.2042
12787SOL    HW139204   2.519   6.819   3.650 -0.7409 -0.3412  0.5428
12787SOL    HW239205   2.641   6.852   3.733  0.2886 -0.4929 -0.8648
12788SOL     OW39206   8.201   8.093   2.029  0.1405 -0.6217 -0.1006
12788SOL    HW139207   8.290   8.076   1.996 -0.4081  0.8683 -2.6037
12788SOL    HW239208   8.151   8.015   2.003  0.5024 -1.0735  0.5299
12789SOL     OW39209   5.955   4.671   6.035  0.4767  0.2724 -0.0813
12789SOL    HW139210   6.037   4.713   6.061 -0.1889  0.5611  1.6819
12789SOL    HW239211   5.891   4.742   6.037 -0.0488 -0.1921 -0.2374
12790SOL     OW39212   7.800   3.731   7.130 -0.0669  0.2768  0.1316
12790SOL    HW139213   7.786   3.670   7.202 -0.1241  1.0541  0.7915
12790SOL    HW239214   7.893   3.752   7.135 -0.0176  0.1405 -0.1836
12791SOL     OW39215   1.996   3.050   2.962 -0.0614 -0.0285 -0.0854
12791SOL    HW139216   2.078   3.095   2.944 -0.1056 -0.0615 -0.3723
12791SOL    HW239217   1.979   2.998   2.884  0.5674 -1.4316  0.6736
12792SOL     OW39218   2.980   7.492   3.938 -0.1415  0.3039  0.7471
12792SOL    HW139219   2.975   7.538   4.022 -0.1449 -0.5063  1.2015
12792SOL    HW239220   3.046   7.423   3.953 -1.0523 -0.6437  0.4873
12793SOL     OW39221   3.530   2.338   0.382 -0.0615 -1.1031  0.3908
12793SOL    HW139222   3.562   2.308   0.297 -1.1361 -0.8201 -0.1369
12793SOL    HW239223   3.508   2.258   0.429 -1.1608 -1.2315 -0.3038
12794SOL     OW39224   4.802   7.555   2.867 -0.8418  0.2326  0.1023
12794SOL    HW139225   4.809   7.510   2.783 -0.3499  0.6956 -0.1047
12794SOL    HW239226   4.741   7.627   2.851  2.2390  2.8387 -0.9928
12795SOL     OW39227   7.427   5.231   2.119  0.1349  0.3610 -0.3483
12795SOL    HW139228   7.378   5.230   2.201 -0.3126  2.0394 -0.5645
12795SOL    HW239229   7.487   5.157   2.126 -1.0503 -0.5256  0.7691
12796SOL     OW39230   2.308   2.411   1.782  0.6035  0.5237 -0.0676
12796SOL    HW139231   2.249   2.399   1.856 -0.0261  0.8991 -0.5013
12796SOL    HW239232   2.396   2.413   1.821  0.2693  0.8946  0.6817
12797SOL     OW39233   3.617   4.606   3.804  0.3609  0.1485 -0.4126
12797SOL    HW139234   3.602   4.532   3.746  0.2179  0.0021 -0.1896
12797SOL    HW239235   3.619   4.568   3.892  2.1269  0.1472 -0.4312
12798SOL     OW39236   2.743   6.015   7.538  0.1445  0.3266  0.3931
12798SOL    HW139237   2.716   6.074   7.608 -1.2617  0.2728 -0.0792
12798SOL    HW239238   2.806   6.066   7.487  0.1769  0.8288  0.9243
12799SOL     OW39239   3.992   3.878   6.697 -0.2180  0.0650  0.0418
12799SOL    HW139240   3.959   3.932   6.769  0.3258 -0.5621  0.7679
12799SOL    HW239241   3.918   3.822   6.674 -0.0341 -0.5516  0.9104
12800SOL     OW39242   2.068   0.397   3.936 -0.2804 -0.1977 -0.0989
12800SOL    HW139243   2.022   0.339   3.875  1.5248 -1.3935 -0.3686
12800SOL    HW239244   2.071   0.348   4.018  2.2677 -1.0670 -0.6412
12801SOL     OW39245   6.924   8.019   6.253 -0.2983  0.3202  0.0277
12801SOL    HW139246   6.933   7.982   6.341  0.5889 -1.4240 -0.7433
12801SOL    HW239247   6.845   8.073   6.258  0.3353  1.1750  2.1693
12802SOL     OW39248   1.946   0.388   3.608  0.2995 -0.1653  0.4551
12802SOL    HW139249   2.037   0.388   3.635 -0.2383 -1.7223  2.5579
12802SOL    HW239250   1.917   0.298   3.620 -1.9982  0.6495  1.7551
12803SOL     OW39251   5.437   1.100   4.961  0.2479  0.6324 -0.0427
12803SOL    HW139252   5.377   1.026   4.958 -1.2333  1.7912 -0.0171
12803SOL    HW239253   5.382   1.177   4.943  1.6841  1.7580  0.1793
12804SOL     OW39254   7.410   7.911   1.163 -0.3659 -0.5132 -0.0257
12804SOL    HW139255   7.389   7.881   1.075 -0.8239  1.0053 -0.4643
12804SOL    HW239256   7.328   7.903   1.211 -0.2794 -0.7263  0.0890
12805SOL     OW39257   7.157   6.103   1.498  0.9348  0.4607  0.2313
12805SOL    HW139258   7.082   6.157   1.472  1.6788  2.3792  1.8209
12805SOL    HW239259   7.126   6.052   1.572  0.2428 -1.4018 -1.2489
12806SOL     OW39260   7.387   7.145   7.738  0.3869 -0.1736 -0.0444
12806SOL    HW139261   7.351   7.072   7.688  1.8339 -0.5997 -0.4810
12806SOL    HW239262   7.357   7.128   7.828  0.0919 -0.8937 -0.2673
12807SOL     OW39263   4.451   4.283   0.606  0.2323 -0.5529 -0.3488
12807SOL    HW139264   4.518   4.269   0.673  1.8719 -0.0516 -1.8275
12807SOL    HW239265   4.426   4.375   0.615 -0.6341 -0.8453  0.4855
12808SOL     OW39266   2.715   6.956   1.260 -0.0682 -0.1325 -0.5048
12808SOL    HW139267   2.752   6.916   1.338 -0.9300  2.1406  1.1707
12808SOL    HW239268   2.699   6.883   1.200  3.4015 -1.6355  0.1897
12809SOL     OW39269   6.713   3.420   6.572  0.0891  0.1352 -0.0797
12809SOL    HW139270   6.676   3.340   6.609 -1.1679  0.8537  0.2456
12809SOL    HW239271   6.709   3.484   6.643  1.0553  0.5149 -0.3424
12810SOL     OW39272   1.271   4.095   1.235  0.0437 -0.5704 -0.2109
12810SOL    HW139273   1.364   4.086   1.257  0.2526  0.3348 -0.6481
12810SOL    HW239274   1.244   4.008   1.205  0.9262 -0.6830 -0.7037
12811SOL     OW39275   6.698   6.527   5.378  0.2588 -0.0356 -0.6889
12811SOL    HW139276   6.700   6.609   5.329  1.0357 -0.5381 -1.5216
12811SOL    HW239277   6.712   6.553   5.469 -0.9469  0.8838 -0.7447
12812SOL     OW39278   5.391   3.698   3.141 -0.6620  0.3068 -0.1536
12812SOL    HW139279   5.349   3.681   3.225 -0.8619  2.4669  0.2567
12812SOL    HW239280   5.484   3.679   3.155 -0.7604  0.2608  0.4288
12813SOL     OW39281   1.387   4.421   7.806  0.4068 -0.1099 -0.0112
12813SOL    HW139282   1.385   4.468   7.890 -1.1453  0.1242 -0.1418
12813SOL    HW239283   1.441   4.344   7.823 -0.2483 -0.3006  1.3583
12814SOL     OW39284   7.003   5.707   7.576  0.9246  0.3313  0.1128
12814SOL    HW139285   7.000   5.769   7.649  0.6760 -1.3948  1.6620
12814SOL    HW239286   6.975   5.624   7.615  1.0681 -0.7244 -1.9094
12815SOL     OW39287   1.520   1.616   0.483  0.8719 -0.3024  0.0655
12815SOL    HW139288   1.547   1.579   0.567  0.7785 -0.3983  0.0529
12815SOL    HW239289   1.519   1.711   0.498  0.5924 -0.3319  0.2514
12816SOL     OW39290   5.503   1.685   4.986  0.0093 -0.0611 -0.1639
12816SOL    HW139291   5.440   1.623   4.950 -0.5167  1.2790 -1.6708
12816SOL    HW239292   5.471   1.770   4.957  2.6876  0.6544 -1.2289
12817SOL     OW39293   4.690   0.556   7.902 -0.4119  0.3027  0.1628
12817SOL    HW139294   4.716   0.489   7.965 -2.0373 -0.6565 -0.1316
12817SOL    HW239295   4.597   0.569   7.918 -0.0106  3.0503  0.6737
12818SOL     OW39296   0.262   4.064   2.444  0.2949  0.5376 -0.5576
12818SOL    HW139297   0.299   3.980   2.470  1.9376  1.5156  0.4792
12818SOL    HW239298   0.195   4.042   2.379  0.1658 -1.5918  0.2245
12819SOL     OW39299   7.479   8.200   7.065  0.0604  0.2040  0.2795
12819SOL    HW139300   7.398   8.223   7.021 -0.4987 -1.2810  0.4611
12819SOL    HW239301   7.453   8.134   7.129  1.0040  1.5657  2.1622
12820SOL     OW39302   2.447   0.648   3.312  0.7201 -0.4913 -0.2728
12820SOL    HW139303   2.534   0.618   3.339  0.8095 -0.0643 -0.0747
12820SOL    HW239304   2.412   0.691   3.390  0.7608  0.2733 -0.6680
12821SOL     OW39305   0.199   4.724   4.004 -0.0823  0.8080  0.2137
12821SOL    HW139306   0.188   4.794   3.940  0.3332  0.3381 -0.3805
12821SOL    HW239307   0.143   4.653   3.971 -0.0719  0.6610  0.5134
12822SOL     OW39308   7.594   4.212   1.280  0.2631 -0.3058 -0.4854
12822SOL    HW139309   7.683   4.189   1.308  0.6144  0.0775 -1.2370
12822SOL    HW239310   7.580   4.162   1.200  0.2723  0.5275 -1.0296
12823SOL     OW39311   3.911   4.059   2.048 -0.0795  0.0531  0.1242
12823SOL    HW139312   3.893   4.129   2.111  0.2374 -0.3997  0.7240
12823SOL    HW239313   3.836   4.000   2.056  0.6909 -0.8103  1.2074
12824SOL     OW39314   7.553   6.650   3.554 -0.0637  0.1308 -0.3161
12824SOL    HW139315   7.526   6.581   3.615  1.7987  0.2135  0.7114
12824SOL    HW239316   7.476   6.668   3.501 -1.4717 -0.6756  1.3524
12825SOL     OW39317   2.593   4.415   2.947  0.5651  0.1435 -0.4923
12825SOL    HW139318   2.516   4.358   2.950  1.1340 -0.7395 -1.7143
12825SOL    HW239319   2.660   4.363   2.902  1.3096  1.5598 -1.0920
12826SOL     OW39320   6.105   6.112   0.384 -0.4391 -0.5073 -0.5552
12826SOL    HW139321   6.138   6.181   0.327  1.9697 -0.8218  0.3428
12826SOL    HW239322   6.121   6.030   0.336 -0.1667 -0.6489 -0.2259
12827SOL     OW39323   5.887   5.319   0.271  0.0234  0.1785  0.0632
12827SOL    HW139324   5.862   5.368   0.192 -0.1708 -1.1069 -0.6988
12827SOL    HW239325   5.947   5.252   0.239  0.8245  0.3378  1.1974
12828SOL     OW39326   2.857   7.846   5.027  0.6364 -0.2477  0.6858
12828SOL    HW139327   2.942   7.802   5.025  1.2315  0.9064 -0.2888
12828SOL    HW239328   2.822   7.825   5.113  2.8727  0.9901  2.0125
12829SOL     OW39329   3.981   4.005   3.914  0.4266  0.0389 -0.0397
12829SOL    HW139330   3.965   3.952   3.836 -1.6861 -0.0674  0.4140
12829SOL    HW239331   3.933   4.086   3.899  3.1999  1.7358 -0.5034
12830SOL     OW39332   7.612   5.474   1.838  0.2417  0.1479 -0.1208
12830SOL    HW139333   7.695   5.466   1.886 -1.1866 -0.6644  2.4298
12830SOL    HW239334   7.604   5.392   1.790  0.1536 -0.5567  1.0487
12831SOL     OW39335   0.551   7.109   3.488 -0.0538 -0.7747 -0.0777
12831SOL    HW139336   0.549   7.112   3.392 -0.2906 -1.4948 -0.1025
12831SOL    HW239337   0.631   7.156   3.512 -0.7659  0.7630 -0.5515
12832SOL     OW39338   5.527   3.920   2.861  0.2621  0.2129  0.2191
12832SOL    HW139339   5.534   3.962   2.947 -0.5666  1.2150 -0.1840
12832SOL    HW239340   5.456   3.966   2.818  0.4515 -0.5065 -0.8923
12833SOL     OW39341   3.980   6.529   7.485 -0.0950 -0.2078 -0.1372
12833SOL    HW139342   3.909   6.593   7.481 -0.0790 -0.1649  0.2310
12833SOL    HW239343   3.985   6.493   7.396 -1.0051 -0.6783 -0.0129
12834SOL     OW39344   7.657   7.759   4.594  0.1107 -0.6996  0.1600
12834SOL    HW139345   7.614   7.843   4.606 -2.4200 -2.0756  1.5766
12834SOL    HW239346   7.734   7.764   4.652  0.0397  0.6375  0.1758
12835SOL     OW39347   6.322   0.247   1.229 -0.6016  0.2264  0.2689
12835SOL    HW139348   6.382   0.186   1.271 -0.1909  0.3855 -0.0868
12835SOL    HW239349   6.247   0.193   1.204  0.4302 -0.4672 -1.4702
12836SOL     OW39350   2.112   7.995   7.295  0.1689 -0.1878 -0.1292
12836SOL    HW139351   2.017   8.000   7.305  0.3735  0.9769  1.5453
12836SOL    HW239352   2.140   8.086   7.284  0.9863 -0.6247 -1.9807
12837SOL     OW39353   4.395   7.089   6.882 -0.2915 -0.1445  0.4867
12837SOL    HW139354   4.329   7.159   6.890 -0.1633  0.5077 -2.7740
12837SOL    HW239355   4.413   7.084   6.788  1.6230 -2.8609  0.8914
12838SOL     OW39356   2.639   7.605   5.600 -0.5023  0.1735 -0.2772
12838SOL    HW139357   2.658   7.697   5.614 -0.6642  0.3528 -1.1803
12838SOL    HW239358   2.623   7.570   5.688  0.9325  0.6919  0.2173
12839SOL     OW39359   1.024   0.774   1.649  0.2814 -0.0759  0.3777
12839SOL    HW139360   0.941   0.728   1.642  0.3978 -0.5513  1.7666
12839SOL    HW239361   1.076   0.742   1.576  0.3763 -2.2503  1.3233
12840SOL     OW39362   3.150   6.214   1.105  0.1296  0.3160  0.3343
12840SOL    HW139363   3.232   6.196   1.151  0.3554 -1.0076 -0.5375
12840SOL    HW239364   3.112   6.128   1.088 -0.1396  0.7546 -1.5802
12841SOL     OW39365   6.704   1.086   0.655  0.0747  0.3210  0.6384
12841SOL    HW139366   6.728   1.013   0.713  0.3929  0.5635  0.8216
12841SOL    HW239367   6.692   1.160   0.715  0.0557  0.4888  0.4264
12842SOL     OW39368   7.842   0.175   2.483 -0.3194  0.6610 -0.4466
12842SOL    HW139369   7.768   0.233   2.497 -0.2467  0.9310 -1.1592
12842SOL    HW239370   7.900   0.223   2.424  0.7070  0.6904  0.5590
12843SOL     OW39371   3.520   7.027   3.885  0.2765  0.0193 -0.0728
12843SOL    HW139372   3.612   7.006   3.901 -0.1637 -1.0793  1.2656
12843SOL    HW239373   3.518   7.065   3.797  1.8397 -1.1339 -0.6415
12844SOL     OW39374   3.427   6.905   7.450 -0.1977  0.1860  0.2610
12844SOL    HW139375   3.494   6.952   7.400  0.1406 -0.1154  0.4270
12844SOL    HW239376   3.477   6.851   7.511 -0.5958 -0.0319  0.3924
12845SOL     OW39377   5.194   4.582   5.325  0.4345  0.2848  0.3671
12845SOL    HW139378   5.127   4.643   5.355  2.0972  1.8118  1.2097
12845SOL    HW239379   5.240   4.628   5.255  2.8667  0.8609  2.1954
12846SOL     OW39380   1.625   1.478   0.250  0.3060  0.2850 -0.2541
12846SOL    HW139381   1.585   1.493   0.336 -0.4867  2.5862 -0.9501
12846SOL    HW239382   1.690   1.409   0.266 -0.9535 -0.5473  1.8141
12847SOL     OW39383   6.545   0.540   6.373 -0.3876 -0.0431 -0.4885
12847SOL    HW139384   6.530   0.588   6.455  0.5949  0.7864 -0.7764
12847SOL    HW239385   6.571   0.608   6.310  0.7452 -0.9090 -0.9802
12848SOL     OW39386   2.368   0.193   7.100 -0.3821  0.1331  0.5098
12848SOL    HW139387   2.453   0.193   7.144  0.0647  0.4093 -0.3420
12848SOL    HW239388   2.357   0.103   7.069  0.6117  0.5958 -1.2791
12849SOL     OW39389   7.317   6.705   8.104 -0.6058 -0.5146  0.3123
12849SOL    HW139390   7.260   6.673   8.174 -0.7630 -1.6242 -0.2996
12849SOL    HW239391   7.260   6.713   8.027 -0.8441  2.3853  0.6721
12850SOL     OW39392   5.429   1.806   8.177  0.3560 -0.1364 -0.0861
12850SOL    HW139393   5.396   1.860   8.249  0.7407 -1.7034  1.3482
12850SOL    HW239394   5.469   1.868   8.116 -0.8087  1.3221  0.5888
12851SOL     OW39395   4.604   7.757   2.835 -0.5039  0.0623  0.0152
12851SOL    HW139396   4.678   7.812   2.857 -1.1156  2.2122 -2.7840
12851SOL    HW239397   4.528   7.802   2.871 -0.9189  0.7443 -1.5892
12852SOL     OW39398   7.182   5.878   1.174 -0.4051  0.1378 -0.1193
12852SOL    HW139399   7.151   5.963   1.143 -0.8308  0.9876  2.4218
12852SOL    HW239400   7.263   5.897   1.220 -0.9239 -0.6670  1.1992
12853SOL     OW39401   7.315   1.429   0.755 -0.3611 -0.1179 -0.2829
12853SOL    HW139402   7.239   1.408   0.808  0.7407 -1.5167  0.8338
12853SOL    HW239403   7.297   1.389   0.670 -1.1178  0.1016 -0.2324
12854SOL     OW39404   4.355   0.655   7.640 -0.1073 -0.2355  0.0577
12854SOL    HW139405   4.301   0.640   7.718 -1.8663 -1.2818 -1.2838
12854SOL    HW239406   4.422   0.588   7.644 -0.9293 -1.0776  0.0699
12855SOL     OW39407   3.382   0.781   0.006 -0.0849 -0.5209  0.1490
12855SOL    HW139408   3.339   0.700   0.036 -0.3660 -0.3788  0.1277
12855SOL    HW239409   3.377   0.776  -0.090 -2.5238  0.8011  0.1380
12856SOL     OW39410   7.148   7.771   7.517  0.3441 -0.3688  0.2087
12856SOL    HW139411   7.070   7.752   7.465  1.2923  0.5182 -1.6357
12856SOL    HW239412   7.114   7.803   7.601 -1.2393 -1.5632  0.0758
12857SOL     OW39413   1.552   3.255   7.741 -0.0060 -0.1464 -0.3896
12857SOL    HW139414   1.608   3.178   7.736  0.3539  0.0119  0.8635
12857SOL    HW239415   1.531   3.263   7.833 -0.4123  0.9922 -0.5691
12858SOL     OW39416   4.889   7.604   7.832  0.4466 -0.2940  0.1914
12858SOL    HW139417   4.947   7.670   7.871  2.3984 -1.1466 -1.1139
12858SOL    HW239418   4.838   7.652   7.767  2.6786 -0.1923 -1.5805
12859SOL     OW39419   3.115   4.775   3.606  1.3209 -0.7029 -0.0667
12859SOL    HW139420   3.102   4.869   3.593 -0.3303 -0.8794  0.0088
12859SOL    HW239421   3.159   4.768   3.690 -2.3039 -0.0556  2.1111
12860SOL     OW39422   3.351   4.086   3.562  0.4125  0.2415 -0.3356
12860SOL    HW139423   3.271   4.061   3.608 -0.3574  1.9106 -0.6845
12860SOL    HW239424   3.358   4.023   3.490 -0.5461  0.0161 -0.2445
12861SOL     OW39425   5.710   1.030   3.789  0.3674 -0.0583 -0.3095
12861SOL    HW139426   5.747   1.114   3.764 -0.6728  1.4503  2.8306
12861SOL    HW239427   5.615   1.042   3.782  0.2110 -1.2655 -0.5936
12862SOL     OW39428   0.333   5.069   2.395  0.4051 -0.6539 -0.1877
12862SOL    HW139429   0.355   5.083   2.303  0.3352 -1.5691 -0.3505
12862SOL    HW239430   0.324   4.975   2.403 -1.2663 -0.4861  0.3657
12863SOL     OW39431   8.066   1.035   4.324 -0.3122 -0.2022  0.2611
12863SOL    HW139432   7.979   1.032   4.364 -1.5279  1.3731 -2.0539
12863SOL    HW239433   8.089   1.128   4.324  1.5332 -0.5975  1.0062
12864SOL     OW39434   2.121   3.614   0.673 -0.2175 -0.0780 -0.3347
12864SOL    HW139435   2.194   3.622   0.611  1.0628 -0.7414  1.0191
12864SOL    HW239436   2.101   3.521   0.673 -0.0331 -0.1193  0.4254
12865SOL     OW39437   2.478   5.628   3.054 -0.3035  0.2734 -0.1615
12865SOL    HW139438   2.410   5.584   3.004 -0.8117 -0.4070  1.0887
12865SOL    HW239439   2.493   5.710   3.007 -1.3948  0.0570 -0.9210
12866SOL     OW39440   0.409   2.311   0.494 -0.4341  0.2543  0.4933
12866SOL    HW139441   0.390   2.219   0.473 -1.5661  0.5890 -0.0170
12866SOL    HW239442   0.345   2.361   0.443  0.8654  1.3897 -0.0726
12867SOL     OW39443   7.206   0.062   4.546  0.1276 -0.2808 -0.3577
12867SOL    HW139444   7.174   0.115   4.619 -2.0846 -0.6535 -0.9661
12867SOL    HW239445   7.247  -0.014   4.588 -0.3319 -0.0650  0.5093
12868SOL     OW39446   4.278   1.093   5.607  0.2389  0.2679 -0.1322
12868SOL    HW139447   4.185   1.112   5.594 -0.0584 -1.3211 -0.4867
12868SOL    HW239448   4.279   1.029   5.678  1.1982  1.5102  1.0223
12869SOL     OW39449   3.926   1.027   6.590 -0.1607 -0.2539  0.2062
12869SOL    HW139450   3.866   1.032   6.665 -0.2505 -1.3422  0.2240
12869SOL    HW239451   3.898   1.097   6.532 -1.3400 -0.6109  0.3087
12870SOL     OW39452   0.733   7.163   0.208 -0.0998 -0.7504  0.1829
12870SOL    HW139453   0.697   7.084   0.248 -0.9544  0.3572  1.7252
12870SOL    HW239454   0.802   7.190   0.269  2.0808 -1.7290 -1.7075
12871SOL     OW39455   2.645   4.037   1.803 -0.6539 -0.0315  0.1247
12871SOL    HW139456   2.572   4.070   1.856 -0.0886 -0.2604  1.0838
12871SOL    HW239457   2.708   4.005   1.868  0.5538  0.6846 -0.6574
12872SOL     OW39458   1.960   6.510   3.317  0.2139 -0.4843  0.2441
12872SOL    HW139459   2.045   6.546   3.296  0.2354 -0.0353  1.0505
12872SOL    HW239460   1.904   6.586   3.333  0.1454 -0.7754  1.5145
12873SOL     OW39461   5.508   5.451   3.860  0.5140  0.5466  0.3729
12873SOL    HW139462   5.476   5.368   3.897  1.9397 -0.2028 -0.0158
12873SOL    HW239463   5.538   5.428   3.772  1.0452  1.4503  0.3128
12874SOL     OW39464   1.075   5.989   4.820 -0.4939  0.5079  0.3861
12874SOL    HW139465   1.037   5.909   4.855  1.1446 -1.1417 -1.3425
12874SOL    HW239466   1.004   6.053   4.824 -3.4627 -2.2285 -2.2935
12875SOL     OW39467   1.608   6.240   0.147  0.7115 -0.1306 -1.0182
12875SOL    HW139468   1.558   6.176   0.096  0.2848  0.3315 -1.1868
12875SOL    HW239469   1.542   6.292   0.192  1.0609  0.1117 -0.7800
12876SOL     OW39470   4.638   5.213   2.280  0.1915 -0.0992 -0.4461
12876SOL    HW139471   4.719   5.171   2.309 -0.2777 -0.9759 -0.3823
12876SOL    HW239472   4.577   5.200   2.352 -0.4101 -0.6457 -1.0343
12877SOL     OW39473   0.163   3.818   5.391  0.0336  0.0165  0.2881
12877SOL    HW139474   0.240   3.874   5.381  0.8346 -0.9107  1.1549
12877SOL    HW239475   0.089   3.876   5.371  0.9407  0.9128 -0.5755
12878SOL     OW39476   6.958   3.125   4.249 -0.4427 -0.2760 -0.6764
12878SOL    HW139477   6.950   3.172   4.166 -2.4746  0.3992 -0.1480
12878SOL    HW239478   6.920   3.039   4.233  1.3452 -1.0448 -1.0541
12879SOL     OW39479   6.876   5.646   7.350 -0.2963  0.4274 -0.1025
12879SOL    HW139480   6.928   5.667   7.427 -0.5251 -2.1396  0.8351
12879SOL    HW239481   6.787   5.672   7.374 -0.4645 -0.8474  0.7809
12880SOL     OW39482   5.671   2.473   5.676  0.3502  0.3900  0.0387
12880SOL    HW139483   5.736   2.542   5.664  2.0112 -1.2349 -0.8001
12880SOL    HW239484   5.658   2.468   5.771  2.0268  0.2472  0.2813
12881SOL     OW39485   3.185   4.177   0.911  0.4252  0.3870  0.1864
12881SOL    HW139486   3.133   4.156   0.989  0.9329  1.4804  0.8359
12881SOL    HW239487   3.210   4.092   0.875 -1.1566 -0.1564  0.2961
12882SOL     OW39488   4.791   4.163   8.082 -0.4572 -0.3945  0.3771
12882SOL    HW139489   4.778   4.138   8.174 -1.9359 -1.6442 -0.1318
12882SOL    HW239490   4.732   4.106   8.033 -2.0100  2.3060 -1.1224
12883SOL     OW39491   4.243   7.150   7.468  0.1913 -0.5573  0.1245
12883SOL    HW139492   4.338   7.164   7.468 -0.0649  1.4827  0.7296
12883SOL    HW239493   4.231   7.070   7.418  2.2283 -0.7817 -0.0939
12884SOL     OW39494   5.656   4.760   2.655 -0.2836 -0.1175 -0.1004
12884SOL    HW139495   5.747   4.735   2.644  1.0890  3.4986  1.4151
12884SOL    HW239496   5.618   4.691   2.709  1.8940 -1.1258  0.2171
12885SOL     OW39497   1.349   6.990   7.391  0.4886  0.2181 -0.1207
12885SOL    HW139498   1.383   6.910   7.432  1.1306 -1.3452 -3.3704
12885SOL    HW239499   1.426   7.036   7.360  0.0041  1.0580 -0.1009
12886SOL     OW39500   3.132   4.380   5.857  0.6177  0.1300  0.0708
12886SOL    HW139501   3.166   4.303   5.902 -1.7341 -1.0028  0.0776
12886SOL    HW239502   3.131   4.356   5.764 -1.5558 -0.5749  0.1987
12887SOL     OW39503   0.841   1.762   0.163 -0.8140 -0.8610 -0.0893
12887SOL    HW139504   0.777   1.748   0.093 -1.2214  2.3150 -0.4874
12887SOL    HW239505   0.915   1.806   0.120 -0.2421 -0.5776  1.1298
12888SOL     OW39506   4.772   1.730   2.199 -0.0527  0.3548  0.3606
12888SOL    HW139507   4.680   1.756   2.194 -0.1613 -0.2430 -2.3508
12888SOL    HW239508   4.821   1.812   2.205 -0.6552  0.9510 -1.9836
12889SOL     OW39509   6.276   3.774   3.036 -0.1426 -0.1134  0.3372
12889SOL    HW139510   6.322   3.708   3.088  0.8596  0.0354 -0.3446
12889SOL    HW239511   6.264   3.732   2.950  0.4800  0.5698 -0.0911
12890SOL     OW39512   0.591   2.050   4.026 -0.6259  0.1092 -0.5112
12890SOL    HW139513   0.672   2.017   4.066 -0.6586  1.9034  1.2019
12890SOL    HW239514   0.524   1.988   4.053 -0.2808  0.1619  0.5051
12891SOL     OW39515   2.065   5.736   4.029  0.4227  0.1689 -0.0971
12891SOL    HW139516   1.999   5.785   4.079  0.4768 -0.3015  0.4433
12891SOL    HW239517   2.047   5.758   3.938  1.1689  2.1218  0.1747
12892SOL     OW39518   6.349   1.397   5.240  0.2673  0.6454  0.3199
12892SOL    HW139519   6.335   1.310   5.203  1.3769  0.1808  0.9420
12892SOL    HW239520   6.266   1.419   5.282  0.4944 -0.9044  1.6992
12893SOL     OW39521   2.419   5.915   1.971  0.0702 -0.0930  0.1992
12893SOL    HW139522   2.462   5.955   2.047 -1.1264 -0.5771  1.1566
12893SOL    HW239523   2.387   5.990   1.921  0.1417  0.2173  0.6073
12894SOL     OW39524   3.292   5.431   2.421  0.0750  0.0661 -0.6686
12894SOL    HW139525   3.320   5.505   2.367 -0.0400  1.0310  0.5456
12894SOL    HW239526   3.309   5.354   2.367  1.8416  0.8414 -1.2964
12895SOL     OW39527   7.664   0.985   3.529 -0.0542 -0.1698 -0.5013
12895SOL    HW139528   7.702   0.972   3.442 -0.0788 -0.6063 -0.4506
12895SOL    HW239529   7.734   0.962   3.589  0.0524  0.4033 -0.4020
12896SOL     OW39530   7.626   7.501   4.552 -0.1251 -0.0258 -0.3865
12896SOL    HW139531   7.698   7.447   4.584 -0.1715  0.3074  0.3167
12896SOL    HW239532   7.650   7.590   4.577 -0.5006  0.1601 -0.6758
12897SOL     OW39533   6.712   0.770   0.150  0.6410 -0.5609 -0.3089
12897SOL    HW139534   6.750   0.857   0.134  1.8205 -0.6824  1.4687
12897SOL    HW239535   6.716   0.761   0.245 -2.4341 -1.2831 -0.1556
12898SOL     OW39536   2.821   1.148   6.093  0.0637  0.3487 -0.2836
12898SOL    HW139537   2.828   1.215   6.026 -0.0584  1.3401  0.6615
12898SOL    HW239538   2.751   1.090   6.063  1.1741 -0.2313 -1.8339
12899SOL     OW39539   3.259   2.527   2.510  0.0025 -0.7571 -0.0040
12899SOL    HW139540   3.304   2.602   2.550 -1.3609  1.0823 -1.7090
12899SOL    HW239541   3.180   2.516   2.563  0.2490 -1.0725  0.3034
12900SOL     OW39542   3.482   7.613   7.169  0.5917 -0.4186 -0.1340
12900SOL    HW139543   3.462   7.699   7.133 -1.7231 -0.3806  1.1003
12900SOL    HW239544   3.500   7.558   7.093 -0.6974  0.4899 -1.1179
12901SOL     OW39545   5.255   6.501   3.065  0.6445 -0.1947 -0.3025
12901SOL    HW139546   5.182   6.534   3.014  0.4961 -1.0076 -0.6357
12901SOL    HW239547   5.328   6.558   3.042 -0.2390  1.6902  1.3097
12902SOL     OW39548   5.520   4.825   3.848  0.0078  0.2189 -0.3477
12902SOL    HW139549   5.526   4.863   3.935  1.6480  1.5446 -0.9876
12902SOL    HW239550   5.493   4.898   3.792  0.4469 -0.2375 -1.1794
12903SOL     OW39551   4.239   3.372   4.641  0.2833  0.2854  0.2969
12903SOL    HW139552   4.276   3.433   4.577 -0.0176  0.2142  0.0506
12903SOL    HW239553   4.158   3.414   4.669  1.5700  1.5038  2.4736
12904SOL     OW39554   2.725   7.941   7.166 -0.2104  0.2468  0.4954
12904SOL    HW139555   2.821   7.943   7.162 -0.1362 -2.2305 -1.0424
12904SOL    HW239556   2.697   7.986   7.086 -0.3443  0.7762  0.8352
12905SOL     OW39557   0.713   6.158   1.387  0.2791 -0.0059  0.0984
12905SOL    HW139558   0.740   6.221   1.320  0.4329  1.6250  1.6022
12905SOL    HW239559   0.778   6.167   1.456 -1.1893  0.2169  1.5298
12906SOL     OW39560   5.983   6.098   2.805 -0.7526 -0.0215 -0.1416
12906SOL    HW139561   5.964   6.126   2.715 -1.2368 -3.4084 -1.2222
12906SOL    HW239562   5.898   6.079   2.843 -0.4122 -1.0060  0.1453
12907SOL     OW39563   6.786   0.232   1.799  0.1944  0.2467  0.1525
12907SOL    HW139564   6.859   0.273   1.845  1.7851 -0.2934 -1.7360
12907SOL    HW239565   6.777   0.146   1.841 -0.1801  0.7666  1.1740
12908SOL     OW39566   4.071   4.901   2.615 -0.4991 -0.5093  0.2033
12908SOL    HW139567   3.978   4.883   2.598 -1.1636  0.6506  2.2094
12908SOL    HW239568   4.078   4.901   2.711  1.7256 -1.1946  0.0968
12909SOL     OW39569   1.190   5.066   5.102  0.4811 -0.1730  0.5289
12909SOL    HW139570   1.202   5.121   5.025  0.6645 -1.5404 -0.4531
12909SOL    HW239571   1.263   5.088   5.159  2.3492 -1.5402 -1.1911
12910SOL     OW39572   1.412   1.709   7.811  0.0375 -0.1608 -0.2841
12910SOL    HW139573   1.389   1.714   7.904 -0.0992 -0.7029 -0.2877
12910SOL    HW239574   1.348   1.648   7.774  0.4326 -0.3687 -0.6239
12911SOL     OW39575   4.572   4.483   4.007  0.4533 -0.3529  0.1548
12911SOL    HW139576   4.561   4.525   3.922  0.3399  1.5009  1.0223
12911SOL    HW239577   4.660   4.445   4.005  1.6153  2.1413  0.1516
12912SOL     OW39578   0.786   4.245   6.048 -0.0677 -0.0960  0.4637
12912SOL    HW139579   0.778   4.267   6.141  1.0964  2.8623 -0.0211
12912SOL    HW239580   0.808   4.328   6.006 -1.2834 -1.1917 -2.5923
12913SOL     OW39581   0.046   1.396   1.748  0.4287  0.3887  0.6481
12913SOL    HW139582   0.018   1.449   1.674  1.0998 -0.2724 -0.0933
12913SOL    HW239583  -0.024   1.331   1.759  0.7832 -0.1247 -0.0438
12914SOL     OW39584   5.112   3.186   1.964  0.2132  0.0695 -0.4543
12914SOL    HW139585   5.124   3.092   1.976  0.4376 -0.4075 -3.6067
12914SOL    HW239586   5.198   3.224   1.986 -0.3037 -0.1657  2.3704
12915SOL     OW39587   2.331   2.526   1.552 -0.2532  0.0245 -0.1871
12915SOL    HW139588   2.382   2.458   1.509 -2.3587 -0.9447 -1.3447
12915SOL    HW239589   2.326   2.499   1.643  1.9383  0.6131  0.1653
12916SOL     OW39590   1.000   7.597   1.970 -0.5180  0.2804  0.2801
12916SOL    HW139591   0.916   7.610   2.014 -0.0163 -1.0936  1.7665
12916SOL    HW239592   0.978   7.557   1.886 -1.3431 -0.1415  0.6893
12917SOL     OW39593   2.832   3.492   6.707  0.0705  0.1160 -0.0079
12917SOL    HW139594   2.824   3.587   6.708 -0.2582  0.0995  1.1906
12917SOL    HW239595   2.751   3.462   6.664  0.2037  0.3738 -0.4430
12918SOL     OW39596   4.320   6.660   6.872  0.5229  0.4982  0.2206
12918SOL    HW139597   4.260   6.598   6.914  0.7288 -1.1561 -1.7557
12918SOL    HW239598   4.267   6.702   6.804  0.9398  0.9381  0.1605
12919SOL     OW39599   0.292   2.038   5.225  0.0515  0.4860  0.1897
12919SOL    HW139600   0.374   1.995   5.249  1.3921  2.8893  0.1999
12919SOL    HW239601   0.239   1.968   5.188  1.6308 -1.3838  1.2681
12920SOL     OW39602   3.761   3.259   3.311  0.7402  0.5435 -0.4061
12920SOL    HW139603   3.779   3.327   3.377  2.1663 -0.3339  0.1538
12920SOL    HW239604   3.770   3.305   3.228 -1.3280  1.7275 -0.0283
12921SOL     OW39605   6.758   6.554   7.553 -0.1835  0.1091 -0.1714
12921SOL    HW139606   6.728   6.470   7.518 -0.4390 -0.1935  0.7414
12921SOL    HW239607   6.685   6.614   7.538  0.0740  0.2239 -1.0022
12922SOL     OW39608   4.096   2.776   5.844  0.6592  0.2991  0.1364
12922SOL    HW139609   4.184   2.751   5.818  0.5716  0.9682 -0.8650
12922SOL    HW239610   4.089   2.748   5.935  2.2719  1.1596  0.5653
12923SOL     OW39611   1.012   4.856   3.599 -0.3875 -0.2940 -0.4562
12923SOL    HW139612   1.088   4.863   3.657  0.8659  1.6430 -2.1728
12923SOL    HW239613   0.948   4.806   3.650  1.3089 -0.3548  1.8125
12924SOL     OW39614   4.786   6.339   2.480  0.3796 -0.2501 -0.2581
12924SOL    HW139615   4.693   6.353   2.498  0.0806 -2.1198 -0.2331
12924SOL    HW239616   4.826   6.329   2.567  0.8827  1.8579 -0.1848
12925SOL     OW39617   5.551   1.859   3.724 -0.5476  0.1988 -0.1227
12925SOL    HW139618   5.645   1.864   3.739 -0.3847 -1.3257 -0.4261
12925SOL    HW239619   5.542   1.800   3.649 -1.7380  0.6201 -0.3427
12926SOL     OW39620   0.520   1.070   1.309 -0.2313 -0.3481 -0.3128
12926SOL    HW139621   0.540   1.157   1.344 -0.2294 -1.0344  1.4712
12926SOL    HW239622   0.426   1.061   1.318 -0.2317 -0.5334 -0.4928
12927SOL     OW39623   6.847   2.814   3.156  0.0322  0.1298 -0.4698
12927SOL    HW139624   6.878   2.747   3.095  0.3211 -0.2639  0.0959
12927SOL    HW239625   6.926   2.856   3.188 -0.1678  1.0427 -1.1414
12928SOL     OW39626   1.667   4.067   3.487  0.3846 -0.6302  0.4245
12928SOL    HW139627   1.719   4.065   3.567  0.2024 -2.4129  0.5332
12928SOL    HW239628   1.576   4.060   3.517  0.2012  0.2799  0.1247
12929SOL     OW39629   5.593   6.699   3.835 -0.0633 -0.9710 -0.1383
12929SOL    HW139630   5.569   6.702   3.742 -2.2170 -0.0453  0.3904
12929SOL    HW239631   5.522   6.649   3.876 -0.6912  1.0379  1.3934
12930SOL     OW39632   4.238   1.779   7.776  0.0286 -0.1573 -0.3492
12930SOL    HW139633   4.200   1.859   7.740 -1.1652  0.3925  1.9133
12930SOL    HW239634   4.172   1.712   7.760 -0.9008  0.2720  1.4249
12931SOL     OW39635   1.400   7.068   5.878  0.0420 -0.1587  0.2541
12931SOL    HW139636   1.448   7.096   5.957  1.2476 -1.8706  0.1657
12931SOL    HW239637   1.361   7.149   5.844  1.0690  0.9224  1.5495
12932SOL     OW39638   5.857   7.201   4.760  0.4737 -0.0786  0.7477
12932SOL    HW139639   5.803   7.272   4.724  0.0885 -0.6986  0.0783
12932SOL    HW239640   5.866   7.223   4.853 -2.4507 -0.8402  1.3223
12933SOL     OW39641   5.713   2.358   1.111  0.0300 -0.3530  0.4518
12933SOL    HW139642   5.629   2.320   1.087  0.0839 -1.1622  1.4791
12933SOL    HW239643   5.770   2.283   1.130  0.6594  0.1955  0.7998
12934SOL     OW39644   0.253   6.638   2.393 -0.4035 -0.0241  0.0915
12934SOL    HW139645   0.338   6.639   2.437 -0.0159  0.4040 -0.6551
12934SOL    HW239646   0.210   6.719   2.421  0.0069  0.4498 -0.6104
12935SOL     OW39647   3.842   0.422   1.625 -0.6849 -0.8038 -0.3197
12935SOL    HW139648   3.932   0.393   1.608 -0.0115  0.7130  0.4886
12935SOL    HW239649   3.840   0.440   1.719 -2.1727 -1.8440 -0.1141
12936SOL     OW39650   7.589   1.667   1.306  0.3696  0.0966  0.5040
12936SOL    HW139651   7.503   1.655   1.265  0.9220 -0.1651 -0.6084
12936SOL    HW239652   7.639   1.589   1.282  0.9884  0.3386  0.9697
12937SOL     OW39653   7.477   6.554   2.135 -0.3270  0.6724 -0.1220
12937SOL    HW139654   7.415   6.627   2.137 -0.0766  0.8725  0.6073
12937SOL    HW239655   7.425   6.477   2.157 -0.7263  0.5122 -1.5171
12938SOL     OW39656   5.657   6.971   3.714 -0.1094  0.1415 -0.4271
12938SOL    HW139657   5.685   6.901   3.655 -2.4420 -1.6554  0.4155
12938SOL    HW239658   5.724   6.973   3.783  0.4166 -0.7047 -0.8974
12939SOL     OW39659   6.748   0.709   5.491 -0.3506 -0.3295  0.1411
12939SOL    HW139660   6.800   0.637   5.455 -1.0736 -0.5559 -0.4927
12939SOL    HW239661   6.791   0.732   5.573  1.1451 -0.0506 -0.6944
12940SOL     OW39662   7.019   5.910   0.632  0.0768  0.3681 -0.5625
12940SOL    HW139663   6.966   5.978   0.674  0.6189  0.1610  0.4887
12940SOL    HW239664   7.105   5.950   0.622  1.0463 -0.8721  2.1430
12941SOL     OW39665   2.630   0.059   6.405  0.2294 -0.2896 -0.4513
12941SOL    HW139666   2.720   0.074   6.435  0.0636 -0.4499  0.1223
12941SOL    HW239667   2.575   0.091   6.477 -0.1867  0.3999 -1.0603
12942SOL     OW39668   1.738   0.087   4.284 -0.3871 -0.5432 -0.3254
12942SOL    HW139669   1.801   0.075   4.355  1.5493  1.3327 -1.5521
12942SOL    HW239670   1.666   0.028   4.303  0.4040 -0.6394  2.7534
12943SOL     OW39671   2.086   5.561   0.263 -0.1416  0.0082 -0.1426
12943SOL    HW139672   2.105   5.625   0.194 -1.1256 -0.3471 -0.7728
12943SOL    HW239673   2.087   5.612   0.343 -1.9781  1.0847 -0.7416
12944SOL     OW39674   7.675   0.766   0.854 -0.9420  0.7229  0.4741
12944SOL    HW139675   7.746   0.826   0.835  1.0458 -1.5596  0.1579
12944SOL    HW239676   7.649   0.786   0.944 -0.2655  1.9192  0.4200
12945SOL     OW39677   5.096   3.661   5.588  0.4016  0.3622  0.4269
12945SOL    HW139678   5.160   3.626   5.650 -0.4466 -1.3285  0.3883
12945SOL    HW239679   5.017   3.608   5.602 -0.8383  2.0220  0.0923
12946SOL     OW39680   2.954   6.398   1.982  0.6860  0.3971 -0.0699
12946SOL    HW139681   3.022   6.331   1.992 -1.5574 -2.2730 -1.3345
12946SOL    HW239682   2.941   6.432   2.071  2.6056 -0.0703  0.4326
12947SOL     OW39683   7.650   5.085   7.684  0.1420 -0.2106  0.1856
12947SOL    HW139684   7.636   5.028   7.759 -1.4440  0.8389  0.7573
12947SOL    HW239685   7.638   5.174   7.719 -0.7272  0.2975 -1.2909
12948SOL     OW39686   6.761   5.578   1.504 -0.3190  0.1190 -0.7494
12948SOL    HW139687   6.715   5.627   1.437 -0.8788 -1.3780 -1.5091
12948SOL    HW239688   6.835   5.536   1.458 -0.3195 -0.3851 -0.3098
12949SOL     OW39689   4.080   2.880   0.204 -0.5525  0.3858  0.4698
12949SOL    HW139690   3.995   2.912   0.174 -0.5230  0.6338  0.6449
12949SOL    HW239691   4.117   2.953   0.254  0.0530  0.5342 -0.1781
12950SOL     OW39692   7.212   0.831   3.429  0.4595 -0.0628  0.7308
12950SOL    HW139693   7.275   0.874   3.487  0.3049 -0.7666  1.4426
12950SOL    HW239694   7.253   0.747   3.407  0.9707  0.6107 -1.0335
12951SOL     OW39695   1.195   7.560   6.565 -0.1679 -0.3661  1.1909
12951SOL    HW139696   1.284   7.567   6.599  0.2300 -4.9376  1.7059
12951SOL    HW239697   1.179   7.645   6.524  4.7873  0.3767  0.1137
12952SOL     OW39698   0.827   1.014   2.168 -0.6022 -0.3519 -0.2926
12952SOL    HW139699   0.800   0.967   2.246 -1.2867 -0.2470 -0.4589
12952SOL    HW239700   0.794   0.961   2.095 -0.0155 -0.4245 -0.5131
12953SOL     OW39701   4.276   5.709   3.278 -0.1153  0.3068 -0.1511
12953SOL    HW139702   4.296   5.776   3.343  0.0932  1.1634 -1.0703
12953SOL    HW239703   4.267   5.757   3.196 -0.8119 -0.6933 -0.6868
12954SOL     OW39704   2.633   3.652   4.573  0.0845  0.5237  0.1215
12954SOL    HW139705   2.722   3.635   4.606  0.0894 -1.0454 -0.6307
12954SOL    HW239706   2.642   3.731   4.520  1.0786  0.2881 -0.0875
12955SOL     OW39707   7.893   5.769   7.715 -0.2293  0.1343 -0.2106
12955SOL    HW139708   7.817   5.801   7.765  0.5879 -0.2474  1.3532
12955SOL    HW239709   7.905   5.834   7.646 -1.5459  0.5814 -0.0542
12956SOL     OW39710   1.497   3.116   7.325 -0.7485 -0.1468  0.0394
12956SOL    HW139711   1.436   3.059   7.279 -1.3268 -0.7798  1.5239
12956SOL    HW239712   1.442   3.170   7.382 -0.0766  0.7681 -0.1487
12957SOL     OW39713   2.492   1.251   4.359  0.1117 -0.2675 -0.0553
12957SOL    HW139714   2.437   1.207   4.294 -1.5340 -0.6015  1.4819
12957SOL    HW239715   2.429   1.291   4.420  1.5918  0.5236  1.0121
12958SOL     OW39716   4.667   4.244   6.616 -0.0448 -0.3231 -0.2614
12958SOL    HW139717   4.720   4.233   6.695 -0.9194 -0.0369  0.3806
12958SOL    HW239718   4.662   4.338   6.603 -0.3222 -0.3530 -0.3725
12959SOL     OW39719   5.359   5.581   5.355  0.5179  0.2450 -0.6606
12959SOL    HW139720   5.282   5.637   5.357  0.4704  0.1880 -0.8555
12959SOL    HW239721   5.359   5.544   5.266  1.1210  0.7400 -0.8798
12960SOL     OW39722   5.145   5.899   3.791  0.2319  0.1980  0.0750
12960SOL    HW139723   5.057   5.878   3.822 -0.3481 -1.3919 -2.3478
12960SOL    HW239724   5.156   5.845   3.713  3.4396  0.2600  0.3750
12961SOL     OW39725   3.975   7.226   1.923 -0.6267 -0.0857 -0.0009
12961SOL    HW139726   4.046   7.290   1.925 -1.0900  0.4391  1.8615
12961SOL    HW239727   3.957   7.208   2.015 -0.3085 -3.1576 -0.4346
12962SOL     OW39728   1.781   4.880   7.847 -0.3149  0.2285  0.0642
12962SOL    HW139729   1.869   4.874   7.808 -0.2259 -1.4240  0.4343
12962SOL    HW239730   1.725   4.909   7.775  0.3830  0.3854 -0.4266
12963SOL     OW39731   5.075   3.803   4.167  0.1011 -0.1788  0.3930
12963SOL    HW139732   5.061   3.828   4.075  0.5590 -0.0826  0.3491
12963SOL    HW239733   5.002   3.844   4.214  0.9980  1.5445  0.3707
12964SOL     OW39734   7.861   7.907   0.630  0.1310  0.1011  0.7521
12964SOL    HW139735   7.917   7.834   0.655 -1.1092 -0.2380  2.8582
12964SOL    HW239736   7.893   7.981   0.682 -0.3077  0.3305  0.7040
12965SOL     OW39737   7.379   2.827   5.426  0.3042 -0.1039  0.4407
12965SOL    HW139738   7.343   2.907   5.387  0.5567  0.5095  1.4256
12965SOL    HW239739   7.306   2.787   5.472  0.4970  0.2932  1.0989
12966SOL     OW39740   1.469   4.213   0.673  0.9612  0.4295  0.6427
12966SOL    HW139741   1.472   4.139   0.733  0.0331 -1.1183 -1.1071
12966SOL    HW239742   1.558   4.221   0.639  0.5684 -1.6523 -1.0926
12967SOL     OW39743   5.548   7.556   1.042 -0.4590  0.7319  0.1007
12967SOL    HW139744   5.541   7.648   1.066 -0.2261  0.9471 -0.6363
12967SOL    HW239745   5.534   7.509   1.124 -0.6614  1.4177  0.4676
12968SOL     OW39746   0.253   5.994   1.677  0.1602  0.6603  0.1241
12968SOL    HW139747   0.341   5.962   1.698  0.5271  1.2747 -0.4339
12968SOL    HW239748   0.256   6.087   1.698 -0.3499  0.6921  0.0671
12969SOL     OW39749   6.256   3.196   6.845  0.5990 -0.4852  0.4125
12969SOL    HW139750   6.243   3.122   6.904 -1.0376  0.1580  0.9274
12969SOL    HW239751   6.281   3.269   6.901 -1.6695  0.3175  0.5069
12970SOL     OW39752   4.819   4.674   5.296 -0.9646 -0.9898  0.0670
12970SOL    HW139753   4.836   4.655   5.203 -0.7411 -2.1506  0.3323
12970SOL    HW239754   4.725   4.692   5.299 -0.2718  4.3577 -1.2141
12971SOL     OW39755   3.823   4.237   1.780 -0.0456  0.3374  0.1947
12971SOL    HW139756   3.796   4.146   1.792 -0.2545  0.2082 -1.0750
12971SOL    HW239757   3.756   4.289   1.825  0.4672 -0.1403  1.5576
12972SOL     OW39758   1.040   6.686   3.016 -0.4156 -0.2991 -0.0782
12972SOL    HW139759   1.035   6.775   2.983  2.7409 -0.2769 -0.8244
12972SOL    HW239760   0.985   6.686   3.094 -1.1141  2.0626 -0.4907
12973SOL     OW39761   7.434   5.322   2.385  0.3838 -0.1172  0.9756
12973SOL    HW139762   7.385   5.403   2.400  1.1365  0.3541  0.8810
12973SOL    HW239763   7.523   5.350   2.368  0.8193 -1.0168  1.7169
12974SOL     OW39764   7.521   1.690   7.374 -0.1226 -0.5116  0.7169
12974SOL    HW139765   7.531   1.668   7.467  1.1903 -1.2839  0.4118
12974SOL    HW239766   7.586   1.758   7.359 -0.8449  0.1486  0.5160
12975SOL     OW39767   2.350   7.289   7.644  0.4562 -0.2588  0.2103
12975SOL    HW139768   2.436   7.327   7.625  0.6351 -0.6350  0.2715
12975SOL    HW239769   2.367   7.222   7.710  0.3042 -1.2068 -0.6881
12976SOL     OW39770   1.905   7.421   2.236 -0.2533  0.1135  0.5161
12976SOL    HW139771   1.843   7.431   2.163 -0.5814  1.8402  0.9658
12976SOL    HW239772   1.852   7.436   2.314  0.6001  1.0232  0.9432
12977SOL     OW39773   0.176   2.690   3.879  0.2364 -0.0937 -0.6452
12977SOL    HW139774   0.127   2.752   3.825 -0.2891 -0.8313 -1.0393
12977SOL    HW239775   0.149   2.709   3.969  2.1762  2.0880 -0.4459
12978SOL     OW39776   5.668   1.063   3.017 -0.0264 -0.2294  0.1661
12978SOL    HW139777   5.596   1.100   3.068 -0.3859  0.5231 -0.8750
12978SOL    HW239778   5.644   1.077   2.926  0.6084 -1.5763 -0.2342
12979SOL     OW39779   5.573   4.335   2.169  0.1610  0.7489  0.4014
12979SOL    HW139780   5.482   4.319   2.147  0.4998  0.0967 -0.5808
12979SOL    HW239781   5.590   4.424   2.139  0.3312  0.2330 -1.0971
12980SOL     OW39782   7.499   1.386   5.825 -0.0035 -0.2269  0.4378
12980SOL    HW139783   7.493   1.464   5.770 -0.3058  0.8222  1.8956
12980SOL    HW239784   7.576   1.401   5.879  0.2768 -1.2273  0.3235
12981SOL     OW39785   2.496   1.368   6.475  0.3826 -0.8188  0.0262
12981SOL    HW139786   2.561   1.302   6.499  1.4568  0.1761 -0.0706
12981SOL    HW239787   2.423   1.352   6.536  1.8220 -0.2497  2.0128
12982SOL     OW39788   1.648   6.976   2.280  0.1171  0.8191  0.1505
12982SOL    HW139789   1.579   7.015   2.226 -0.4143 -1.1871 -0.7137
12982SOL    HW239790   1.669   6.894   2.237  1.7182  0.4788  1.4707
12983SOL     OW39791   5.195   1.368   3.128  0.3234 -0.0422  0.1558
12983SOL    HW139792   5.198   1.328   3.040 -2.1481  0.2939 -0.1615
12983SOL    HW239793   5.162   1.297   3.184  0.0095  0.3129  0.4194
12984SOL     OW39794   5.037   6.144   7.095 -0.4228  0.6577 -0.0365
12984SOL    HW139795   5.094   6.101   7.159  1.3051  1.5215 -0.9372
12984SOL    HW239796   5.058   6.101   7.012 -1.0521  1.0350 -0.3959
12985SOL     OW39797   5.772   6.887   2.983  0.3672  0.1018 -0.2066
12985SOL    HW139798   5.721   6.898   2.903  0.1274 -1.3541 -0.2753
12985SOL    HW239799   5.850   6.840   2.956  0.6452  0.2594  0.2958
12986SOL     OW39800   6.817   4.092   7.832  0.1295  0.3053 -0.3424
12986SOL    HW139801   6.731   4.105   7.792  0.5673  2.8009 -0.6000
12986SOL    HW239802   6.878   4.138   7.774  1.4137  0.0313  0.7333
12987SOL     OW39803   0.622   4.473   6.404 -0.0726 -0.2221 -0.5885
12987SOL    HW139804   0.573   4.391   6.414  0.7561 -0.9562 -2.2576
12987SOL    HW239805   0.714   4.447   6.402  0.2636  0.8573 -0.1988
12988SOL     OW39806   5.659   2.956   8.144 -0.1775 -0.2981  0.7769
12988SOL    HW139807   5.673   2.973   8.051  3.5984  0.6383  1.3108
12988SOL    HW239808   5.611   3.032   8.176 -0.4669 -0.0572 -0.2118
12989SOL     OW39809   1.876   1.606   5.376 -0.6228  0.2927  0.4570
12989SOL    HW139810   1.800   1.645   5.333 -0.3034 -0.0187 -0.4091
12989SOL    HW239811   1.911   1.676   5.430  0.4529  1.5498 -1.7371
12990SOL     OW39812   2.919   3.429   1.688  0.0113 -0.3092 -0.0139
12990SOL    HW139813   2.896   3.414   1.597  0.7500 -2.4144  0.0910
12990SOL    HW239814   3.002   3.477   1.685  0.6353 -1.3998 -0.4707
12991SOL     OW39815   3.113   5.776   3.516  0.0782 -0.1355  0.3669
12991SOL    HW139816   3.077   5.858   3.549 -1.5429 -1.4146  1.9897
12991SOL    HW239817   3.036   5.722   3.496  1.0563 -0.6440 -2.5248
12992SOL     OW39818   0.112   2.313   3.059 -0.1670  0.2832 -0.4652
12992SOL    HW139819   0.073   2.388   3.104  0.2523 -1.1156  2.4213
12992SOL    HW239820   0.182   2.351   3.006 -0.6390  2.0415  0.0888
12993SOL     OW39821   6.110   6.457   4.316  0.4448 -0.2536 -0.1699
12993SOL    HW139822   6.088   6.546   4.291  1.5282  0.2338  0.5293
12993SOL    HW239823   6.172   6.467   4.389  2.6091 -1.4979 -1.7133
12994SOL     OW39824   0.288   3.793   2.532  0.3389 -0.0100 -0.2429
12994SOL    HW139825   0.203   3.758   2.506 -0.4184  1.3582  0.3084
12994SOL    HW239826   0.299   3.763   2.622 -0.3190  1.1243  0.2360
12995SOL     OW39827   1.318   6.200   3.563 -0.2650 -0.0374  0.4960
12995SOL    HW139828   1.363   6.147   3.629 -1.7275 -1.3378  0.4983
12995SOL    HW239829   1.248   6.143   3.530  0.4218  0.5367 -2.2128
12996SOL     OW39830   5.204   7.021   6.254  0.0442  0.2118 -0.5753
12996SOL    HW139831   5.217   6.957   6.324 -0.3191 -1.1164 -1.6920
12996SOL    HW239832   5.280   7.080   6.261  0.0638  0.0454  0.8492
12997SOL     OW39833   5.164   6.093   2.271  0.2461 -0.6123  0.1088
12997SOL    HW139834   5.094   6.035   2.301  1.1632 -1.2348  1.1349
12997SOL    HW239835   5.201   6.129   2.352  2.0424 -1.4143 -0.3167
12998SOL     OW39836   3.135   7.938   3.401  0.0006  0.1460  0.0982
12998SOL    HW139837   3.148   7.851   3.364  1.0177  0.5724 -0.5968
12998SOL    HW239838   3.091   7.922   3.484  1.1626 -1.1200  0.5100
12999SOL     OW39839   0.146   7.620   1.193 -0.3620 -0.0314  0.7029
12999SOL    HW139840   0.134   7.543   1.137 -2.8230  2.2594 -2.3238
12999SOL    HW239841   0.223   7.664   1.157 -1.2933  0.8654 -0.2900
13000SOL     OW39842   0.697   5.525   2.047 -0.2530 -0.2121  0.3236
13000SOL    HW139843   0.742   5.443   2.070  1.0212  0.0423 -1.1257
13000SOL    HW239844   0.614   5.521   2.095 -1.0916 -3.2548 -1.1457
13001SOL     OW39845   6.317   1.698   2.185  0.2293  0.1378  0.2271
13001SOL    HW139846   6.310   1.636   2.258 -0.0968 -2.7362 -2.0580
13001SOL    HW239847   6.232   1.692   2.141  1.3590 -0.4143 -1.9902
13002SOL     OW39848   1.439   7.166   6.462 -0.2519 -0.3036  0.0652
13002SOL    HW139849   1.516   7.111   6.449  0.3034  0.3354  0.5410
13002SOL    HW239850   1.370   7.106   6.490  0.1657 -0.8314 -0.0205
13003SOL     OW39851   7.976   0.261   5.627 -0.4826 -0.2533  0.9783
13003SOL    HW139852   7.968   0.181   5.575  0.0518  0.3145 -0.0254
13003SOL    HW239853   8.042   0.241   5.693  0.6296 -0.2453 -0.0986
13004SOL     OW39854   2.715   3.817   0.598 -0.7790  0.2430 -0.1123
13004SOL    HW139855   2.799   3.775   0.579 -0.4981  1.5058 -2.0312
13004SOL    HW239856   2.655   3.745   0.614  0.3962 -0.7309  0.0848
13005SOL     OW39857   6.951   4.234   7.652  0.6172  0.7608  0.5045
13005SOL    HW139858   7.031   4.195   7.688  0.8089  0.0647 -0.6375
13005SOL    HW239859   6.951   4.209   7.560 -0.9784  0.6580  0.5036
13006SOL     OW39860   5.606   0.295   7.793 -0.1388  1.1421 -0.6026
13006SOL    HW139861   5.575   0.231   7.858  0.1047  0.4208 -1.1782
13006SOL    HW239862   5.683   0.335   7.834  0.6275 -0.0425 -0.8325
13007SOL     OW39863   1.211   6.650   1.876  0.0327 -0.4298  0.5213
13007SOL    HW139864   1.155   6.677   1.802  1.7594 -0.2334 -0.7689
13007SOL    HW239865   1.217   6.555   1.868  0.2753 -0.4018  0.3588
13008SOL     OW39866   4.388   6.920   7.115 -0.2091  0.1864  0.2250
13008SOL    HW139867   4.358   6.950   7.029 -1.0002  0.1339  0.4847
13008SOL    HW239868   4.474   6.962   7.126 -1.3288  2.4948  0.6487
13009SOL     OW39869   4.687   4.355   2.909 -0.0333 -0.4418  0.8327
13009SOL    HW139870   4.755   4.315   2.854 -0.3271 -0.7942  0.7280
13009SOL    HW239871   4.639   4.282   2.946 -1.1202 -0.1970 -0.0404
13010SOL     OW39872   2.010   5.069   2.748  0.3546  0.0974  0.8680
13010SOL    HW139873   1.948   5.133   2.713  0.8874 -0.2523 -0.8201
13010SOL    HW239874   1.956   4.993   2.769  0.1900 -0.2637 -0.7368
13011SOL     OW39875   5.914   5.908   0.745 -0.5746  0.1970 -0.3391
13011SOL    HW139876   5.911   5.851   0.669  0.6785  1.0346 -1.0432
13011SOL    HW239877   5.983   5.971   0.726 -0.9999  1.1233  1.0051
13012SOL     OW39878   7.414   7.036   5.968  0.3485 -0.3679 -0.1879
13012SOL    HW139879   7.483   6.971   5.983  0.7955  0.2461  0.5269
13012SOL    HW239880   7.338   7.002   6.014  1.0384  0.3558  1.5809
13013SOL     OW39881   0.030   0.849   3.177 -0.5101 -0.3255  0.3830
13013SOL    HW139882  -0.044   0.905   3.198  0.3559  1.1255 -0.2764
13013SOL    HW239883   0.070   0.830   3.262 -1.9810 -1.6761  0.8129
13014SOL     OW39884   0.024   0.122   6.586 -0.1978  0.3330  0.1923
13014SOL    HW139885  -0.047   0.183   6.564 -0.1964  0.0622 -0.5923
13014SOL    HW239886  -0.018   0.054   6.639  0.1154  1.8482  2.5276
13015SOL     OW39887   5.741   2.871   5.624 -0.0210 -0.1049 -0.6382
13015SOL    HW139888   5.718   2.893   5.715 -1.7246 -1.0703 -0.7896
13015SOL    HW239889   5.781   2.784   5.630  1.2959  0.4728 -0.6765
13016SOL     OW39890   1.572   2.926   2.843 -0.2396  0.0523 -0.6329
13016SOL    HW139891   1.483   2.902   2.868 -0.0672  0.3550  0.3085
13016SOL    HW239892   1.623   2.847   2.857 -0.0735  0.3223  0.3879
13017SOL     OW39893   7.827   3.482   7.652  0.4042  0.1370 -0.6598
13017SOL    HW139894   7.861   3.397   7.626  0.9181  0.2445 -0.3562
13017SOL    HW239895   7.903   3.540   7.650 -0.1487  0.8816 -2.0527
13018SOL     OW39896   0.191   5.731   3.625 -0.1064 -0.1356  0.3419
13018SOL    HW139897   0.096   5.741   3.628 -0.0953 -0.2281  1.4518
13018SOL    HW239898   0.206   5.640   3.652  0.2144 -0.7424 -1.7305
13019SOL     OW39899   1.599   3.099   3.359 -0.3375 -0.1187 -0.1635
13019SOL    HW139900   1.602   3.184   3.404  0.0033  0.4993 -1.3005
13019SOL    HW239901   1.601   3.122   3.266 -0.2900 -1.3810 -0.4845
13020SOL     OW39902   6.183   0.357   4.484  0.1113  0.1420 -0.2076
13020SOL    HW139903   6.238   0.379   4.409 -0.5268  1.9557 -0.2115
13020SOL    HW239904   6.100   0.330   4.445 -0.1325  0.8241 -0.1738
13021SOL     OW39905   1.030   1.562   6.124 -0.7227 -0.3843  0.2369
13021SOL    HW139906   1.102   1.535   6.067 -3.4073 -4.4204 -1.7577
13021SOL    HW239907   1.001   1.646   6.088  2.0691  0.7287  0.3386
13022SOL     OW39908   7.245   4.368   2.079  0.3175  0.4317  1.1596
13022SOL    HW139909   7.152   4.348   2.096  0.1080  0.1343 -0.2384
13022SOL    HW239910   7.259   4.453   2.120 -1.2367  1.6359 -0.6609
13023SOL     OW39911   4.929   5.631   5.021  0.1191  0.2880 -0.3341
13023SOL    HW139912   4.904   5.586   5.102 -1.2693  0.5337 -0.5916
13023SOL    HW239913   4.921   5.564   4.953  0.0075  0.4149 -0.4468
13024SOL     OW39914   2.661   1.442   7.605  0.4457  0.0244 -0.6146
13024SOL    HW139915   2.663   1.533   7.577 -0.1058  0.7093  1.3720
13024SOL    HW239916   2.568   1.418   7.600  0.2252  0.3847  1.1206
13025SOL     OW39917   7.240   4.383   5.151 -0.3034  0.4614  0.4127
13025SOL    HW139918   7.216   4.295   5.180  1.0906 -0.2928 -0.5811
13025SOL    HW239919   7.189   4.397   5.071  1.1949 -0.4814 -0.7858
13026SOL     OW39920   6.305   2.638   7.434 -0.7694 -0.1174 -0.2241
13026SOL    HW139921   6.320   2.588   7.354  0.4754 -1.1264  0.6005
13026SOL    HW239922   6.393   2.650   7.471 -1.4076 -0.5472  1.5001
13027SOL     OW39923   0.629   5.167   5.977 -0.0652 -0.1365 -0.0293
13027SOL    HW139924   0.665   5.130   6.058 -0.7571 -0.2003  0.2516
13027SOL    HW239925   0.693   5.142   5.909 -0.9275 -2.6871 -0.0200
13028SOL     OW39926   6.023   5.300   2.263  0.4388 -0.0673  0.5025
13028SOL    HW139927   6.033   5.225   2.321  2.0829  0.4967  1.0011
13028SOL    HW239928   6.111   5.338   2.257 -0.5571  2.6441  1.3804
13029SOL     OW39929   3.568   3.079   2.549 -0.2727  0.2481 -0.3074
13029SOL    HW139930   3.628   3.152   2.543 -0.3370  0.4138  0.7876
13029SOL    HW239931   3.567   3.040   2.462  2.7219 -0.8018  0.0318
13030SOL     OW39932   5.854   6.863   5.740  0.9208 -0.4815 -0.3659
13030SOL    HW139933   5.865   6.920   5.817  0.7907 -0.8224 -0.0932
13030SOL    HW239934   5.908   6.904   5.673  0.3988  0.2707 -0.3369
13031SOL     OW39935   3.595   1.497   0.442  0.0288 -0.1716  0.1269
13031SOL    HW139936   3.590   1.592   0.427 -0.1786  0.0816  1.6733
13031SOL    HW239937   3.682   1.483   0.479 -0.4036 -0.3776  1.1052
13032SOL     OW39938   1.164   4.603   4.419  0.3247  0.3038  0.6065
13032SOL    HW139939   1.174   4.659   4.496  0.9613  1.0790 -0.0265
13032SOL    HW239940   1.181   4.515   4.451  1.5007  0.7171  1.1810
13033SOL     OW39941   2.738   7.446   1.548 -0.5969  0.5635 -0.3130
13033SOL    HW139942   2.785   7.400   1.618 -1.0192  2.5653  1.3989
13033SOL    HW239943   2.681   7.379   1.509  2.2876 -1.5091 -1.3110
13034SOL     OW39944   5.150   0.899   2.641  0.0013 -0.3399  0.6144
13034SOL    HW139945   5.162   0.830   2.707 -2.2262 -0.2647  1.1866
13034SOL    HW239946   5.056   0.896   2.621  0.4820  0.1165 -2.0579
13035SOL     OW39947   6.069   7.118   4.143  0.2082  0.6913  0.0505
13035SOL    HW139948   6.162   7.108   4.165 -0.3766 -2.9844  1.4910
13035SOL    HW239949   6.037   7.185   4.203  1.4671  0.3332  1.1636
13036SOL     OW39950   2.273   2.991   5.303  0.0857 -0.7735  0.4329
13036SOL    HW139951   2.191   3.032   5.334  0.4181 -0.3287  0.7462
13036SOL    HW239952   2.268   2.996   5.208  0.6525  1.1231  0.4635
13037SOL     OW39953   7.380   7.156   1.359  0.4442  0.1184 -0.0374
13037SOL    HW139954   7.306   7.174   1.417  1.1020  0.9186  0.5847
13037SOL    HW239955   7.443   7.111   1.416  0.6047 -0.1931 -0.4590
13038SOL     OW39956   6.141   0.467   2.494  0.1315  0.1582  0.0206
13038SOL    HW139957   6.130   0.413   2.415  1.9062 -0.8984  0.4426
13038SOL    HW239958   6.130   0.556   2.463 -0.8178 -0.3168 -1.1041
13039SOL     OW39959   3.534   4.683   3.346  0.3311 -0.3657 -0.0812
13039SOL    HW139960   3.500   4.736   3.275  0.4496  1.2103  0.9949
13039SOL    HW239961   3.466   4.686   3.414  0.7076 -0.8866  0.3345
13040SOL     OW39962   2.796   1.638   0.885  0.4039 -0.3270  0.1045
13040SOL    HW139963   2.704   1.655   0.905  0.2718  0.3615 -1.0005
13040SOL    HW239964   2.802   1.543   0.880 -0.2749 -0.3776  0.0787
13041SOL     OW39965   5.806   5.506   5.577 -0.1239  0.1374  0.0769
13041SOL    HW139966   5.767   5.590   5.603  1.1910  0.7710  0.0829
13041SOL    HW239967   5.763   5.441   5.632 -1.4163  0.7551 -0.1681
13042SOL     OW39968   6.787   2.815   0.870 -0.0900 -0.1116 -0.1616
13042SOL    HW139969   6.728   2.876   0.826  1.0615  1.0740 -0.1138
13042SOL    HW239970   6.847   2.787   0.801 -1.8427 -2.8894 -0.7115
13043SOL     OW39971   2.077   0.886   3.150 -0.2686 -0.3982  0.7788
13043SOL    HW139972   2.132   0.911   3.076 -0.8054  1.3669  0.9286
13043SOL    HW239973   2.111   0.937   3.224 -0.5598 -1.1436  1.4455
13044SOL     OW39974   6.418   5.631   0.589  0.5804 -0.5058 -0.1999
13044SOL    HW139975   6.329   5.598   0.602  0.6315 -1.1382 -1.3301
13044SOL    HW239976   6.442   5.668   0.674 -0.8168 -0.1721  0.0863
13045SOL     OW39977   7.621   3.215   1.629  0.1535  0.2921 -0.4220
13045SOL    HW139978   7.621   3.285   1.694  0.5901  0.4073 -0.5442
13045SOL    HW239979   7.676   3.147   1.668  0.9176  0.6108 -0.9351
13046SOL     OW39980   2.231   5.948   4.270 -0.3125  0.3508  0.1320
13046SOL    HW139981   2.182   5.989   4.342  0.1386  0.4875  0.3636
13046SOL    HW239982   2.218   5.854   4.284 -2.0352  0.3907 -0.8726
13047SOL     OW39983   1.219   6.206   4.927  0.1863 -0.6521  0.0173
13047SOL    HW139984   1.232   6.112   4.918 -0.1471 -0.6481 -0.5403
13047SOL    HW239985   1.128   6.215   4.958 -0.1757 -0.4697 -1.0673
13048SOL     OW39986   5.174   5.600   4.627  0.1243  0.1829 -0.0849
13048SOL    HW139987   5.196   5.507   4.626  1.9245  0.5654 -1.4413
13048SOL    HW239988   5.079   5.603   4.618  0.0821 -1.5021 -0.5302
13049SOL     OW39989   4.550   6.237   4.269  0.2976 -0.8061 -0.4374
13049SOL    HW139990   4.636   6.195   4.263  0.3662 -0.8184  0.4473
13049SOL    HW239991   4.488   6.172   4.237  0.2905 -2.0008  1.8056
13050SOL     OW39992   0.517   1.920   5.328 -0.5348  0.2491  0.2211
13050SOL    HW139993   0.557   1.877   5.252 -1.5013 -1.2853  0.5486
13050SOL    HW239994   0.580   1.987   5.353  0.5716 -0.3262 -0.9159
13051SOL     OW39995   4.019   3.385   7.505 -0.3022 -0.1924 -0.3647
13051SOL    HW139996   4.093   3.328   7.524 -1.1923 -1.2998 -0.1044
13051SOL    HW239997   3.986   3.353   7.421  0.3040  1.1563 -1.1441
13052SOL     OW39998   0.912   7.038   8.166 -0.1277 -0.2444 -0.5282
13052SOL    HW139999   0.917   7.096   8.242 -0.0262  0.0598 -0.7647
13052SOL    HW240000   0.844   6.974   8.189 -1.0533  0.6451 -0.7292
13053SOL     OW40001   5.456   6.694   3.063  0.7426 -0.6103 -0.2736
13053SOL    HW140002   5.506   6.757   3.114 -1.4193 -0.5475  1.9679
13053SOL    HW240003   5.425   6.743   2.987  0.7008  0.5032  0.4423
13054SOL     OW40004   6.513   1.102   1.304 -0.3516 -0.5051 -0.2212
13054SOL    HW140005   6.418   1.106   1.312 -0.5699 -1.8115 -1.7146
13054SOL    HW240006   6.542   1.193   1.318 -1.8432 -0.0023 -0.2314
13055SOL     OW40007   3.021   4.089   4.811 -0.2937  0.4449  0.0047
13055SOL    HW140008   2.945   4.033   4.798 -1.4197  1.7858  0.5483
13055SOL    HW240009   3.063   4.055   4.890  0.0079 -0.6306 -0.5960
13056SOL     OW40010   5.808   1.445   0.673  0.0844 -0.9128  0.4288
13056SOL    HW140011   5.886   1.467   0.623  0.8433 -1.3116  1.4064
13056SOL    HW240012   5.776   1.529   0.706 -0.0354 -0.7235 -0.1615
13057SOL     OW40013   6.579   1.840   5.399 -0.4384 -0.4399 -0.0397
13057SOL    HW140014   6.496   1.887   5.404 -0.6613 -0.9119  0.9589
13057SOL    HW240015   6.646   1.908   5.399 -0.8255  0.0251 -2.2903
13058SOL     OW40016   1.411   2.437   3.508  0.0727 -0.2818 -0.1541
13058SOL    HW140017   1.501   2.423   3.477  0.4385  1.3694  0.0739
13058SOL    HW240018   1.423   2.477   3.594 -0.9152 -1.2109  0.4390
13059SOL     OW40019   4.752   1.183   7.926  0.0868 -0.1657 -0.8526
13059SOL    HW140020   4.707   1.263   7.898  0.5137 -0.0275 -1.1571
13059SOL    HW240021   4.730   1.173   8.018 -0.0852  0.2236 -0.8525
13060SOL     OW40022   3.049   0.676   7.964  0.3598  0.3566  0.4628
13060SOL    HW140023   3.030   0.768   7.981 -0.6691  0.4786 -1.1524
13060SOL    HW240024   2.965   0.631   7.980  0.3590 -0.0223 -0.5531
13061SOL     OW40025   8.105   2.881   4.789  0.6790  0.0584  0.6748
13061SOL    HW140026   8.171   2.832   4.740  0.4201  0.7144 -0.3633
13061SOL    HW240027   8.090   2.829   4.868  1.7720 -0.5585  0.4956
13062SOL     OW40028   2.180   5.328   4.455  0.1618 -0.0278  0.5417
13062SOL    HW140029   2.245   5.307   4.523  0.2141 -1.1379  0.1774
13062SOL    HW240030   2.098   5.293   4.490  0.2424 -0.8713 -0.0722
13063SOL     OW40031   3.927   7.241   0.138 -0.3847  0.3039 -0.1613
13063SOL    HW140032   3.973   7.315   0.178 -0.0739  1.3604 -2.3394
13063SOL    HW240033   3.981   7.165   0.160  0.4897  1.0327  0.2927
13064SOL     OW40034   3.813   5.124   6.158 -0.2101  0.2077 -0.1821
13064SOL    HW140035   3.754   5.198   6.169 -0.1093  0.1753  0.6542
13064SOL    HW240036   3.768   5.051   6.200  0.4313  0.1972  0.5179
13065SOL     OW40037   6.144   4.856   0.813  0.1731  0.3779 -0.3232
13065SOL    HW140038   6.072   4.846   0.875 -0.1988 -1.0763 -0.9519
13065SOL    HW240039   6.102   4.874   0.729  0.6817  2.6940 -0.1491
13066SOL     OW40040   5.123   8.096   2.535 -0.9956  0.2617  0.0858
13066SOL    HW140041   5.114   8.010   2.494 -1.1888  0.5855 -0.5724
13066SOL    HW240042   5.217   8.103   2.554 -0.8589  0.1929 -0.5210
13067SOL     OW40043   3.753   0.252   4.470 -0.7724  0.1280  0.2336
13067SOL    HW140044   3.821   0.185   4.473 -1.0770 -0.3190 -1.6564
13067SOL    HW240045   3.671   0.203   4.476 -1.0609  0.0835 -2.7214
13068SOL     OW40046   7.579   1.930   4.912  0.5455  0.3236  0.6232
13068SOL    HW140047   7.569   1.863   4.845 -0.2396  1.4099 -0.3997
13068SOL    HW240048   7.520   2.001   4.884  0.1614  0.8047  2.4800
13069SOL     OW40049   5.299   1.516   7.309 -0.0598 -0.3493  0.1658
13069SOL    HW140050   5.381   1.475   7.281  0.0546 -1.5947  2.1830
13069SOL    HW240051   5.312   1.609   7.290  1.5354 -0.6095 -0.2080
13070SOL     OW40052   6.378   4.341   3.757 -0.2427 -0.1678  0.3540
13070SOL    HW140053   6.330   4.287   3.694 -1.3080  0.2637  0.7872
13070SOL    HW240054   6.392   4.284   3.833  0.5306 -0.4998 -0.0191
13071SOL     OW40055   5.008   5.144   1.447  0.3354  0.2645  0.0258
13071SOL    HW140056   5.048   5.057   1.459 -0.6879 -0.3193 -0.6923
13071SOL    HW240057   4.932   5.143   1.505 -0.4597  0.1649 -1.0064
13072SOL     OW40058   3.033   5.655   3.181  0.4161 -1.0234  1.1757
13072SOL    HW140059   3.019   5.611   3.097  0.9200  0.7786  0.0832
13072SOL    HW240060   2.945   5.663   3.218 -0.2952  0.8292 -0.6657
13073SOL     OW40061   7.709   3.543   6.946 -0.3057 -0.8703 -0.7446
13073SOL    HW140062   7.615   3.545   6.932  0.0023  0.7378 -3.5283
13073SOL    HW240063   7.724   3.604   7.018 -1.3653 -0.4186 -0.8842
13074SOL     OW40064   1.042   7.539   5.867  0.1303 -0.4393 -0.1444
13074SOL    HW140065   0.953   7.538   5.832  0.0217  0.0297  0.1131
13074SOL    HW240066   1.046   7.616   5.922  1.2057  0.5208 -1.4771
13075SOL     OW40067   1.005   6.807   7.020  0.3357 -0.2622 -0.3094
13075SOL    HW140068   1.033   6.831   6.932  0.4532  2.1210  0.3006
13075SOL    HW240069   1.080   6.758   7.056  1.1057  0.4579 -0.8812
13076SOL     OW40070   7.409   1.379   1.774 -0.3149  0.1019 -0.1538
13076SOL    HW140071   7.432   1.322   1.847  1.1735  0.4038 -0.3582
13076SOL    HW240072   7.400   1.466   1.813  0.6304  0.2905 -0.3324
13077SOL     OW40073   2.394   2.008   5.742 -0.0026  0.0542 -0.1275
13077SOL    HW140074   2.479   2.003   5.786  1.4875  0.5295 -2.7689
13077SOL    HW240075   2.345   1.934   5.778  1.4351 -0.1386  1.6049
13078SOL     OW40076   7.404   6.733   1.272  0.2444 -0.4017  0.7074
13078SOL    HW140077   7.316   6.733   1.310  0.3428  0.0315  0.9378
13078SOL    HW240078   7.407   6.653   1.220  0.5748 -1.7936  2.7279
13079SOL     OW40079   5.673   6.145   4.838  0.2010  0.0778  0.6763
13079SOL    HW140080   5.582   6.129   4.810  0.5376 -0.0044 -0.4088
13079SOL    HW240081   5.668   6.145   4.933 -0.7060 -1.3956  0.6727
13080SOL     OW40082   7.941   7.917   6.677  0.0852  0.3608 -0.1791
13080SOL    HW140083   7.855   7.948   6.648  0.0205  0.8756  0.5399
13080SOL    HW240084   7.922   7.859   6.750  0.4386  2.5197  1.7461
13081SOL     OW40085   3.955   4.715   3.552 -0.3159  0.3053  0.0358
13081SOL    HW140086   3.899   4.715   3.474 -0.7230  1.1327  0.3142
13081SOL    HW240087   3.902   4.757   3.620  0.8246  1.6187  0.1593
13082SOL     OW40088   5.763   5.630   5.875 -0.5969  0.5823 -0.0845
13082SOL    HW140089   5.751   5.540   5.907  1.8707 -0.4529 -1.7857
13082SOL    HW240090   5.678   5.671   5.890 -0.7174 -0.7050  4.5058
13083SOL     OW40091   6.405   2.044   8.025 -0.6111 -0.2145  0.1953
13083SOL    HW140092   6.350   2.017   7.952  0.8748 -0.7514 -0.7817
13083SOL    HW240093   6.448   1.964   8.054  1.0107  0.4358 -0.2750
13084SOL     OW40094   6.327   2.024   1.578 -0.0746  0.1839 -0.0981
13084SOL    HW140095   6.322   2.106   1.627  1.4261 -0.8732  1.9212
13084SOL    HW240096   6.371   2.048   1.496 -0.6998  1.5795 -0.0595
13085SOL     OW40097   7.129   2.667   5.531 -0.2354 -0.0287 -0.1062
13085SOL    HW140098   7.094   2.671   5.619 -0.9672  0.0818 -0.3979
13085SOL    HW240099   7.193   2.596   5.533 -0.0903  0.1141  0.5591
13086SOL     OW40100   3.550   1.089   5.065  0.1367 -0.2819  0.3810
13086SOL    HW140101   3.478   1.150   5.051 -0.0161 -0.2296  1.3396
13086SOL    HW240102   3.595   1.085   4.981 -0.7560 -0.0231 -0.1173
13087SOL     OW40103   3.917   2.112   0.284 -0.4239  0.3306  0.0937
13087SOL    HW140104   3.875   2.085   0.202  0.3982  0.7181 -0.4701
13087SOL    HW240105   3.903   2.039   0.344  1.1049 -1.0643 -1.1612
13088SOL     OW40106   4.039   4.321   6.638  0.4529  0.1000 -0.1849
13088SOL    HW140107   4.132   4.301   6.633  0.0714 -1.5708 -1.4824
13088SOL    HW240108   3.996   4.236   6.646 -1.0488  0.6440 -1.6949
13089SOL     OW40109   6.884   3.621   7.132 -0.2564  0.6990  0.1182
13089SOL    HW140110   6.963   3.573   7.155 -0.4868 -0.7040 -1.7804
13089SOL    HW240111   6.916   3.704   7.095  0.2515  0.8427  0.8696
13090SOL     OW40112   2.783   6.888   2.112  0.6339 -0.2425  0.0621
13090SOL    HW140113   2.800   6.972   2.068  0.6761  0.2069  0.9162
13090SOL    HW240114   2.791   6.908   2.205  1.8009 -1.4590  0.2391
13091SOL     OW40115   5.663   2.118   3.005 -0.4676 -0.1459 -0.7161
13091SOL    HW140116   5.750   2.083   3.025 -0.4298  0.7372  0.7883
13091SOL    HW240117   5.670   2.147   2.914  1.3323  1.3152 -0.1892
13092SOL     OW40118   0.961   1.593   6.602  0.7549  0.3864  0.3157
13092SOL    HW140119   0.907   1.619   6.677  2.4796 -1.1038  2.1933
13092SOL    HW240120   0.933   1.651   6.531 -0.5360  2.3242  2.2700
13093SOL     OW40121   6.980   1.075   6.905 -0.2130  0.4274  0.1523
13093SOL    HW140122   7.033   1.059   6.983 -3.3802 -0.9619  2.2409
13093SOL    HW240123   6.935   0.992   6.889 -2.6829  1.8121 -0.6593
13094SOL     OW40124   1.288   4.757   1.494  0.1806 -0.0672  0.0937
13094SOL    HW140125   1.381   4.743   1.512  0.6070  1.7522 -0.5418
13094SOL    HW240126   1.281   4.747   1.399 -0.2083  0.1258  0.1024
13095SOL     OW40127   0.038   2.704   2.376 -0.6495 -0.3994  0.0770
13095SOL    HW140128   0.053   2.625   2.325 -1.0725 -0.4613  0.0495
13095SOL    HW240129   0.101   2.767   2.341 -1.0710 -0.3758 -0.6595
13096SOL     OW40130   1.359   7.199   0.440 -0.1306 -0.1166 -0.3298
13096SOL    HW140131   1.332   7.289   0.421 -1.4795 -0.3851  0.1940
13096SOL    HW240132   1.287   7.164   0.492  1.5012 -0.7287  1.5959
13097SOL     OW40133   2.964   4.184   8.213  0.6825 -0.1615  0.3712
13097SOL    HW140134   3.034   4.127   8.182  0.8691 -0.6718  1.6423
13097SOL    HW240135   2.937   4.145   8.296 -2.1273 -0.8663 -0.7338
13098SOL     OW40136   8.138   5.224   4.343  0.3205 -0.0524  0.3976
13098SOL    HW140137   8.110   5.257   4.257 -2.8508  1.1005  1.7126
13098SOL    HW240138   8.085   5.145   4.356  0.2661  0.1662  1.5471
13099SOL     OW40139   6.273   4.523   7.026  0.6747 -0.3045 -0.2942
13099SOL    HW140140   6.240   4.451   6.973  0.0223 -0.7082  0.6289
13099SOL    HW240141   6.196   4.558   7.070  0.9751  1.0034 -0.7577
13100SOL     OW40142   1.572   6.036   3.204  0.1518  0.1586  0.2721
13100SOL    HW140143   1.572   6.006   3.113  1.9857 -0.9342  0.5686
13100SOL    HW240144   1.481   6.030   3.232 -0.8388  2.5262 -2.0636
13101SOL     OW40145   3.286   6.380   5.164 -0.2150 -0.2497  0.3730
13101SOL    HW140146   3.300   6.315   5.234 -1.2555 -0.6590  0.2115
13101SOL    HW240147   3.199   6.360   5.129  0.8674 -1.0377 -2.0779
13102SOL     OW40148   5.750   3.512   8.050 -0.1584  0.3495  0.6045
13102SOL    HW140149   5.694   3.512   8.129  0.1844  1.1309  0.8596
13102SOL    HW240150   5.735   3.598   8.011  0.7214  0.4882  0.5647
13103SOL     OW40151   4.911   6.141   4.880  0.3038 -0.4925 -0.1125
13103SOL    HW140152   4.958   6.066   4.843 -0.4321 -0.1440 -1.8586
13103SOL    HW240153   4.979   6.208   4.891  0.7907 -1.0752  0.5708
13104SOL     OW40154   0.663   2.912   3.246  0.1441  0.0595 -0.1685
13104SOL    HW140155   0.621   2.991   3.280  0.3360  0.2180 -0.2942
13104SOL    HW240156   0.741   2.901   3.301 -0.8461 -1.0942  1.0581
13105SOL     OW40157   6.055   5.322   1.851 -0.6284  0.0540  0.2046
13105SOL    HW140158   6.116   5.369   1.908 -1.8614  0.5825  1.1406
13105SOL    HW240159   6.051   5.234   1.889 -0.6870  0.1100  0.3297
13106SOL     OW40160   3.089   3.962   7.117  0.0260 -0.2073 -0.1883
13106SOL    HW140161   3.035   3.892   7.081 -2.1675  1.2912 -0.0209
13106SOL    HW240162   3.118   3.930   7.202 -0.3518 -1.1707 -0.4130
13107SOL     OW40163   4.312   5.468   8.111 -0.3249  0.0390 -0.1066
13107SOL    HW140164   4.247   5.499   8.175  0.3019  1.3617 -0.0783
13107SOL    HW240165   4.315   5.538   8.046  1.6248  0.3752  0.2978
13108SOL     OW40166   4.183   3.534   3.707  0.7435 -0.3057  0.4562
13108SOL    HW140167   4.273   3.549   3.736  1.3667  0.1320 -1.5329
13108SOL    HW240168   4.191   3.472   3.635 -0.3041  1.1543 -1.0070
13109SOL     OW40169   7.362   3.425   3.499  0.7148  0.0919 -0.4276
13109SOL    HW140170   7.424   3.356   3.477 -0.7600 -1.8419  1.0992
13109SOL    HW240171   7.399   3.467   3.577  0.4225 -0.6890  0.1477
13110SOL     OW40172   3.816   6.022   7.306 -0.4438 -0.0037  0.3179
13110SOL    HW140173   3.739   6.035   7.361  0.0443  1.6003  0.6733
13110SOL    HW240174   3.857   5.942   7.339 -0.9586  0.1322  1.3011
13111SOL     OW40175   1.870   6.558   2.537  0.5153 -0.2200  0.2485
13111SOL    HW140176   1.865   6.622   2.466 -1.7842  0.9866  1.3853
13111SOL    HW240177   1.847   6.608   2.616 -0.2401 -2.1917  1.3499
13112SOL     OW40178   8.196   4.019   3.569  0.2453 -0.0124  0.1477
13112SOL    HW140179   8.159   4.076   3.637 -0.1783  0.1410 -0.1997
13112SOL    HW240180   8.289   4.040   3.567 -0.0275  1.2273 -0.4884
13113SOL     OW40181   4.432   4.775   1.448 -0.1139  0.1740 -0.3871
13113SOL    HW140182   4.362   4.840   1.453  1.6085  2.0585  0.7305
13113SOL    HW240183   4.504   4.821   1.404  1.9245 -0.1178  2.3750
13114SOL     OW40184   1.979   5.500   4.673 -0.5025  0.0678  0.2131
13114SOL    HW140185   1.914   5.569   4.661  0.6762  1.2472  0.4135
13114SOL    HW240186   1.984   5.457   4.587  0.5249  1.8680 -0.6898
13115SOL     OW40187   0.695   4.769   7.982 -0.3759 -0.8725 -0.2999
13115SOL    HW140188   0.654   4.854   7.962  1.1362 -0.1278 -0.4062
13115SOL    HW240189   0.681   4.758   8.076  0.1012 -0.0967 -0.1241
13116SOL     OW40190   4.444   2.427   6.577  0.1051  0.1943 -0.7323
13116SOL    HW140191   4.496   2.475   6.513  0.9226 -0.6088 -0.6965
13116SOL    HW240192   4.368   2.482   6.593  0.0544  0.5583 -2.1442
13117SOL     OW40193   5.941   7.232   1.644  0.5810  0.2798 -0.2616
13117SOL    HW140194   5.891   7.217   1.724  1.5645  1.1389  0.5458
13117SOL    HW240195   5.974   7.146   1.619  0.4207  0.0322  0.3636
13118SOL     OW40196   5.461   7.979   3.820 -0.5021  0.1743 -0.7239
13118SOL    HW140197   5.477   7.908   3.883  1.1959 -1.1657 -2.5166
13118SOL    HW240198   5.394   7.944   3.761 -1.4923  1.0976 -0.1795
13119SOL     OW40199   4.330   0.889   4.307  0.1705 -0.3042  0.2595
13119SOL    HW140200   4.339   0.932   4.392  0.6888 -0.2068  0.1571
13119SOL    HW240201   4.366   0.801   4.321  1.3005  0.0783 -0.1448
13120SOL     OW40202   0.407   0.243   1.042 -0.3132 -0.3794  0.1254
13120SOL    HW140203   0.485   0.299   1.038 -0.6369  0.0450 -0.3975
13120SOL    HW240204   0.391   0.231   1.136  0.5753 -0.7507  0.2423
13121SOL     OW40205   1.014   0.391   0.803  0.3424  0.1585  0.0223
13121SOL    HW140206   1.004   0.461   0.738 -0.5545 -0.0301 -0.0556
13121SOL    HW240207   1.029   0.436   0.885 -1.9374  0.5488  0.2991
13122SOL     OW40208   1.793   5.504   5.041  0.4215 -0.4781 -0.3765
13122SOL    HW140209   1.887   5.486   5.034  0.2784 -1.8867  0.8740
13122SOL    HW240210   1.788   5.599   5.051  1.6259 -0.2525 -1.6292
13123SOL     OW40211   4.151   5.993   1.438 -0.0032 -0.0520  0.1337
13123SOL    HW140212   4.074   6.040   1.404 -0.6432 -1.4896 -0.4709
13123SOL    HW240213   4.126   5.966   1.526 -0.9801 -2.1777 -0.7409
13124SOL     OW40214   1.085   1.549   3.129  0.3104 -0.5168 -0.2067
13124SOL    HW140215   1.031   1.627   3.142 -0.1251 -0.8747  0.2101
13124SOL    HW240216   1.094   1.541   3.034  0.6919  0.2566 -0.2436
13125SOL     OW40217   2.064   1.107   4.493  0.5499  0.2620  0.3038
13125SOL    HW140218   1.985   1.118   4.441 -0.0249 -0.9089  0.8680
13125SOL    HW240219   2.110   1.191   4.487 -0.9311  1.0970  0.2942
13126SOL     OW40220   0.722   4.542   1.747  0.1143  0.1926  0.3301
13126SOL    HW140221   0.750   4.454   1.775 -0.8954  0.0320  0.9070
13126SOL    HW240222   0.722   4.538   1.651 -0.7573 -0.7316  0.3512
13127SOL     OW40223   6.872   8.186   3.451  0.6336 -0.1774  0.6031
13127SOL    HW140224   6.965   8.162   3.452  1.4836  2.7173  2.5505
13127SOL    HW240225   6.847   8.187   3.543 -1.4655 -1.1261  0.1005
13128SOL     OW40226   5.824   7.203   5.567  0.4441  0.0747 -0.0893
13128SOL    HW140227   5.754   7.152   5.526  1.0044 -0.5105 -0.3157
13128SOL    HW240228   5.778   7.260   5.629 -0.1843 -0.7225  0.1934
13129SOL     OW40229   1.887   3.564   5.040 -0.3496  0.2931  0.0405
13129SOL    HW140230   1.863   3.505   4.969  1.2805  0.9632 -1.1209
13129SOL    HW240231   1.818   3.552   5.105 -1.4580 -0.9381 -1.2914
13130SOL     OW40232   1.199   1.970   3.357 -0.9688  0.5311 -0.7850
13130SOL    HW140233   1.180   2.063   3.347  0.7375  1.1269  0.8682
13130SOL    HW240234   1.250   1.947   3.279 -1.7111  0.8766 -1.3782
13131SOL     OW40235   0.533   4.952   8.062  0.6602  0.5093  0.3452
13131SOL    HW140236   0.535   5.047   8.059 -0.5766  0.5552  0.6133
13131SOL    HW240237   0.495   4.931   8.148 -2.6947 -0.1324 -1.1453
13132SOL     OW40238   6.568   5.711   1.703  0.2170 -0.0262  0.8549
13132SOL    HW140239   6.589   5.799   1.736  1.6555 -0.4011  0.9885
13132SOL    HW240240   6.642   5.689   1.646 -0.1897 -1.1096  0.7318
13133SOL     OW40241   7.898   1.867   4.489 -0.3141 -0.7089  0.0285
13133SOL    HW140242   7.900   1.844   4.396  0.8416  1.7505 -0.6589
13133SOL    HW240243   7.813   1.910   4.501 -1.0073 -2.1408  0.4691
13134SOL     OW40244   4.109   2.012   7.172  0.1056  0.3704  0.2122
13134SOL    HW140245   4.168   2.077   7.135 -1.3747  0.6636 -1.8216
13134SOL    HW240246   4.021   2.047   7.155 -0.6901 -0.9544  1.3845
13135SOL     OW40247   4.982   6.957   7.782  0.2504 -0.1765 -0.3717
13135SOL    HW140248   5.057   6.912   7.820 -0.0948 -0.6254 -0.2029
13135SOL    HW240249   4.914   6.890   7.777  0.1412 -0.0009 -1.3598
13136SOL     OW40250   2.739   4.371   6.519  0.0991 -0.1860 -0.2311
13136SOL    HW140251   2.726   4.303   6.453  2.6037  0.8544 -1.9425
13136SOL    HW240252   2.674   4.438   6.499  1.5812  0.6637 -2.5005
13137SOL     OW40253   6.965   3.794   0.840 -0.1718  0.5572 -0.0633
13137SOL    HW140254   6.966   3.710   0.884 -0.8843  0.0845 -0.9164
13137SOL    HW240255   6.961   3.773   0.747  0.4985  1.5324 -0.3298
13138SOL     OW40256   7.113   3.010   1.291 -0.3647 -0.2915 -0.0363
13138SOL    HW140257   7.204   3.002   1.319  0.0699  0.1807 -1.2441
13138SOL    HW240258   7.083   3.092   1.329 -0.0640 -0.1016 -0.2081
13139SOL     OW40259   0.440   2.025   0.473 -0.1427  0.1542  0.3860
13139SOL    HW140260   0.406   1.936   0.484 -0.9573  0.3714 -0.2878
13139SOL    HW240261   0.512   2.031   0.536  0.9034 -1.4832 -0.5981
13140SOL     OW40262   5.211   3.029   7.865 -0.3299  0.0430 -0.0548
13140SOL    HW140263   5.118   3.005   7.871 -0.0293 -0.9506  0.9518
13140SOL    HW240264   5.256   2.960   7.913  0.8639  0.9604  0.1721
13141SOL     OW40265   5.012   3.933   1.409  0.2085  0.2060 -0.2348
13141SOL    HW140266   5.081   3.879   1.449 -0.2094  0.8283  1.4032
13141SOL    HW240267   5.060   4.005   1.367  0.5705  0.8640  1.2469
13142SOL     OW40268   6.967   4.559   0.418  0.2915  0.2716 -0.1122
13142SOL    HW140269   6.925   4.532   0.336  0.7528  0.5738 -0.4487
13142SOL    HW240270   7.017   4.482   0.446 -0.1934  0.0281  0.1085
13143SOL     OW40271   6.469   4.543   0.021  0.1842  0.3303 -0.4653
13143SOL    HW140272   6.558   4.531   0.056 -0.2097  0.5503  0.6374
13143SOL    HW240273   6.454   4.638   0.025  0.2629  0.3995 -1.5872
13144SOL     OW40274   3.716   0.681   7.965  0.3529 -0.2371  0.2238
13144SOL    HW140275   3.722   0.588   7.986 -0.5853 -0.4217 -0.2617
13144SOL    HW240276   3.721   0.725   8.050  0.7504 -0.7250  0.4594
13145SOL     OW40277   6.132   6.985   1.757  0.0172 -0.0651  0.6628
13145SOL    HW140278   6.149   6.929   1.682 -2.3881  2.2519 -1.8011
13145SOL    HW240279   6.213   7.036   1.768  0.9971 -1.5920  0.8246
13146SOL     OW40280   2.124   3.304   1.693 -0.0480  0.4693  0.2432
13146SOL    HW140281   2.098   3.355   1.616  1.9215  1.5620  0.2314
13146SOL    HW240282   2.090   3.216   1.676 -2.0131  1.3236 -0.5670
13147SOL     OW40283   7.249   4.967   0.867 -0.1273 -0.5598  0.1276
13147SOL    HW140284   7.228   5.023   0.942  0.3737 -0.9691  0.5776
13147SOL    HW240285   7.302   4.897   0.903 -0.0493 -0.8757 -0.5812
13148SOL     OW40286   6.562   0.482   3.570 -0.3528 -0.3058 -0.3037
13148SOL    HW140287   6.547   0.560   3.516  1.8216 -0.0954 -0.6822
13148SOL    HW240288   6.590   0.517   3.655 -0.6692 -0.6820 -0.0396
13149SOL     OW40289   0.860   5.774   5.457  0.6832  0.0731  0.2996
13149SOL    HW140290   0.882   5.697   5.509 -0.6785  0.5318  1.6567
13149SOL    HW240291   0.911   5.845   5.495 -1.5746  0.7745  2.3003
13150SOL     OW40292   2.140   7.537   0.453 -0.3068  0.2120  0.0488
13150SOL    HW140293   2.094   7.579   0.526  0.8181 -0.8740  1.4583
13150SOL    HW240294   2.232   7.544   0.476  0.0197 -1.0382 -0.7820
13151SOL     OW40295   6.840   1.980   8.209  0.6386  0.7377 -0.0850
13151SOL    HW140296   6.772   1.957   8.146  0.8207 -0.0339 -0.0090
13151SOL    HW240297   6.806   2.057   8.254 -0.2184  0.3221  0.0015
13152SOL     OW40298   2.991   0.417   3.441 -0.0459 -0.9520  0.3445
13152SOL    HW140299   3.033   0.335   3.466  0.3939 -0.7406  0.2999
13152SOL    HW240300   2.951   0.448   3.522  1.5745 -0.1516  0.8698
13153SOL     OW40301   3.429   3.163   0.615 -0.6035  0.4472  0.0434
13153SOL    HW140302   3.520   3.134   0.622  0.0019  2.5679  2.6915
13153SOL    HW240303   3.377   3.083   0.617  1.1375 -0.7345 -0.4307
13154SOL     OW40304   6.831   3.026   0.351 -0.0924  0.4328 -0.4525
13154SOL    HW140305   6.888   2.985   0.286 -0.5956 -0.8160 -0.1354
13154SOL    HW240306   6.790   3.099   0.304  1.1781  0.9020 -0.8947
13155SOL     OW40307   1.773   1.854   8.075 -0.0971 -0.2569  0.2068
13155SOL    HW140308   1.711   1.842   8.147 -0.8757 -1.7072 -0.6437
13155SOL    HW240309   1.793   1.765   8.046  1.3765  0.2463 -0.4020
13156SOL     OW40310   0.586   3.635   5.869  0.2636 -0.3827  0.4787
13156SOL    HW140311   0.523   3.623   5.940  0.3929 -0.4860  0.5773
13156SOL    HW240312   0.640   3.556   5.872  1.2770  0.3045  1.2846
13157SOL     OW40313   4.457   4.548   0.648  0.2808 -0.5285  0.5156
13157SOL    HW140314   4.527   4.613   0.651 -0.6410  0.4665  0.7499
13157SOL    HW240315   4.381   4.595   0.615  0.1909 -2.0675 -1.6748
13158SOL     OW40316   0.793   7.049   4.541 -0.2536 -0.1233 -0.3724
13158SOL    HW140317   0.839   6.966   4.534 -0.5931 -0.2288 -1.7242
13158SOL    HW240318   0.811   7.080   4.629 -1.5880 -2.4868  0.8352
13159SOL     OW40319   7.744   5.069   7.413 -0.4081 -0.2392 -0.2680
13159SOL    HW140320   7.654   5.062   7.381 -0.3757  1.5836 -0.8708
13159SOL    HW240321   7.734   5.082   7.508 -1.0064  2.5460 -0.6116
13160SOL     OW40322   3.027   0.888   6.365 -0.1521 -0.4562 -0.0429
13160SOL    HW140323   3.083   0.949   6.317 -0.4511 -0.2355 -0.1150
13160SOL    HW240324   2.947   0.938   6.383 -0.9790 -1.2296 -1.3382
13161SOL     OW40325   0.500   6.266   4.086 -0.0854 -0.1054 -0.0383
13161SOL    HW140326   0.507   6.269   4.181  2.9526  1.5907 -0.2018
13161SOL    HW240327   0.407   6.277   4.068 -0.4956  1.7502  2.7148
13162SOL     OW40328   6.730   6.837   4.802 -0.3983 -0.3472  0.3959
13162SOL    HW140329   6.662   6.841   4.735 -0.4300 -0.3352  0.4292
13162SOL    HW240330   6.808   6.872   4.759 -0.1889 -1.1927  0.0789
13163SOL     OW40331   5.964   4.246   2.247  0.6716 -0.0403  0.1331
13163SOL    HW140332   5.897   4.256   2.315  1.6590  3.6012  0.7586
13163SOL    HW240333   6.045   4.277   2.288  1.7987  0.0010 -1.9934
13164SOL     OW40334   4.620   1.105   4.419 -0.2007 -0.1829 -0.2000
13164SOL    HW140335   4.567   1.165   4.365  1.6346  1.7785  0.0376
13164SOL    HW240336   4.710   1.121   4.391  0.7037 -0.0835  2.4693
13165SOL     OW40337   7.117   1.976   2.634  0.5395 -0.7212  0.1070
13165SOL    HW140338   7.134   1.904   2.695  3.0907  0.8705  1.4572
13165SOL    HW240339   7.141   1.941   2.548 -0.5807 -2.1867  0.3573
13166SOL     OW40340   3.092   0.814   0.661  0.3629  0.5846  0.2717
13166SOL    HW140341   3.092   0.761   0.582  0.7471 -1.1766  1.3972
13166SOL    HW240342   3.058   0.756   0.729 -0.8181  2.3337  1.2459
13167SOL     OW40343   4.952   3.792   7.245  0.2192  0.0496  0.0072
13167SOL    HW140344   4.982   3.792   7.154 -1.0379 -3.5668 -0.5398
13167SOL    HW240345   4.901   3.873   7.252  1.3114  1.0148 -2.1166
13168SOL     OW40346   7.185   2.052   4.631  0.6690  0.2747  0.0733
13168SOL    HW140347   7.248   1.987   4.661 -0.2313 -0.2069  0.9502
13168SOL    HW240348   7.142   2.083   4.710  2.4799  3.5275 -0.0119
13169SOL     OW40349   0.925   7.822   7.896 -0.5136 -0.1512  0.0169
13169SOL    HW140350   0.990   7.774   7.947  0.6131  1.9552  0.7125
13169SOL    HW240351   0.854   7.760   7.882  0.7362 -1.8983  1.0467
13170SOL     OW40352   1.356   7.293   5.692 -0.5845 -0.1208  0.1142
13170SOL    HW140353   1.319   7.318   5.608  0.3696  1.2037  0.0508
13170SOL    HW240354   1.348   7.371   5.747 -0.9140 -0.8652  1.1706
13171SOL     OW40355   0.607   0.052   4.243  0.0051 -0.0487  0.4904
13171SOL    HW140356   0.585   0.019   4.156  1.5280  0.9012 -0.2956
13171SOL    HW240357   0.525   0.089   4.276 -1.3121 -2.8448  0.6724
13172SOL     OW40358   7.183   2.079   5.712  0.0649 -0.5999  0.5065
13172SOL    HW140359   7.141   2.074   5.798  0.3116  1.2947  0.7736
13172SOL    HW240360   7.239   2.156   5.717 -1.2754  0.6548 -1.9365
13173SOL     OW40361   4.835   7.625   1.173 -0.1450  0.1021 -0.8401
13173SOL    HW140362   4.921   7.655   1.203 -0.9375  0.3839  1.2845
13173SOL    HW240363   4.818   7.678   1.095  0.9653  1.1176 -0.4275
13174SOL     OW40364   2.568   2.662   5.971  0.1402 -0.3606  0.4581
13174SOL    HW140365   2.530   2.697   5.891  0.6110 -1.2852 -0.1953
13174SOL    HW240366   2.524   2.709   6.042 -1.5240 -0.7270 -0.2939
13175SOL     OW40367   5.449   6.904   0.239 -0.4653 -0.2318  0.1188
13175SOL    HW140368   5.514   6.870   0.301 -0.0666 -1.8657 -1.1336
13175SOL    HW240369   5.370   6.853   0.257 -1.0064  0.7641  0.6675
13176SOL     OW40370   7.589   8.100   2.249 -0.2789  0.7107 -0.2871
13176SOL    HW140371   7.684   8.112   2.259 -0.1789  0.1358 -0.5396
13176SOL    HW240372   7.553   8.187   2.267  0.3527  1.1319 -0.9890
13177SOL     OW40373   7.787   7.876   3.041 -0.2956  0.0835 -0.1244
13177SOL    HW140374   7.836   7.880   2.959 -1.1177 -0.6229 -0.6660
13177SOL    HW240375   7.854   7.864   3.109  0.3230 -0.2461 -0.7812
13178SOL     OW40376   8.182   5.647   7.647 -0.0606 -0.1158 -0.0156
13178SOL    HW140377   8.149   5.737   7.651 -0.9017 -0.4598  1.6790
13178SOL    HW240378   8.237   5.637   7.725  1.2675 -0.6394 -0.9737
13179SOL     OW40379   6.941   4.215   3.315  0.4531  0.5040  0.5675
13179SOL    HW140380   7.023   4.239   3.357  1.6155  0.5956 -1.6110
13179SOL    HW240381   6.900   4.299   3.293  0.5813  0.4789  0.2164
13180SOL     OW40382   6.974   3.811   8.178  0.5122  0.1544 -0.0696
13180SOL    HW140383   7.020   3.810   8.262 -0.5840 -0.6003  0.5510
13180SOL    HW240384   6.927   3.895   8.178 -0.0311 -0.1448  0.3901
13181SOL     OW40385   6.260   1.852   2.824  0.1960  0.2668  0.1699
13181SOL    HW140386   6.191   1.788   2.838 -0.8902  1.6499  1.3726
13181SOL    HW240387   6.231   1.904   2.749  0.2120  0.4645  0.2984
13182SOL     OW40388   7.116   4.601   3.100  0.4528 -0.1049 -0.0537
13182SOL    HW140389   7.072   4.582   3.183  1.7828  1.3584  1.0376
13182SOL    HW240390   7.100   4.524   3.047 -0.6774 -0.9717  1.4628
13183SOL     OW40391   6.663   1.201   6.556  0.6762  0.0696  0.1210
13183SOL    HW140392   6.685   1.109   6.540  0.2343  0.1619 -1.1044
13183SOL    HW240393   6.728   1.230   6.620  1.3692 -0.8540 -0.1406
13184SOL     OW40394   4.081   4.436   5.429 -0.0958  0.1007  0.2795
13184SOL    HW140395   4.137   4.505   5.466 -1.2372  1.0520  0.3073
13184SOL    HW240396   4.099   4.359   5.481  1.0385  0.4459  0.4191
13185SOL     OW40397   6.747   4.886   3.356  0.2735 -0.0309  0.4164
13185SOL    HW140398   6.807   4.922   3.291 -0.0345  0.7504  0.5553
13185SOL    HW240399   6.749   4.949   3.428 -0.0861 -0.4218  0.7731
13186SOL     OW40400   3.727   5.749   7.240 -0.0398  0.0619  0.2761
13186SOL    HW140401   3.791   5.778   7.175 -1.2524  0.7295 -0.6512
13186SOL    HW240402   3.705   5.660   7.214  0.0236  0.0649  0.2123
13187SOL     OW40403   4.401   5.914   5.523  0.4261 -0.2142 -0.1644
13187SOL    HW140404   4.400   5.855   5.447  0.3522  1.1032 -1.2266
13187SOL    HW240405   4.333   5.979   5.503  0.5198  0.2453  0.9673
13188SOL     OW40406   0.826   4.258   4.882 -0.5860 -0.2838 -0.0111
13188SOL    HW140407   0.841   4.266   4.788 -3.0978 -1.2145 -0.5570
13188SOL    HW240408   0.732   4.273   4.893 -0.9035 -3.0159  1.9817
13189SOL     OW40409   2.608   5.845   2.527 -0.1988 -0.0222  0.2297
13189SOL    HW140410   2.532   5.901   2.513  1.3926  2.3630  0.4695
13189SOL    HW240411   2.572   5.758   2.543 -2.8163  0.9279 -0.0938
13190SOL     OW40412   6.532   1.662   3.095  0.0691 -0.3861 -0.1499
13190SOL    HW140413   6.513   1.751   3.067  1.1500  0.1806  0.8160
13190SOL    HW240414   6.466   1.608   3.052 -0.1067  0.7775 -1.4030
13191SOL     OW40415   7.585   3.281   8.186 -0.8050  0.4291 -0.4997
13191SOL    HW140416   7.559   3.247   8.272 -1.5484 -2.0054 -1.5823
13191SOL    HW240417   7.502   3.301   8.142 -0.5100  0.1464 -1.1982
13192SOL     OW40418   0.874   2.637   4.780  0.3484  0.5086  0.7628
13192SOL    HW140419   0.893   2.708   4.718 -0.5863  0.2688  0.1782
13192SOL    HW240420   0.790   2.602   4.751  0.3358 -0.2137  1.6294
13193SOL     OW40421   2.346   7.435   4.500  0.7980 -0.0998 -0.4866
13193SOL    HW140422   2.364   7.506   4.562  1.0970  1.0950 -1.8734
13193SOL    HW240423   2.370   7.472   4.415 -1.1954 -1.0837 -1.5395
13194SOL     OW40424   3.016   2.150   2.125 -0.3931 -0.3249 -0.2708
13194SOL    HW140425   2.992   2.132   2.035  0.0730  0.6060 -0.5876
13194SOL    HW240426   3.095   2.098   2.140  0.2983  0.5509 -0.8263
13195SOL     OW40427   3.625   5.771   4.951  0.5559 -0.2598 -0.6268
13195SOL    HW140428   3.560   5.702   4.961  0.2158 -0.1599 -1.9860
13195SOL    HW240429   3.695   5.731   4.900  0.1542  0.5095 -1.8169
13196SOL     OW40430   1.884   3.139   4.778  0.5112  0.1091  0.0640
13196SOL    HW140431   1.965   3.132   4.729  1.0194 -0.2858  0.9462
13196SOL    HW240432   1.882   3.062   4.834 -1.4931 -1.0365 -1.4274
13197SOL     OW40433   8.092   5.666   0.326 -0.0985  0.1691 -0.4399
13197SOL    HW140434   8.105   5.637   0.236  1.7655 -0.5804  0.0092
13197SOL    HW240435   8.159   5.734   0.339  0.3407 -0.4416  0.6520
13198SOL     OW40436   2.398   2.423   3.187 -0.3844 -0.4196  0.1078
13198SOL    HW140437   2.369   2.384   3.270 -1.2513  0.2725  0.1392
13198SOL    HW240438   2.386   2.518   3.200  0.9041 -0.1866 -0.2640
13199SOL     OW40439   0.083   0.461   5.476 -0.3019 -0.2671 -0.3058
13199SOL    HW140440   0.009   0.470   5.536 -1.1062 -0.0857 -1.3132
13199SOL    HW240441   0.097   0.366   5.470  0.0661 -0.2771  0.4793
13200SOL     OW40442   3.578   6.870   5.757 -0.1714  0.2870 -0.4003
13200SOL    HW140443   3.642   6.801   5.772 -2.4140 -1.6974  0.6811
13200SOL    HW240444   3.556   6.863   5.665  0.3972  0.3152 -0.5452
13201SOL     OW40445   5.795   4.907   5.146 -1.0678 -0.4826  0.3468
13201SOL    HW140446   5.783   4.926   5.053 -0.1011 -1.4360 -0.0058
13201SOL    HW240447   5.890   4.908   5.157 -1.2084  1.6685  1.7995
13202SOL     OW40448   5.760   1.734   6.909 -0.0220 -0.3429  0.1597
13202SOL    HW140449   5.724   1.712   6.995  0.3660  0.2258  0.4751
13202SOL    HW240450   5.831   1.796   6.928  2.0512 -2.4175 -0.3184
13203SOL     OW40451   5.574   0.057   4.724 -0.0434  0.6030 -0.3362
13203SOL    HW140452   5.555   0.135   4.672 -1.3863 -0.2084 -1.1543
13203SOL    HW240453   5.666   0.037   4.706  0.5431  2.4014  0.4886
13204SOL     OW40454   3.146   1.966   7.818  0.0021 -0.3529 -0.2790
13204SOL    HW140455   3.141   1.898   7.751  0.8453 -1.2395  0.5469
13204SOL    HW240456   3.139   1.920   7.901 -0.3329  0.6687  0.2865
13205SOL     OW40457   2.617   7.621   0.496  0.3965  0.3060 -0.1558
13205SOL    HW140458   2.671   7.625   0.575  1.6963 -0.8642 -0.9473
13205SOL    HW240459   2.531   7.591   0.527  0.7540  0.2830  0.8489
13206SOL     OW40460   7.190   2.310   7.802 -0.2045 -0.4622  0.0856
13206SOL    HW140461   7.230   2.397   7.800 -0.1981 -0.4640  0.1418
13206SOL    HW240462   7.172   2.294   7.894  0.1925 -0.7025  0.1244
13207SOL     OW40463   4.155   4.226   0.782 -0.1968 -0.4785  0.0751
13207SOL    HW140464   4.203   4.183   0.711 -1.6584 -0.1755 -1.1598
13207SOL    HW240465   4.148   4.317   0.754 -1.3786 -0.4951  0.2480
13208SOL     OW40466   4.604   2.232   7.516 -0.3044  0.2468 -0.0530
13208SOL    HW140467   4.541   2.200   7.581  0.4211 -1.5053 -0.1434
13208SOL    HW240468   4.686   2.242   7.565  0.0869 -0.4666 -0.5359
13209SOL     OW40469   2.873   0.017   3.827 -0.0286  0.8431 -0.3702
13209SOL    HW140470   2.802   0.081   3.818 -0.1046  0.9473  0.7940
13209SOL    HW240471   2.830  -0.062   3.860  0.1977  0.4695 -0.9707
13210SOL     OW40472   3.582   5.830   1.643 -0.1745 -0.5634  0.3664
13210SOL    HW140473   3.530   5.792   1.573  0.1736  0.2935 -0.3762
13210SOL    HW240474   3.663   5.779   1.643  0.0569 -0.2005 -0.2422
13211SOL     OW40475   5.685   0.468   5.514  0.5182  0.8131 -0.8025
13211SOL    HW140476   5.707   0.497   5.603 -1.6737 -2.2224  0.9548
13211SOL    HW240477   5.595   0.495   5.502 -0.0754 -1.0512 -0.9267
13212SOL     OW40478   5.081   4.929   6.371 -0.0698  0.3952  0.0066
13212SOL    HW140479   5.165   4.953   6.333  0.7626 -1.0844  0.8105
13212SOL    HW240480   5.029   4.897   6.297 -0.8638  3.4382 -0.9210
13213SOL     OW40481   3.396   1.529   6.753  0.1919  0.4630  0.2523
13213SOL    HW140482   3.479   1.483   6.738  1.0694  2.1112 -0.2588
13213SOL    HW240483   3.421   1.621   6.759 -1.3962  0.8483  1.9152
13214SOL     OW40484   2.847   5.178   4.503  0.3814  0.1004  0.8494
13214SOL    HW140485   2.775   5.196   4.442  1.8970 -0.2760 -1.1564
13214SOL    HW240486   2.809   5.121   4.570 -1.1917 -0.0524 -0.1378
13215SOL     OW40487   3.749   4.114   3.855  0.3654  0.2684 -0.2777
13215SOL    HW140488   3.696   4.052   3.905 -0.0535  2.3015  2.0174
13215SOL    HW240489   3.698   4.130   3.775 -0.1476 -1.3043 -0.2914
13216SOL     OW40490   4.032   6.987   7.814  1.0702  0.8807 -0.5671
13216SOL    HW140491   4.063   7.074   7.839  0.6999  1.1057 -0.8911
13216SOL    HW240492   4.062   6.930   7.885  0.2386  1.4674  0.2726
13217SOL     OW40493   5.250   1.562   0.673 -0.3333  0.0262  0.2331
13217SOL    HW140494   5.162   1.566   0.635 -0.6037  2.8909  0.9122
13217SOL    HW240495   5.307   1.604   0.609  0.2748 -0.4755  0.4351
13218SOL     OW40496   4.746   7.835   3.809  0.7685  0.4151 -0.1181
13218SOL    HW140497   4.707   7.858   3.724 -0.0707 -0.0700  0.1212
13218SOL    HW240498   4.778   7.746   3.797  0.3295  0.2125  0.1688
13219SOL     OW40499   7.539   0.464   5.399 -0.0774 -0.8681  0.0272
13219SOL    HW140500   7.629   0.433   5.392  0.1867 -0.2314  0.5052
13219SOL    HW240501   7.485   0.385   5.391  0.3935 -1.0271 -2.7588
13220SOL     OW40502   5.186   8.126   6.159 -0.2980  0.5420 -0.2940
13220SOL    HW140503   5.278   8.102   6.151 -0.3554  0.2173  0.0017
13220SOL    HW240504   5.169   8.181   6.083  0.1726  0.7093 -0.2839
13221SOL     OW40505   4.723   3.113   2.239  0.2586 -0.2102  0.3051
13221SOL    HW140506   4.746   3.194   2.284  0.1410 -0.1192  0.2009
13221SOL    HW240507   4.630   3.122   2.219 -0.1497 -1.0360  1.6889
13222SOL     OW40508   2.596   1.979   0.833  0.3325  0.6144  0.1813
13222SOL    HW140509   2.568   1.928   0.909  2.0370  1.8263  1.7021
13222SOL    HW240510   2.523   2.039   0.816  0.1996  0.7732  1.2811
13223SOL     OW40511   6.498   0.679   3.354  0.2397 -0.1301 -0.6058
13223SOL    HW140512   6.416   0.686   3.306 -1.5722  4.0776  2.4632
13223SOL    HW240513   6.557   0.741   3.311 -0.4344  1.5287  0.7541
13224SOL     OW40514   3.720   5.191   7.708  0.3640  0.2917  0.1581
13224SOL    HW140515   3.644   5.246   7.729 -0.1243  0.0242 -0.8447
13224SOL    HW240516   3.751   5.161   7.793 -1.9447 -1.2989  0.5410
13225SOL     OW40517   0.509   6.192   0.716 -0.4111  0.0475 -0.1993
13225SOL    HW140518   0.490   6.232   0.631  0.4563  0.9676  0.0134
13225SOL    HW240519   0.544   6.264   0.769  0.4929 -0.8341  0.4447
13226SOL     OW40520   4.288   7.592   1.538  0.0110  0.5396 -0.2892
13226SOL    HW140521   4.297   7.514   1.483 -2.0780  0.8396 -1.1420
13226SOL    HW240522   4.208   7.634   1.507 -0.7790  1.2053  2.4249
13227SOL     OW40523   1.644   0.500   0.761  0.0783  0.7906  0.1577
13227SOL    HW140524   1.642   0.501   0.857 -1.5926 -2.2381  0.2608
13227SOL    HW240525   1.580   0.567   0.735 -2.1520 -0.7882  1.2988
13228SOL     OW40526   5.578   4.026   1.569 -0.2960  0.6933  0.4384
13228SOL    HW140527   5.566   3.964   1.497 -0.3224  1.4879 -0.2477
13228SOL    HW240528   5.655   4.078   1.544 -1.1875  1.9640  0.2553
13229SOL     OW40529   0.633   7.408   6.556 -0.9974  0.6134  0.0233
13229SOL    HW140530   0.625   7.498   6.587  0.1389  0.0033  2.2685
13229SOL    HW240531   0.727   7.394   6.546 -0.9868 -0.9281  1.7531
13230SOL     OW40532   1.097   2.255   7.922  0.7142  0.2238  0.1082
13230SOL    HW140533   1.145   2.258   7.839  0.5705 -0.3633 -0.0022
13230SOL    HW240534   1.008   2.230   7.898  0.3333  1.3473  0.3122
13231SOL     OW40535   5.300   2.414   6.983 -0.6827 -0.1179 -0.1418
13231SOL    HW140536   5.212   2.377   6.969 -1.3602  1.3762 -0.0201
13231SOL    HW240537   5.286   2.508   6.987  1.0899  0.2360 -1.2444
13232SOL     OW40538   0.458   0.475   8.156  0.8690  0.2814 -0.0665
13232SOL    HW140539   0.419   0.397   8.117  2.2828 -1.3590  1.6117
13232SOL    HW240540   0.553   0.460   8.151  1.1341  0.6675  2.5181
13233SOL     OW40541   5.976   5.539   5.186  0.1412 -0.3552  0.4843
13233SOL    HW140542   5.896   5.526   5.236 -0.0237 -0.4201  0.2093
13233SOL    HW240543   5.955   5.608   5.123  0.4146 -0.1175  0.6487
13234SOL     OW40544   2.363   4.820   2.490 -0.0074 -0.3186 -0.4751
13234SOL    HW140545   2.271   4.830   2.466  0.5632 -0.1011 -2.7926
13234SOL    HW240546   2.362   4.815   2.586 -2.2661  1.3841 -0.3077
13235SOL     OW40547   5.571   7.488   3.465  0.1270 -0.5555  0.0110
13235SOL    HW140548   5.496   7.526   3.419  0.0044 -0.1933  0.5074
13235SOL    HW240549   5.570   7.529   3.552  2.4820  1.5824 -0.8315
13236SOL     OW40550   4.079   6.975   3.864  0.2006  0.3381 -0.1962
13236SOL    HW140551   4.102   7.048   3.807 -0.7912 -0.1947 -1.3378
13236SOL    HW240552   4.133   6.987   3.942  0.3094  2.0869 -0.4931
13237SOL     OW40553   1.763   1.474   3.989 -0.6856 -0.5873 -0.0160
13237SOL    HW140554   1.728   1.561   4.009 -1.4279 -0.9658  0.3464
13237SOL    HW240555   1.689   1.415   4.000 -0.2325 -1.2473 -0.4548
13238SOL     OW40556   7.959   2.796   2.999 -0.0435  0.3500  0.0021
13238SOL    HW140557   7.866   2.805   2.976 -0.4721 -0.1210  1.4828
13238SOL    HW240558   7.965   2.826   3.089  0.8612 -1.5578  0.6155
13239SOL     OW40559   7.302   2.346   8.155 -0.1787  0.5026 -0.0841
13239SOL    HW140560   7.302   2.438   8.127  0.8155  0.4172 -0.4197
13239SOL    HW240561   7.389   2.334   8.193 -1.1555  0.3656  2.2572
13240SOL     OW40562   0.626   5.066   6.600 -0.0927 -0.1135  0.0718
13240SOL    HW140563   0.674   4.994   6.559  1.1587  1.0794 -0.6465
13240SOL    HW240564   0.575   5.105   6.529  0.4379  0.6535  0.1006
13241SOL     OW40565   3.500   2.388   2.485 -0.4554  0.0114 -0.3406
13241SOL    HW140566   3.429   2.446   2.513 -1.6407 -1.7584  0.5097
13241SOL    HW240567   3.456   2.306   2.462  1.2574 -0.9022 -0.5305
13242SOL     OW40568   4.468   7.210   1.001  0.4387  0.4066  0.3905
13242SOL    HW140569   4.408   7.284   0.998  1.4269  1.3247  1.8267
13242SOL    HW240570   4.532   7.229   0.933 -0.0718  0.1587 -0.1685
13243SOL     OW40571   6.602   6.310   5.256 -0.1495 -0.1622 -0.5189
13243SOL    HW140572   6.631   6.232   5.304 -1.4094 -0.8850 -0.8927
13243SOL    HW240573   6.627   6.383   5.313  0.6365 -0.8486  0.0548
13244SOL     OW40574   0.224   2.476   5.483  0.1478 -0.4870 -0.0117
13244SOL    HW140575   0.235   2.568   5.459  0.2518  0.0517  1.9351
13244SOL    HW240576   0.237   2.428   5.401  2.0527  1.1024 -0.7172
13245SOL     OW40577   0.212   4.197   7.853  0.7636  0.1718  0.2381
13245SOL    HW140578   0.264   4.132   7.900 -0.4272  0.4905  2.1538
13245SOL    HW240579   0.173   4.251   7.923 -1.4865  0.4232 -1.0965
13246SOL     OW40580   0.413   2.221   1.883  0.2802 -0.7004 -0.1900
13246SOL    HW140581   0.328   2.214   1.840  0.8788  1.1403 -1.8162
13246SOL    HW240582   0.393   2.237   1.975 -1.1443  0.1243 -0.6218
13247SOL     OW40583   5.747   1.676   6.301  0.1690 -0.3724 -0.2836
13247SOL    HW140584   5.826   1.635   6.337  0.3484 -1.3027 -1.6503
13247SOL    HW240585   5.780   1.747   6.246 -0.0436  0.2688  0.4002
13248SOL     OW40586   2.482   6.249   6.235 -0.2541 -0.2514  0.1498
13248SOL    HW140587   2.463   6.287   6.150 -0.1166 -0.8434 -0.1522
13248SOL    HW240588   2.465   6.155   6.224 -0.7696 -0.2664  0.9216
13249SOL     OW40589   6.956   5.829   3.644 -0.0762 -0.3470 -0.0391
13249SOL    HW140590   6.870   5.794   3.665 -0.2548 -0.6311 -1.1651
13249SOL    HW240591   6.952   5.921   3.669 -1.4208  0.1622 -1.9484
13250SOL     OW40592   7.114   4.503   1.299  0.6968  0.2127 -0.3547
13250SOL    HW140593   7.068   4.559   1.236  0.7458  1.8983  1.0016
13250SOL    HW240594   7.048   4.441   1.329 -0.5698  2.0803  0.9647
13251SOL     OW40595   5.762   1.884   7.358  0.6381  0.1703  0.0421
13251SOL    HW140596   5.696   1.935   7.405 -0.1118 -0.2634 -0.5159
13251SOL    HW240597   5.811   1.949   7.308  0.9263  0.5430  0.7900
13252SOL     OW40598   2.931   6.004   7.853  0.1485  0.6350 -0.5982
13252SOL    HW140599   2.847   6.037   7.822 -0.9524 -1.9063 -0.6217
13252SOL    HW240600   2.922   6.002   7.949  0.7564  1.7132 -0.5126
13253SOL     OW40601   8.083   6.548   3.294  0.7160 -0.0135  0.7574
13253SOL    HW140602   8.038   6.473   3.255  0.4643 -0.3674  1.7008
13253SOL    HW240603   8.169   6.514   3.320  0.9307  0.2539  0.4283
13254SOL     OW40604   1.865   1.641   5.711  0.3314  0.7961 -0.2643
13254SOL    HW140605   1.804   1.568   5.696  0.2684  0.5769  1.0104
13254SOL    HW240606   1.810   1.719   5.707 -0.0415  0.6027  0.8510
13255SOL     OW40607   7.768   6.710   5.127  0.0821  0.3952  0.2904
13255SOL    HW140608   7.717   6.759   5.063  1.7605  0.5651 -0.9845
13255SOL    HW240609   7.735   6.620   5.120 -1.2933  0.8457  0.8374
13256SOL     OW40610   1.459   7.679   0.287 -0.9138  0.2605 -0.2582
13256SOL    HW140611   1.534   7.657   0.231 -1.4588  0.5566 -1.1334
13256SOL    HW240612   1.496   7.687   0.375  0.1102  0.5581 -0.6983
13257SOL     OW40613   0.619   0.796   1.394  0.3801 -0.2165 -0.1207
13257SOL    HW140614   0.554   0.731   1.367  0.2331  0.1333 -0.6235
13257SOL    HW240615   0.586   0.879   1.359  0.4156  0.1820  0.7649
13258SOL     OW40616   4.783   4.187   2.244  0.9424 -0.7908 -0.2206
13258SOL    HW140617   4.698   4.214   2.209  2.0305 -0.4211 -2.7625
13258SOL    HW240618   4.761   4.121   2.310 -1.4794  1.9763  2.0502
13259SOL     OW40619   3.846   4.292   4.026 -0.1251  0.6215 -0.1917
13259SOL    HW140620   3.834   4.252   4.112  2.3170  0.9690  0.4001
13259SOL    HW240621   3.797   4.237   3.966 -1.7184  0.2466  1.3669
13260SOL     OW40622   2.057   7.984   5.889 -0.0058  0.3882 -0.2270
13260SOL    HW140623   2.061   7.901   5.840  1.3235  0.7218 -0.7438
13260SOL    HW240624   1.990   8.035   5.844 -1.3278 -0.6237  0.5029
13261SOL     OW40625   4.688   6.822   1.345 -0.0530 -0.0424  0.0428
13261SOL    HW140626   4.593   6.834   1.353 -0.1271  1.5525 -2.1669
13261SOL    HW240627   4.709   6.857   1.258  2.4937 -0.9176  0.2180
13262SOL     OW40628   7.420   3.916   6.791 -0.3574 -0.2062 -0.3659
13262SOL    HW140629   7.464   3.875   6.717 -0.3188 -0.6890 -0.0817
13262SOL    HW240630   7.327   3.902   6.775 -0.2932 -2.2869  0.7647
13263SOL     OW40631   6.835   5.053   3.591  0.2174 -0.0127  0.5137
13263SOL    HW140632   6.789   5.055   3.675  0.2027  0.0270  0.5046
13263SOL    HW240633   6.861   5.143   3.576  2.1233 -0.3380  1.5203
13264SOL     OW40634   3.723   1.603   6.158  0.3107  0.1708  0.2688
13264SOL    HW140635   3.664   1.530   6.177 -0.2077  0.5250  0.0486
13264SOL    HW240636   3.789   1.566   6.099 -0.5491  0.1272 -0.6831
13265SOL     OW40637   0.062   7.884   5.182 -0.2528 -0.2190 -0.0530
13265SOL    HW140638   0.073   7.955   5.118  0.7263 -1.0975 -0.8807
13265SOL    HW240639   0.060   7.929   5.266  3.0217  0.6621 -0.3160
13266SOL     OW40640   2.686   1.947   0.185  0.4730  0.6799  0.4066
13266SOL    HW140641   2.628   1.899   0.245  2.5598 -0.1337  1.8685
13266SOL    HW240642   2.661   2.038   0.197  0.4680  0.4878  2.1489
13267SOL     OW40643   1.592   4.697   5.286  0.0752  0.0443 -0.0227
13267SOL    HW140644   1.683   4.727   5.282 -0.1937  0.7688 -1.2448
13267SOL    HW240645   1.583   4.636   5.213 -0.5381  0.3602 -0.2265
13268SOL     OW40646   0.216   0.815   1.932 -0.2623 -0.4887 -0.1752
13268SOL    HW140647   0.213   0.734   1.982  1.0917 -1.2101 -1.1962
13268SOL    HW240648   0.302   0.814   1.890  0.0204  1.7213  0.1828
13269SOL     OW40649   3.346   5.067   3.581  0.4744  0.2291 -0.5335
13269SOL    HW140650   3.361   4.985   3.627  1.3868  0.1271 -0.9995
13269SOL    HW240651   3.389   5.056   3.497 -0.4976  0.7133 -1.1066
13270SOL     OW40652   5.693   5.271   3.016 -0.0630  0.1314 -0.0539
13270SOL    HW140653   5.766   5.210   3.009  0.2776  0.6417 -1.1425
13270SOL    HW240654   5.724   5.351   2.974 -0.6351  0.9447  1.0029
13271SOL     OW40655   5.888   1.205   0.769 -0.9010 -0.2558  0.2803
13271SOL    HW140656   5.838   1.284   0.748  0.8412  0.6076 -0.8297
13271SOL    HW240657   5.935   1.184   0.689 -1.7946 -2.8249  0.3578
13272SOL     OW40658   7.856   4.358   0.505  0.0396 -0.2769 -0.0943
13272SOL    HW140659   7.875   4.380   0.597  0.0642 -0.2495 -0.1059
13272SOL    HW240660   7.858   4.263   0.503  2.0499 -0.2735 -0.4827
13273SOL     OW40661   3.366   5.628   8.142  0.2321 -0.7412  0.2429
13273SOL    HW140662   3.407   5.624   8.229  1.4968  1.7514 -0.1411
13273SOL    HW240663   3.290   5.684   8.155 -0.2472 -1.3136 -0.0527
13274SOL     OW40664   3.017   5.519   6.513 -0.4302  0.3870 -0.0770
13274SOL    HW140665   3.011   5.564   6.429  0.2238 -0.8246 -0.8005
13274SOL    HW240666   2.973   5.436   6.500  1.0864 -0.5026  0.2624
13275SOL     OW40667   2.626   0.364   4.129  0.2295 -0.5130 -0.2856
13275SOL    HW140668   2.637   0.294   4.193  0.8117 -2.1318 -2.0763
13275SOL    HW240669   2.563   0.424   4.169 -0.5221 -2.2071  1.1782
13276SOL     OW40670   7.681   2.266   5.156 -0.1168  0.4369 -0.6455
13276SOL    HW140671   7.730   2.222   5.087 -0.8485  0.8025 -1.4229
13276SOL    HW240672   7.590   2.240   5.141 -0.3202  0.7592 -0.0004
13277SOL     OW40673   3.265   1.841   6.122  0.8124 -0.7127  0.1654
13277SOL    HW140674   3.225   1.768   6.168  2.0737 -0.9335  0.9764
13277SOL    HW240675   3.258   1.819   6.029 -3.7726  0.7501 -0.0916
13278SOL     OW40676   0.841   1.392   3.730 -0.1404  0.4934 -0.3156
13278SOL    HW140677   0.835   1.315   3.672  2.1212 -0.5221  0.6950
13278SOL    HW240678   0.750   1.412   3.752 -0.8020 -2.1813 -0.2633
13279SOL     OW40679   6.565   2.578   3.528 -0.2007  0.6166  0.0523
13279SOL    HW140680   6.595   2.605   3.441 -1.4602  2.1911  0.0717
13279SOL    HW240681   6.502   2.509   3.511  1.8034 -1.3113 -0.0765
13280SOL     OW40682   5.727   6.350   3.194  0.0569  0.0147 -0.1031
13280SOL    HW140683   5.811   6.394   3.209  0.9058 -1.0084 -1.6734
13280SOL    HW240684   5.691   6.391   3.116  0.0873 -0.9567 -0.6430
13281SOL     OW40685   4.879   1.389   6.906  0.4597  0.5920 -0.7448
13281SOL    HW140686   4.834   1.316   6.948  1.0159 -0.1711 -1.4374
13281SOL    HW240687   4.816   1.424   6.844 -0.0582  1.1671  0.0878
13282SOL     OW40688   4.273   1.586   3.916 -0.6032  0.0063  0.0228
13282SOL    HW140689   4.189   1.541   3.906 -0.6660  0.0576  0.2972
13282SOL    HW240690   4.290   1.582   4.010  0.8022 -2.0286 -0.2543
13283SOL     OW40691   4.642   1.618   5.232 -0.3067  0.0298 -0.4374
13283SOL    HW140692   4.614   1.537   5.275 -0.1908 -0.1197 -0.6392
13283SOL    HW240693   4.596   1.618   5.148 -1.5049  0.9384  0.1879
13284SOL     OW40694   5.770   5.637   5.006 -0.2031  0.5237  0.1662
13284SOL    HW140695   5.732   5.583   4.936  2.5839 -0.2345 -0.8668
13284SOL    HW240696   5.776   5.724   4.969  0.5819  0.2817 -0.2886
13285SOL     OW40697   6.478   0.872   8.143 -0.0271 -0.3078 -0.2321
13285SOL    HW140698   6.548   0.807   8.154 -0.0475 -0.2750  0.1175
13285SOL    HW240699   6.436   0.876   8.229 -1.3128 -1.2911 -0.7822
13286SOL     OW40700   1.284   6.226   1.357 -0.7188  0.0965  0.0453
13286SOL    HW140701   1.316   6.185   1.437 -0.4534 -1.6017 -0.8749
13286SOL    HW240702   1.344   6.298   1.341 -0.8923  0.5793  1.4588
13287SOL     OW40703   4.893   7.401   8.026  0.2491  0.0948  0.6045
13287SOL    HW140704   4.903   7.493   7.999  0.5389 -0.3435 -0.8791
13287SOL    HW240705   4.977   7.379   8.066 -0.5712  1.0868  3.0578
13288SOL     OW40706   6.365   1.585   1.810 -0.2599  0.1610  0.1999
13288SOL    HW140707   6.291   1.643   1.792 -1.5055 -1.2724  0.4411
13288SOL    HW240708   6.406   1.621   1.888 -2.4461 -0.4977  1.7902
13289SOL     OW40709   6.048   2.027   5.476  0.0009 -0.8347 -0.2106
13289SOL    HW140710   6.032   1.963   5.545 -2.0389 -1.6984 -1.3788
13289SOL    HW240711   6.141   2.019   5.457  1.1217  0.8424  3.6903
13290SOL     OW40712   8.107   3.549   7.633 -0.0596  0.2796  0.4074
13290SOL    HW140713   8.152   3.571   7.551 -2.4010  0.6761 -0.8638
13290SOL    HW240714   8.140   3.613   7.696 -1.1684  2.7104 -1.3091
13291SOL     OW40715   7.860   0.951   1.876 -0.1135  0.3808  0.3165
13291SOL    HW140716   7.799   0.914   1.940 -0.4713  0.1716 -0.1420
13291SOL    HW240717   7.945   0.915   1.901 -0.2821  0.1404  0.5502
13292SOL     OW40718   3.757   4.781   7.095 -0.1433  0.0632 -0.4460
13292SOL    HW140719   3.710   4.729   7.159 -2.7541  2.1301 -0.4830
13292SOL    HW240720   3.843   4.798   7.135 -0.9281 -0.4220  1.5380
13293SOL     OW40721   4.777   6.092   4.256 -0.1052  0.3579 -0.1999
13293SOL    HW140722   4.853   6.108   4.312 -0.1696  1.0559 -0.2965
13293SOL    HW240723   4.785   6.001   4.229  1.3027  0.7205 -1.0978
13294SOL     OW40724   3.567   7.943   5.433 -0.4825 -1.0330 -0.4512
13294SOL    HW140725   3.621   7.894   5.370 -0.0905 -0.0900 -0.8670
13294SOL    HW240726   3.568   8.033   5.401  0.1493 -0.4191  1.1815
13295SOL     OW40727   5.154   7.336   4.865 -0.2457  0.0374  0.0539
13295SOL    HW140728   5.150   7.383   4.782  0.0463 -0.3160 -0.1644
13295SOL    HW240729   5.122   7.248   4.845 -1.6227  0.3730  0.6469
13296SOL     OW40730   0.685   7.283   7.986  0.5239  0.0018  0.4134
13296SOL    HW140731   0.614   7.221   7.967  0.5843 -0.0556  0.3754
13296SOL    HW240732   0.677   7.300   8.080  0.1930  0.3239  0.3277
13297SOL     OW40733   3.760   7.873   5.223  0.2051  0.8270  0.2278
13297SOL    HW140734   3.786   7.965   5.217  1.5572  0.4780  0.4266
13297SOL    HW240735   3.826   7.833   5.280  0.1698 -0.4527 -0.6003
13298SOL     OW40736   0.287   5.980   4.740 -0.0445  0.7374 -0.0918
13298SOL    HW140737   0.280   6.030   4.658 -0.6751  1.7663  0.5582
13298SOL    HW240738   0.254   6.040   4.807 -0.0853 -0.2927  0.8411
13299SOL     OW40739   0.093   0.478   2.373 -0.4452  0.0462  0.2967
13299SOL    HW140740   0.058   0.499   2.460 -0.0578  3.2848 -0.1833
13299SOL    HW240741   0.149   0.553   2.352  0.3959 -1.2061 -2.2810
13300SOL     OW40742   0.575   0.907   7.432 -0.2722  0.1624 -0.0133
13300SOL    HW140743   0.519   0.974   7.395 -1.6481 -0.0878  1.4887
13300SOL    HW240744   0.642   0.955   7.480 -1.0949  0.4941  0.8317
13301SOL     OW40745   2.386   8.129   7.999 -0.4694  0.2075  0.2419
13301SOL    HW140746   2.335   8.185   7.940  0.3363  2.0756  1.2200
13301SOL    HW240747   2.329   8.117   8.075 -0.6693 -0.4128  0.0048
13302SOL     OW40748   4.336   0.582   6.380  0.3050 -0.0694  0.3249
13302SOL    HW140749   4.373   0.670   6.385  0.7136 -0.1771 -0.6344
13302SOL    HW240750   4.360   0.541   6.463 -2.3092  1.6290  2.0596
13303SOL     OW40751   0.842   1.108   5.069 -0.0378  0.1545  0.3186
13303SOL    HW140752   0.895   1.028   5.065 -1.2744 -0.8111  1.9462
13303SOL    HW240753   0.780   1.100   4.996  0.7813  0.3602 -0.4144
13304SOL     OW40754   2.954   3.267   3.336 -0.2898 -0.1389  0.1786
13304SOL    HW140755   2.997   3.353   3.337 -0.5477  0.0068 -0.5315
13304SOL    HW240756   2.913   3.260   3.422  0.0311  0.2994  0.3713
13305SOL     OW40757   6.575   3.638   4.495  0.1023 -0.5472  0.4551
13305SOL    HW140758   6.551   3.722   4.532  0.4209 -0.4132  0.3587
13305SOL    HW240759   6.496   3.584   4.504 -0.3933  0.0419 -0.3130
13306SOL     OW40760   3.217   2.553   1.303  0.1058 -0.6043  0.0740
13306SOL    HW140761   3.160   2.552   1.226  0.4449 -1.0666 -0.1847
13306SOL    HW240762   3.232   2.460   1.322 -1.1375 -0.5295  1.6005
13307SOL     OW40763   1.042   6.804   4.299 -0.1510  0.0994 -0.2982
13307SOL    HW140764   1.083   6.881   4.259  0.9038  0.9405  2.1540
13307SOL    HW240765   0.952   6.805   4.268  0.1573  1.6442 -1.2392
13308SOL     OW40766   1.035   8.124   3.610  0.0401 -0.6021  0.7784
13308SOL    HW140767   0.963   8.064   3.627 -2.6999  1.2943 -2.6419
13308SOL    HW240768   1.023   8.196   3.673 -0.5840 -0.6966  0.7717
13309SOL     OW40769   6.460   1.072   3.719 -0.6672 -0.3183 -0.0264
13309SOL    HW140770   6.470   1.055   3.625 -1.7844 -0.2002 -0.1723
13309SOL    HW240771   6.540   1.035   3.758 -1.4599 -2.9745 -0.6863
13310SOL     OW40772   3.836   5.698   2.032 -0.3212  0.4472  0.0268
13310SOL    HW140773   3.775   5.634   1.994  0.2194  0.3231 -0.6487
13310SOL    HW240774   3.887   5.647   2.095  0.2961  0.1340 -0.7088
13311SOL     OW40775   7.977   6.480   1.302 -0.1995  0.1045 -1.0483
13311SOL    HW140776   7.995   6.553   1.243  2.3410  0.8278  0.4484
13311SOL    HW240777   8.048   6.418   1.285  0.9529  0.5813  1.4891
13312SOL     OW40778   3.982   1.684   3.264  0.2867  0.3394 -0.1992
13312SOL    HW140779   4.052   1.626   3.294 -0.8601 -0.8033  0.3348
13312SOL    HW240780   3.960   1.736   3.341  1.1696  1.3899 -0.6223
13313SOL     OW40781   3.382   4.918   4.225  0.2780 -0.0314  0.0644
13313SOL    HW140782   3.373   4.986   4.292 -0.1587  0.3752 -0.4053
13313SOL    HW240783   3.316   4.940   4.159  0.3697 -0.7146 -0.2578
13314SOL     OW40784   4.310   4.740   3.062  0.7382  0.0544  0.0694
13314SOL    HW140785   4.237   4.682   3.039 -1.0599  2.4906 -0.7963
13314SOL    HW240786   4.376   4.722   2.995  0.3559 -1.1668 -0.0071
13315SOL     OW40787   1.041   7.200   3.706 -0.3609 -0.6061  0.0474
13315SOL    HW140788   1.044   7.296   3.702  1.3465 -0.6501 -1.0062
13315SOL    HW240789   1.130   7.175   3.732  0.1202 -1.9434 -2.5134
13316SOL     OW40790   7.764   3.302   5.171  0.0055  0.6736 -0.5361
13316SOL    HW140791   7.854   3.277   5.149 -0.0804  1.0717 -1.3763
13316SOL    HW240792   7.720   3.313   5.086 -1.0482 -0.2356 -0.1329
13317SOL     OW40793   1.068   4.531   0.421  0.2220 -0.2419 -0.1222
13317SOL    HW140794   1.061   4.449   0.372 -2.7226  0.2207 -0.7122
13317SOL    HW240795   1.120   4.589   0.366 -1.0165 -0.4991 -1.6121
13318SOL     OW40796   2.236   6.667   2.427 -0.1023 -0.0827  0.5267
13318SOL    HW140797   2.320   6.625   2.408 -0.8830 -0.9428 -1.3209
13318SOL    HW240798   2.184   6.599   2.469 -0.1808  0.1631  0.8294
13319SOL     OW40799   1.203   4.333   4.478 -0.2299  0.7703 -0.1614
13319SOL    HW140800   1.147   4.261   4.451 -0.2430 -0.1557  2.1069
13319SOL    HW240801   1.288   4.292   4.496  0.0155  1.4568  0.3156
13320SOL     OW40802   2.693   6.714   7.658 -0.1166 -0.2319  0.7272
13320SOL    HW140803   2.768   6.694   7.602  0.0513 -0.5472  1.0603
13320SOL    HW240804   2.633   6.640   7.646 -0.3531 -0.0102  0.5080
13321SOL     OW40805   0.866   5.037   8.090  0.5535 -0.2440  0.2389
13321SOL    HW140806   0.876   4.959   8.144  1.2006 -0.3646 -0.0577
13321SOL    HW240807   0.955   5.063   8.068  0.3841  0.8796  0.7642
13322SOL     OW40808   5.737   8.183   1.988 -0.0697 -0.1315  0.3718
13322SOL    HW140809   5.748   8.096   2.024 -0.6915 -0.0479  0.7854
13322SOL    HW240810   5.645   8.187   1.963  0.3245 -0.1679 -1.1999
13323SOL     OW40811   0.845   6.184   5.433  0.3351  0.0191  0.7245
13323SOL    HW140812   0.762   6.198   5.478 -0.2638 -0.5447 -0.1827
13323SOL    HW240813   0.865   6.091   5.448  1.1563  0.3165  1.5230
13324SOL     OW40814   1.870   4.262   3.339 -0.1899  0.1797  0.2565
13324SOL    HW140815   1.804   4.196   3.363 -1.0161  1.5788  2.0466
13324SOL    HW240816   1.915   4.224   3.264 -1.4923 -1.8530  0.4217
13325SOL     OW40817   3.771   2.374   2.382  0.6064  0.3731  0.3447
13325SOL    HW140818   3.720   2.331   2.450  0.1715  1.9143  1.0381
13325SOL    HW240819   3.707   2.415   2.324  1.0104  0.4253 -0.0817
13326SOL     OW40820   5.614   6.449   6.502 -0.6530  0.2469  0.0565
13326SOL    HW140821   5.639   6.365   6.541 -1.3545  1.6071  3.8029
13326SOL    HW240822   5.605   6.429   6.408  0.0665 -3.6062  0.6144
13327SOL     OW40823   5.364   0.159   7.609 -0.2637  0.5651 -0.0474
13327SOL    HW140824   5.278   0.201   7.610 -0.3380  0.4422 -0.7120
13327SOL    HW240825   5.420   0.221   7.564 -0.0182  0.6146  0.3257
13328SOL     OW40826   0.228   3.932   6.954 -0.4330  0.2852 -0.2679
13328SOL    HW140827   0.205   3.906   7.043 -1.0774  1.0190 -0.1987
13328SOL    HW240828   0.243   3.850   6.907 -3.4094 -0.3398 -0.3441
13329SOL     OW40829   2.945   3.145   2.479  0.0156 -0.0763  0.0726
13329SOL    HW140830   3.038   3.133   2.497 -0.2186  0.0753  1.4630
13329SOL    HW240831   2.901   3.127   2.562 -1.0911  1.1829 -0.1947
13330SOL     OW40832   5.302   3.489   2.760 -0.0450 -1.2233  0.6519
13330SOL    HW140833   5.345   3.406   2.737  1.5319 -0.0221 -0.9713
13330SOL    HW240834   5.308   3.542   2.680  0.0497  0.9074  2.0028
13331SOL     OW40835   0.142   6.573   5.194  0.0064 -0.7047  0.1231
13331SOL    HW140836   0.072   6.523   5.151  0.3203 -0.0543 -1.1815
13331SOL    HW240837   0.096   6.624   5.261 -0.6432 -0.9474 -0.1210
13332SOL     OW40838   8.011   3.225   6.951 -0.7780  0.3354  0.1894
13332SOL    HW140839   7.930   3.274   6.935 -0.5968  0.2207 -1.2214
13332SOL    HW240840   8.072   3.290   6.984 -0.9786  0.7569 -0.2578
13333SOL     OW40841   7.137   6.962   2.335 -0.4411 -0.1199  0.3695
13333SOL    HW140842   7.104   7.017   2.264 -1.3520 -1.0018  0.0910
13333SOL    HW240843   7.084   6.985   2.411 -0.3999 -0.1625  0.4115
13334SOL     OW40844   2.192   3.624   5.094 -0.1188 -0.0590 -0.0019
13334SOL    HW140845   2.237   3.597   5.014 -0.6897 -2.8237  0.5291
13334SOL    HW240846   2.101   3.599   5.080 -0.1810 -0.8343  1.5935
13335SOL     OW40847   3.315   3.706   6.128  0.0770 -0.0845 -0.1277
13335SOL    HW140848   3.385   3.684   6.067 -0.1761 -1.0942 -0.0715
13335SOL    HW240849   3.247   3.745   6.074 -0.2327 -1.1670 -0.5363
13336SOL     OW40850   7.927   6.335   0.501  0.1989  0.2161 -0.6089
13336SOL    HW140851   7.897   6.272   0.567  0.4241 -0.8112 -1.4608
13336SOL    HW240852   7.848   6.364   0.458  0.0887  0.5608 -0.1782
13337SOL     OW40853   8.157   5.520   3.827 -0.3545  0.4410  0.2756
13337SOL    HW140854   8.243   5.501   3.789  0.1871  1.3667  0.9742
13337SOL    HW240855   8.098   5.456   3.788  0.3378  0.8039 -1.4518
13338SOL     OW40856   2.364   4.614   3.706 -0.2263 -0.2962 -0.4469
13338SOL    HW140857   2.319   4.668   3.641 -0.7040 -0.8065 -0.5424
13338SOL    HW240858   2.457   4.621   3.682  0.1070  2.7866  1.2394
13339SOL     OW40859   2.323   3.962   6.580  0.0009  0.3427 -0.3011
13339SOL    HW140860   2.247   4.006   6.617 -0.2828  0.4496 -0.9945
13339SOL    HW240861   2.373   3.931   6.656 -0.4362  0.7724  0.1650
13340SOL     OW40862   4.345   5.162   2.807  0.0707 -0.2576 -0.9085
13340SOL    HW140863   4.324   5.160   2.900 -0.2982  0.2646 -0.9784
13340SOL    HW240864   4.301   5.240   2.773  0.5666 -0.1970 -1.4362
13341SOL     OW40865   1.808   2.655   3.169 -0.7468 -0.9681  0.4876
13341SOL    HW140866   1.792   2.743   3.203 -0.7767 -1.0279  0.6268
13341SOL    HW240867   1.903   2.647   3.166 -0.7458 -1.0480  0.7718
13342SOL     OW40868   6.128   1.170   6.117  0.2402  0.3124 -0.2801
13342SOL    HW140869   6.040   1.131   6.121  0.0789  0.6550 -0.4110
13342SOL    HW240870   6.139   1.195   6.026 -0.5749  2.6002  0.1789
13343SOL     OW40871   1.938   0.756   4.615  0.6877 -0.3472 -0.7719
13343SOL    HW140872   2.029   0.751   4.645  0.7310 -2.3041 -1.0805
13343SOL    HW240873   1.936   0.702   4.536 -0.6751 -0.0326 -0.9793
13344SOL     OW40874   7.652   1.677   6.763 -0.2691 -0.3265  0.2333
13344SOL    HW140875   7.629   1.698   6.673 -1.7615 -0.3811  0.5712
13344SOL    HW240876   7.741   1.710   6.774 -0.6974  1.2804 -0.7427
13345SOL     OW40877   0.075   0.508   4.002  0.1499 -0.0503 -0.1802
13345SOL    HW140878   0.119   0.586   3.969 -2.0117  0.8863 -1.0247
13345SOL    HW240879   0.137   0.436   3.985  1.0760  1.0864 -1.8923
13346SOL     OW40880   6.199   5.777   0.882 -0.0655 -0.2496 -0.4414
13346SOL    HW140881   6.129   5.731   0.836 -0.6535  0.1197  0.0774
13346SOL    HW240882   6.172   5.869   0.882  0.7064 -0.0096 -0.7516
13347SOL     OW40883   4.128   0.020   6.986 -0.3034  0.1905 -0.0239
13347SOL    HW140884   4.164   0.014   6.898 -0.1867 -0.2833  0.0491
13347SOL    HW240885   4.205   0.034   7.042 -0.3632  0.3733  0.0126
13348SOL     OW40886   6.612   6.107   0.675  0.6630 -0.1895 -0.2455
13348SOL    HW140887   6.625   6.013   0.685 -0.1550 -0.3014 -0.1567
13348SOL    HW240888   6.698   6.145   0.692  1.1362 -0.9558 -0.8362
13349SOL     OW40889   1.137   4.472   6.959 -0.1521 -0.3640 -0.2573
13349SOL    HW140890   1.174   4.518   6.884 -1.0215  1.5526  0.4066
13349SOL    HW240891   1.206   4.475   7.025  1.3751 -3.7825 -1.4882
13350SOL     OW40892   1.582   3.747   1.657 -0.0750  0.2052  0.6548
13350SOL    HW140893   1.661   3.705   1.621 -0.8600 -0.5070 -0.3097
13350SOL    HW240894   1.606   3.839   1.664  1.1162 -0.1161  1.1632
13351SOL     OW40895   2.412   0.765   6.337 -0.1232  0.6801  0.4487
13351SOL    HW140896   2.438   0.762   6.245  0.8808  0.1012  0.7286
13351SOL    HW240897   2.324   0.802   6.336 -1.2129 -1.6581 -0.9794
13352SOL     OW40898   4.301   5.170   7.203 -0.0536  0.1773 -0.3798
13352SOL    HW140899   4.361   5.229   7.249  1.3055 -1.4873  0.0964
13352SOL    HW240900   4.240   5.228   7.159 -0.0617  1.9182  1.7185
13353SOL     OW40901   5.422   7.639   0.478  0.3268 -0.5117 -0.0472
13353SOL    HW140902   5.372   7.651   0.559  1.2350 -2.2251  0.8215
13353SOL    HW240903   5.359   7.606   0.415 -0.5949  1.6807 -0.3635
13354SOL     OW40904   0.803   3.333   4.415 -0.5567  0.4205  0.7602
13354SOL    HW140905   0.848   3.259   4.375  0.1203  0.4656  1.4237
13354SOL    HW240906   0.870   3.377   4.467 -1.1545  1.0093  1.0487
13355SOL     OW40907   2.609   5.124   4.111 -0.4751 -0.2434  0.2305
13355SOL    HW140908   2.599   5.170   4.195 -0.2475 -0.9508  0.6527
13355SOL    HW240909   2.573   5.036   4.127 -1.1306 -0.1512 -0.6366
13356SOL     OW40910   7.626   3.055   0.825  0.0210 -0.4462  0.0813
13356SOL    HW140911   7.540   3.039   0.864 -0.2687  2.3791  0.8190
13356SOL    HW240912   7.685   3.067   0.899  0.7702 -0.9392 -0.4137
13357SOL     OW40913   1.236   2.625   5.090  0.0293  0.4320 -0.5202
13357SOL    HW140914   1.238   2.702   5.033 -2.3184  1.3956  0.5832
13357SOL    HW240915   1.204   2.658   5.174  1.6442 -1.2804  0.8715
13358SOL     OW40916   6.872   2.788   3.981  0.1968  0.7131  0.0178
13358SOL    HW140917   6.851   2.699   3.954  2.2856  0.6379 -1.6000
13358SOL    HW240918   6.815   2.844   3.928 -1.2275  0.4132  1.1454
13359SOL     OW40919   8.062   2.858   6.806  0.0838  0.0828  0.5431
13359SOL    HW140920   8.075   2.929   6.868 -1.0503 -1.6210  2.8626
13359SOL    HW240921   7.974   2.872   6.771 -0.3733 -0.4849  1.4487
13360SOL     OW40922   4.878   4.685   6.765  0.7209  0.0056  0.1764
13360SOL    HW140923   4.841   4.645   6.844 -0.3075  0.0779 -0.2630
13360SOL    HW240924   4.808   4.739   6.729  0.6240 -1.2848 -1.6945
13361SOL     OW40925   5.056   5.168   5.734  0.0357 -0.0147 -0.1016
13361SOL    HW140926   5.138   5.141   5.775  0.1663  0.0995 -0.2836
13361SOL    HW240927   4.988   5.125   5.785  0.1703  0.5416  0.5557
13362SOL     OW40928   3.231   6.013   5.760 -0.0499 -0.4159 -0.0797
13362SOL    HW140929   3.193   5.985   5.843 -1.5854  1.1721 -0.1958
13362SOL    HW240930   3.300   6.075   5.786 -0.9320  0.5441  0.0202
13363SOL     OW40931   4.518   2.956   3.826  0.4485  0.4742 -0.5024
13363SOL    HW140932   4.428   2.924   3.833  0.5697  0.4918  1.5397
13363SOL    HW240933   4.561   2.894   3.767 -0.6902  0.0268 -0.8847
13364SOL     OW40934   5.160   0.751   3.247 -0.1753  0.3516 -0.5715
13364SOL    HW140935   5.153   0.744   3.343 -1.7239 -1.9440 -0.7725
13364SOL    HW240936   5.199   0.837   3.232  0.4655  0.6210  2.1309
13365SOL     OW40937   5.287   6.794   6.972 -0.4122  0.1067 -0.6373
13365SOL    HW140938   5.210   6.741   6.992  1.1544 -2.1669 -0.1525
13365SOL    HW240939   5.297   6.788   6.877 -0.2892 -0.4364 -0.5925
13366SOL     OW40940   1.514   2.480   6.930 -0.2677 -0.0414 -0.3359
13366SOL    HW140941   1.435   2.500   6.880 -0.1967  1.4959  0.0977
13366SOL    HW240942   1.483   2.455   7.017 -0.3003 -0.2960 -0.4195
13367SOL     OW40943   2.350   5.326   7.370 -0.1795  0.4203 -0.0523
13367SOL    HW140944   2.423   5.385   7.390  2.1698 -1.7669 -1.6577
13367SOL    HW240945   2.327   5.347   7.279 -3.0768  2.4581  0.9896
13368SOL     OW40946   5.639   3.631   1.578  0.0598 -0.2469  0.6840
13368SOL    HW140947   5.694   3.557   1.552  0.2528  0.4458 -0.9730
13368SOL    HW240948   5.647   3.634   1.674  1.9821 -0.8752  0.5863
13369SOL     OW40949   4.738   3.030   4.801  0.2326  0.7210 -0.4400
13369SOL    HW140950   4.704   3.114   4.772  0.2649  0.5622 -0.9559
13369SOL    HW240951   4.830   3.030   4.774  1.0816  1.7167  2.1708
13370SOL     OW40952   3.855   0.987   7.113  0.0219 -0.1546  0.2669
13370SOL    HW140953   3.835   1.045   7.187  0.1519 -0.2607  0.3860
13370SOL    HW240954   3.835   0.899   7.146 -0.0198 -0.1927  0.1402
13371SOL     OW40955   2.383   0.974   6.035  0.1295  0.2255 -0.0952
13371SOL    HW140956   2.350   1.058   6.004 -1.5413 -0.5227 -0.4592
13371SOL    HW240957   2.307   0.932   6.077  1.1610 -0.7236  0.9005
13372SOL     OW40958   8.136   4.439   1.714 -0.1391  0.1255 -0.7329
13372SOL    HW140959   8.223   4.422   1.748 -0.8179  1.2164  1.8091
13372SOL    HW240960   8.146   4.518   1.661  0.5901 -0.3949 -1.3825
13373SOL     OW40961   3.255   7.105   0.646  0.2248  0.1576  0.6280
13373SOL    HW140962   3.171   7.060   0.643 -0.2158  1.0052 -0.5872
13373SOL    HW240963   3.238   7.191   0.606  1.7234  0.2197  0.0529
13374SOL     OW40964   6.973   2.995   5.871 -0.2216 -0.4815  0.1390
13374SOL    HW140965   7.020   2.953   5.942  0.1044  0.6776  0.6431
13374SOL    HW240966   7.040   3.007   5.803 -0.7332 -2.3757 -0.7446
13375SOL     OW40967   2.335   2.632   3.385 -0.2331  0.2059  0.0105
13375SOL    HW140968   2.386   2.633   3.465 -2.2556  0.5194  1.3678
13375SOL    HW240969   2.310   2.724   3.371 -2.0218 -0.1636  0.5060
13376SOL     OW40970   1.435   1.901   0.754  0.2943  0.3561 -0.3452
13376SOL    HW140971   1.345   1.870   0.760  0.4182  0.1094  0.3202
13376SOL    HW240972   1.461   1.883   0.663 -1.0232  2.4047 -1.1979
13377SOL     OW40973   2.925   4.159   7.571 -0.2074 -0.3496 -0.0620
13377SOL    HW140974   2.909   4.077   7.619  0.0636  0.9715  2.4158
13377SOL    HW240975   2.839   4.184   7.537 -0.3930 -1.3522 -0.3809
13378SOL     OW40976   5.154   0.628   6.889 -0.7726 -0.3032  0.3476
13378SOL    HW140977   5.224   0.684   6.922 -0.5949 -0.2939 -0.0342
13378SOL    HW240978   5.199   0.547   6.864 -0.7583  0.0169 -0.7072
13379SOL     OW40979   7.700   2.052   5.488 -0.3197 -0.0589 -0.8345
13379SOL    HW140980   7.782   2.058   5.537  0.4304 -2.1077 -1.7328
13379SOL    HW240981   7.670   2.143   5.480  1.0857  0.5980  0.7677
13380SOL     OW40982   5.205   5.783   3.290  0.0730  0.0368 -0.1472
13380SOL    HW140983   5.296   5.767   3.267  0.3364 -2.8076  2.3178
13380SOL    HW240984   5.155   5.731   3.226  0.4244 -1.3651  0.6653
13381SOL     OW40985   5.978   0.168   0.827  0.4354 -0.1579  0.9071
13381SOL    HW140986   5.999   0.257   0.854 -1.2016  0.7477 -0.6336
13381SOL    HW240987   5.988   0.168   0.732 -2.1143 -0.8356  0.5642
13382SOL     OW40988   6.261   0.870   3.494 -0.6285  0.2815 -0.2490
13382SOL    HW140989   6.250   0.847   3.402 -1.4997  0.3244 -0.1602
13382SOL    HW240990   6.246   0.965   3.497  1.8520  0.7460 -0.4394
13383SOL     OW40991   0.508   4.714   5.253 -0.6525  0.1797  0.3586
13383SOL    HW140992   0.514   4.634   5.200  0.5614 -0.8120  1.8728
13383SOL    HW240993   0.436   4.763   5.215 -0.0279 -0.5940 -2.0062
13384SOL     OW40994   5.544   2.358   7.679 -0.6056 -0.1393  0.5135
13384SOL    HW140995   5.639   2.373   7.676 -0.8355  1.9185  1.6593
13384SOL    HW240996   5.528   2.325   7.768 -0.9136 -1.2100  0.0827
13385SOL     OW40997   7.158   3.332   5.160  0.3124  0.0105 -0.2562
13385SOL    HW140998   7.146   3.372   5.246  1.2988 -0.4386  0.0984
13385SOL    HW240999   7.098   3.258   5.159 -1.0658  1.0964 -0.6775
13386SOL     OW41000   6.878   6.607   6.775 -0.0652 -0.0578 -0.2264
13386SOL    HW141001   6.846   6.551   6.704  1.4412  0.7627 -1.6140
13386SOL    HW241002   6.799   6.647   6.811 -1.4928 -4.2921  2.0605
13387SOL     OW41003   3.573   6.215   7.278  0.2431 -0.1933  0.3494
13387SOL    HW141004   3.607   6.169   7.354  0.9192  0.0437  0.1971
13387SOL    HW241005   3.595   6.158   7.204  1.1637  0.3999  0.1501
13388SOL     OW41006   3.639   1.755   3.275 -0.4519 -0.2715  0.0099
13388SOL    HW141007   3.613   1.756   3.367 -1.0796 -1.7274 -0.1168
13388SOL    HW241008   3.733   1.737   3.277 -0.3918  0.0675  0.3713
13389SOL     OW41009   7.972   6.701   3.485 -0.0099  0.4025  0.0256
13389SOL    HW141010   8.016   6.628   3.441  0.9049  1.0582 -0.1705
13389SOL    HW241011   7.922   6.744   3.416 -0.5784 -0.0443  0.1480
13390SOL     OW41012   1.541   2.615   4.563 -0.2726 -0.0520 -0.3454
13390SOL    HW141013   1.584   2.577   4.487  0.1487 -0.2790  0.0034
13390SOL    HW241014   1.447   2.604   4.546 -0.1647 -2.0078  0.1239
13391SOL     OW41015   7.473   4.534   0.996  0.5310 -0.0042 -1.2483
13391SOL    HW141016   7.480   4.441   0.979 -4.7699 -1.2520  1.1743
13391SOL    HW241017   7.501   4.544   1.087 -0.9981  0.2348 -0.7754
13392SOL     OW41018   7.086   4.822   0.448 -0.3358 -0.3076 -0.1007
13392SOL    HW141019   7.064   4.732   0.473 -2.5348  0.4269  0.8162
13392SOL    HW241020   7.026   4.842   0.376 -1.4601  1.1199  1.1598
13393SOL     OW41021   2.544   4.922   4.318 -0.1038 -0.5984  0.1840
13393SOL    HW141022   2.556   5.001   4.370  0.3649 -1.4869  1.4794
13393SOL    HW241023   2.454   4.894   4.338 -0.9446  0.5225 -1.6602
13394SOL     OW41024   0.694   0.637   4.110 -0.1323  0.1916  0.2067
13394SOL    HW141025   0.739   0.704   4.161 -0.9583  0.2788  0.8358
13394SOL    HW241026   0.601   0.655   4.123 -0.3605 -0.1652 -0.8391
13395SOL     OW41027   7.752   6.397   0.058 -0.2073 -0.5613  0.0782
13395SOL    HW141028   7.714   6.340   0.124 -3.4188  0.1252 -1.0042
13395SOL    HW241029   7.702   6.378  -0.022  1.5753  0.7010 -1.4254
13396SOL     OW41030   7.311   4.229   1.842 -0.0848 -0.0124  0.3093
13396SOL    HW141031   7.278   4.244   1.930  0.1300  1.2145  0.1945
13396SOL    HW241032   7.254   4.281   1.785 -0.8898 -1.6097 -0.4184
13397SOL     OW41033   5.155   6.695   3.739  0.3550  0.1457 -0.1538
13397SOL    HW141034   5.182   6.624   3.681 -1.1884 -2.5330  2.1454
13397SOL    HW241035   5.091   6.744   3.687  1.4139 -0.1302 -1.7944
13398SOL     OW41036   0.658   5.279   6.379  0.2806 -0.1064  0.1128
13398SOL    HW141037   0.587   5.308   6.321  0.2054 -0.5816 -0.0352
13398SOL    HW241038   0.693   5.201   6.337 -0.0223 -0.6756  0.9059
13399SOL     OW41039   7.310   1.635   6.722 -0.1738  0.4092  0.5861
13399SOL    HW141040   7.382   1.669   6.775  0.4777 -0.3384  0.2018
13399SOL    HW241041   7.243   1.609   6.786  0.2109  0.4064  0.9882
13400SOL     OW41042   4.716   2.852   4.048 -0.4792  0.1835 -0.0423
13400SOL    HW141043   4.686   2.883   3.962 -0.8103  1.2757  0.4513
13400SOL    HW241044   4.637   2.843   4.100 -0.5469 -2.6090 -0.4496
13401SOL     OW41045   3.449   5.339   5.845 -0.0398  0.0180  0.7424
13401SOL    HW141046   3.419   5.300   5.763  1.7567 -2.0442  0.9741
13401SOL    HW241047   3.519   5.281   5.875 -0.6322  0.6951  3.7553
13402SOL     OW41048   2.490   2.262   0.755  0.3601  0.0756 -0.4031
13402SOL    HW141049   2.464   2.214   0.676 -0.3831 -0.4997  0.1621
13402SOL    HW241050   2.421   2.328   0.767  1.9176  2.0284 -1.7504
13403SOL     OW41051   4.208   4.750   2.250 -0.5583  0.0134  0.0341
13403SOL    HW141052   4.252   4.824   2.208 -0.3874  0.3586  0.7920
13403SOL    HW241053   4.244   4.748   2.339 -2.5338  0.7505  0.9133
13404SOL     OW41054   3.914   2.180   7.095  0.6768  0.6275  0.7892
13404SOL    HW141055   3.863   2.260   7.109  0.2396  0.4134  0.4813
13404SOL    HW241056   3.850   2.118   7.058  1.3952  0.6817 -0.6116
13405SOL     OW41057   5.103   0.039   8.152  0.5220  0.4426  0.0955
13405SOL    HW141058   5.163  -0.001   8.216  0.4276  2.1819  1.3555
13405SOL    HW241059   5.026  -0.017   8.154  0.8050  0.0518  0.9944
13406SOL     OW41060   2.201   7.648   7.854  0.0076  0.1477  0.0587
13406SOL    HW141061   2.239   7.732   7.882  0.4885  0.6911 -2.0327
13406SOL    HW241062   2.237   7.633   7.767  0.4048 -2.5791  0.6038
13407SOL     OW41063   4.071   7.126   6.970  0.0564 -0.0327 -0.0910
13407SOL    HW141064   4.130   7.177   7.026  1.0226  0.4307 -1.4935
13407SOL    HW241065   4.038   7.189   6.906 -1.8689 -0.3193  0.5508
13408SOL     OW41066   4.874   1.595   0.285  0.4159  0.0039 -0.0375
13408SOL    HW141067   4.819   1.657   0.237  0.7091  0.5086  0.2694
13408SOL    HW241068   4.845   1.508   0.255  0.3981  0.3005 -0.8991
13409SOL     OW41069   3.631   5.070   1.425  0.3714 -0.0058  0.3149
13409SOL    HW141070   3.646   5.088   1.332  3.3216 -2.1297  0.2571
13409SOL    HW241071   3.575   4.993   1.426 -0.5307  0.6382  0.3473
13410SOL     OW41072   3.001   2.993   7.603  0.3110 -0.2744 -0.0786
13410SOL    HW141073   2.950   2.957   7.676 -0.7805  1.3288  0.0104
13410SOL    HW241074   3.006   3.087   7.622  0.2610  0.1318 -1.9101
13411SOL     OW41075   7.568   6.516   1.170  0.5535 -0.7129 -0.2277
13411SOL    HW141076   7.587   6.569   1.092  1.1454 -0.0270  0.3713
13411SOL    HW241077   7.567   6.426   1.138 -0.7898 -0.3395 -1.3323
13412SOL     OW41078   4.269   4.155   1.778  0.4086  0.5517 -0.0180
13412SOL    HW141079   4.278   4.098   1.854  2.1989 -0.1930 -0.7377
13412SOL    HW241080   4.287   4.242   1.811 -1.3140  0.6067  0.8828
13413SOL     OW41081   4.776   3.103   1.116  0.4003  0.2995 -0.3148
13413SOL    HW141082   4.683   3.116   1.136  0.6441  0.6623  0.6336
13413SOL    HW241083   4.798   3.020   1.158  0.8384  0.9050  0.6780
13414SOL     OW41084   7.032   8.183   0.001 -0.2765 -0.0521 -0.1281
13414SOL    HW141085   7.098   8.201   0.068 -0.4703  2.5104 -0.5058
13414SOL    HW241086   6.951   8.171   0.050 -0.0700 -0.1712  0.1902
13415SOL     OW41087   4.575   8.046   6.845 -0.6352  0.5244 -0.7124
13415SOL    HW141088   4.634   7.972   6.833 -0.0636  0.6539  1.0232
13415SOL    HW241089   4.573   8.061   6.940 -2.6693  1.1829 -0.8047
13416SOL     OW41090   2.171   4.001   8.167 -0.2929 -0.7222  0.2620
13416SOL    HW141091   2.079   3.983   8.147 -1.1133  2.0442  1.0979
13416SOL    HW241092   2.178   3.988   8.261  0.1847 -0.9484  0.1959
13417SOL     OW41093   2.718   7.187   4.439 -0.3910 -0.0250 -0.7099
13417SOL    HW141094   2.690   7.270   4.402 -0.4377  0.2587 -0.0660
13417SOL    HW241095   2.639   7.134   4.442 -0.9561  0.8149  1.2151
13418SOL     OW41096   2.306   8.062   5.076  0.0684 -0.1305 -0.5399
13418SOL    HW141097   2.260   8.106   5.148  0.8986  0.8563 -0.5883
13418SOL    HW241098   2.254   8.080   4.998 -0.8021 -1.1511 -0.2235
13419SOL     OW41099   4.370   7.931   1.021 -0.4158 -0.6564  0.2272
13419SOL    HW141100   4.308   7.874   0.975 -0.8207  0.5766 -0.8020
13419SOL    HW241101   4.446   7.936   0.962 -1.5113  2.1042 -1.1136
13420SOL     OW41102   4.340   6.977   0.785 -0.3367 -0.0295  0.6165
13420SOL    HW141103   4.333   7.023   0.869 -0.1289  0.9033  0.1342
13420SOL    HW241104   4.270   7.015   0.731  1.3284  1.4514 -0.5817
13421SOL     OW41105   6.655   5.522   6.181 -0.2454 -0.1761 -0.4795
13421SOL    HW141106   6.634   5.614   6.165  0.2157 -0.1543 -0.9618
13421SOL    HW241107   6.642   5.479   6.096  0.3869 -0.3977 -0.4674
13422SOL     OW41108   6.382   6.258   5.576 -0.4470  0.2577 -0.0137
13422SOL    HW141109   6.377   6.353   5.590  1.0712  0.5835 -1.4529
13422SOL    HW241110   6.475   6.239   5.573 -0.7370 -1.2413 -0.0862
13423SOL     OW41111   4.976   0.081   0.797 -0.5298  0.6203  0.0753
13423SOL    HW141112   5.069   0.096   0.814 -0.3605 -1.0008  0.7809
13423SOL    HW241113   4.939   0.058   0.883 -0.9885 -1.3950 -0.5906
13424SOL     OW41114   5.412   1.007   7.143 -0.2202  0.0893 -0.2938
13424SOL    HW141115   5.349   0.947   7.103 -0.9880 -1.4015  2.8478
13424SOL    HW241116   5.491   0.955   7.156 -0.9920 -0.5248  2.7374
13425SOL     OW41117   4.553   7.614   7.881  0.2445  0.3018  0.4510
13425SOL    HW141118   4.522   7.537   7.833  1.5245  0.0825 -0.0612
13425SOL    HW241119   4.476   7.644   7.930 -0.0467 -1.8589  1.4412
13426SOL     OW41120   6.544   7.972   5.956 -0.2711 -0.2331 -1.2369
13426SOL    HW141121   6.508   8.059   5.943 -0.5904 -0.0396  0.6950
13426SOL    HW241122   6.639   7.985   5.958 -0.3493  0.2727  0.1756
13427SOL     OW41123   1.682   1.173   2.844  0.5847 -0.4696 -0.2157
13427SOL    HW141124   1.696   1.080   2.830  0.5492 -0.4342 -0.4961
13427SOL    HW241125   1.588   1.186   2.827  1.0209  0.0267 -2.5866
13428SOL     OW41126   7.534   1.350   7.994  0.1827  0.4391  0.2056
13428SOL    HW141127   7.490   1.277   8.037  0.7203 -0.5190 -0.8331
13428SOL    HW241128   7.463   1.407   7.964 -0.3254 -0.6248 -0.6467
13429SOL     OW41129   6.090   3.360   5.127 -0.1537  0.3696 -0.1409
13429SOL    HW141130   6.140   3.289   5.167  0.2956  0.5218 -0.4285
13429SOL    HW241131   6.118   3.361   5.035  0.9519  1.8602  0.1629
13430SOL     OW41132   2.255   6.260   0.416 -0.4500  0.1178 -0.4059
13430SOL    HW141133   2.272   6.174   0.377 -1.4169  0.1255 -0.8775
13430SOL    HW241134   2.341   6.302   0.419 -0.1087 -0.5084 -1.0377
13431SOL     OW41135   4.819   4.491   7.806  0.1201 -0.1623  1.0363
13431SOL    HW141136   4.874   4.449   7.740 -0.4146 -0.3120  0.6724
13431SOL    HW241137   4.879   4.517   7.876  1.1760  2.4471 -0.6654
13432SOL     OW41138   1.421   7.999   5.375 -0.0567  0.3759  0.5932
13432SOL    HW141139   1.495   8.023   5.431  0.9807  1.7153 -1.2233
13432SOL    HW241140   1.455   8.007   5.286 -2.1919  0.3122 -0.2961
13433SOL     OW41141   5.375   6.427   4.814  0.2621 -0.7876  0.3427
13433SOL    HW141142   5.327   6.500   4.851 -1.4136 -1.2820 -0.7734
13433SOL    HW241143   5.459   6.465   4.786 -0.6446  0.7423 -0.3798
13434SOL     OW41144   5.825   2.482   4.288  0.7146  0.0624  0.6953
13434SOL    HW141145   5.734   2.452   4.285  0.3117  1.1960 -2.8137
13434SOL    HW241146   5.863   2.448   4.207  3.0814  0.6672  1.4991
13435SOL     OW41147   6.685   1.084   4.700  0.2593  0.2232 -0.4242
13435SOL    HW141148   6.654   0.998   4.672  0.7949 -1.2353  2.9723
13435SOL    HW241149   6.673   1.085   4.795  3.0503  2.7294  0.0828
13436SOL     OW41150   0.570   2.313   3.491  0.2174 -0.0850  0.7335
13436SOL    HW141151   0.628   2.346   3.560  2.3206  0.6418 -1.2495
13436SOL    HW241152   0.623   2.319   3.411 -2.6654  0.7432 -1.2441
13437SOL     OW41153   0.397   3.492   4.031 -0.0848  0.4254  0.0829
13437SOL    HW141154   0.382   3.474   3.938  0.6209 -0.9776  0.2049
13437SOL    HW241155   0.444   3.414   4.062 -0.3587  0.8542  1.6212
13438SOL     OW41156   5.232   8.112   3.666  0.3007  0.4364 -0.3345
13438SOL    HW141157   5.148   8.066   3.670  1.3397 -1.5474  0.1965
13438SOL    HW241158   5.229   8.160   3.583 -0.1729 -2.0837 -1.8792
13439SOL     OW41159   1.964   5.287   5.468 -1.0406  0.4521  0.2836
13439SOL    HW141160   1.892   5.305   5.528  0.0673 -0.1599  1.8454
13439SOL    HW241161   1.978   5.370   5.422 -1.2238  1.2522  1.6359
13440SOL     OW41162   6.214   8.091   3.568  0.2822  0.8231  0.0192
13440SOL    HW141163   6.218   7.998   3.593  0.0704  1.0640  1.0153
13440SOL    HW241164   6.134   8.099   3.517 -1.2945  0.9516  2.3271
13441SOL     OW41165   3.594   1.268   6.871  0.2813 -0.0331  0.3669
13441SOL    HW141166   3.536   1.226   6.808 -1.5950  0.8870  1.3937
13441SOL    HW241167   3.642   1.333   6.819 -0.7758  0.2897 -0.2375
13442SOL     OW41168   6.498   6.312   1.771 -0.0168  0.8320  0.2849
13442SOL    HW141169   6.487   6.387   1.712 -0.0523  0.0342 -0.7317
13442SOL    HW241170   6.531   6.242   1.715 -0.7718 -0.1646  1.0654
13443SOL     OW41171   3.183   4.307   7.926 -0.5662 -0.2109  0.2954
13443SOL    HW141172   3.219   4.237   7.871  0.3221  0.9574 -0.6615
13443SOL    HW241173   3.149   4.261   8.003  0.1729 -1.6728 -0.2024
13444SOL     OW41174   3.610   1.463   5.120  0.2932  0.2429 -0.6176
13444SOL    HW141175   3.607   1.500   5.032  0.9634 -0.3218 -0.8925
13444SOL    HW241176   3.696   1.487   5.153 -0.7188  2.2621  0.7252
13445SOL     OW41177   5.785   4.137   3.776 -0.5891 -0.2138 -0.0431
13445SOL    HW141178   5.775   4.219   3.824 -0.5766 -0.9332  1.2199
13445SOL    HW241179   5.847   4.158   3.706 -0.7384  0.8989  0.1407
13446SOL     OW41180   0.086   6.004   3.511  0.4999  0.0644 -0.2753
13446SOL    HW141181   0.033   6.020   3.433 -0.3988  0.5473  0.4149
13446SOL    HW241182   0.100   5.910   3.513 -2.1792 -0.3917  0.6628
13447SOL     OW41183   5.186   1.743   6.586 -0.7140  0.2770 -0.0045
13447SOL    HW141184   5.184   1.812   6.519 -0.4555  0.7373  0.4467
13447SOL    HW241185   5.266   1.762   6.636 -0.2920 -0.7419 -0.2698
13448SOL     OW41186   2.786   7.020   0.400 -0.0830  0.1242 -0.7197
13448SOL    HW141187   2.796   6.931   0.366  0.0720  0.0045 -0.3639
13448SOL    HW241188   2.852   7.071   0.354  1.9272 -0.5527  1.2286
13449SOL     OW41189   8.088   4.700   3.590 -0.5605 -0.1280  0.2353
13449SOL    HW141190   8.079   4.676   3.683  0.2465  1.0682  0.6541
13449SOL    HW241191   7.999   4.721   3.562 -0.8411 -0.6807  0.6841
13450SOL     OW41192   5.587   2.163   5.883  0.2903  0.2018  0.2237
13450SOL    HW141193   5.553   2.074   5.872 -0.7221  0.6341 -0.2577
13450SOL    HW241194   5.670   2.164   5.835  0.6465 -0.6626  0.7938
13451SOL     OW41195   1.972   3.947   4.608  0.4013 -0.0060  0.2956
13451SOL    HW141196   1.929   3.976   4.689  2.0418  0.7003  0.9716
13451SOL    HW241197   1.990   3.854   4.622  1.4604  0.3065  1.1492
13452SOL     OW41198   7.796   3.131   8.138  0.6481 -0.1399  0.2514
13452SOL    HW141199   7.837   3.179   8.066 -1.9170 -1.9678 -2.6754
13452SOL    HW241200   7.716   3.179   8.157  0.0600 -1.0141  0.0756
13453SOL     OW41201   6.684   5.527   3.524 -0.7310  0.4069 -0.1904
13453SOL    HW141202   6.752   5.568   3.470  1.4951 -1.3131  1.1040
13453SOL    HW241203   6.676   5.584   3.601 -0.0416  0.1442  0.0838
13454SOL     OW41204   7.326   7.988   0.207 -0.1293 -0.1657  0.4057
13454SOL    HW141205   7.360   8.061   0.258  1.1694 -0.3783 -0.1222
13454SOL    HW241206   7.244   7.964   0.251  0.6619  0.0174  2.0549
13455SOL     OW41207   7.682   6.107   7.928  0.0418  0.0357  0.1540
13455SOL    HW141208   7.659   6.191   7.888  0.9071  0.2721  0.1454
13455SOL    HW241209   7.648   6.113   8.017  0.5423  0.6042  0.3166
13456SOL     OW41210   7.839   1.784   5.777  0.3500  0.3489 -0.0714
13456SOL    HW141211   7.926   1.779   5.736  1.6054 -0.3239  2.4954
13456SOL    HW241212   7.817   1.693   5.798 -1.0745  0.4954 -0.7639
13457SOL     OW41213   5.540   4.141   3.225 -0.2420  0.5985  0.3310
13457SOL    HW141214   5.561   4.165   3.315  1.3451 -0.3098  0.2463
13457SOL    HW241215   5.606   4.187   3.173 -0.3088  0.0493 -0.2495
13458SOL     OW41216   1.589   4.391   4.380 -0.0580  0.2934 -0.4533
13458SOL    HW141217   1.607   4.396   4.474 -2.1409 -0.7507  0.0588
13458SOL    HW241218   1.673   4.366   4.341  0.5153 -0.6867  1.2896
13459SOL     OW41219   4.088   2.800   6.591 -0.5799  0.2707 -0.4496
13459SOL    HW141220   4.001   2.762   6.582  0.7095 -3.0513 -0.3165
13459SOL    HW241221   4.109   2.833   6.503 -1.5982  0.2621 -0.7083
13460SOL     OW41222   2.456   6.084   1.448 -0.0357 -0.6085 -1.0197
13460SOL    HW141223   2.524   6.124   1.394 -0.2027  0.0172 -0.7750
13460SOL    HW241224   2.441   6.147   1.518 -1.6106 -0.2331 -1.6534
13461SOL     OW41225   1.397   5.672   4.002 -0.8022 -0.1857  0.4404
13461SOL    HW141226   1.388   5.766   3.986  0.1976  0.1321  1.6190
13461SOL    HW241227   1.471   5.646   3.946  0.4980  0.2461  1.8956
13462SOL     OW41228   1.781   1.690   4.240  0.1682  0.3436 -0.3633
13462SOL    HW141229   1.688   1.688   4.218  0.2249  0.4823 -0.6264
13462SOL    HW241230   1.798   1.605   4.281 -0.5530  1.1524  1.7055
13463SOL     OW41231   2.989   3.705   1.997  0.4300 -0.0596  0.3167
13463SOL    HW141232   3.080   3.718   2.024  0.8906  0.6944 -1.4697
13463SOL    HW241233   2.992   3.706   1.901 -1.4938  0.2671  0.2283
13464SOL     OW41234   7.208   1.811   7.958 -0.1413  0.0543 -0.0738
13464SOL    HW141235   7.235   1.811   7.866  2.5666 -0.6852  0.6243
13464SOL    HW241236   7.210   1.903   7.983 -0.6233  0.2354 -0.6786
13465SOL     OW41237   3.900   4.494   2.356 -0.2030  0.1095 -0.5140
13465SOL    HW141238   3.894   4.586   2.330  3.0733  0.3748 -0.7802
13465SOL    HW241239   3.949   4.452   2.285  1.2903 -1.0486  1.0931
13466SOL     OW41240   0.050   5.674   7.945  0.0133  0.1625  0.0064
13466SOL    HW141241   0.111   5.610   7.981  0.2496  0.1455 -0.4172
13466SOL    HW241242   0.058   5.751   8.002 -0.5728 -0.3233  0.7679
13467SOL     OW41243   6.636   5.308   0.359 -0.2652 -0.0432  0.3218
13467SOL    HW141244   6.544   5.294   0.381 -0.8428  1.7546 -0.7704
13467SOL    HW241245   6.635   5.367   0.284  1.7902  2.4319  2.0627
13468SOL     OW41246   2.362   3.335   0.741  0.2337 -0.6096  0.0949
13468SOL    HW141247   2.428   3.303   0.679  1.1131  2.1560 -0.5418
13468SOL    HW241248   2.411   3.351   0.822  0.2339  0.8744 -0.1879
13469SOL     OW41249   2.866   7.207   6.405 -0.6713  0.0458  0.0842
13469SOL    HW141250   2.870   7.164   6.490 -1.1890 -0.6161 -0.2186
13469SOL    HW241251   2.957   7.232   6.387 -0.6032  0.4998  0.9727
13470SOL     OW41252   5.877   4.565   2.158  1.0922  0.3716 -0.2317
13470SOL    HW141253   5.919   4.621   2.093 -1.4389 -0.1535 -2.5297
13470SOL    HW241254   5.873   4.479   2.116 -0.9105  0.0880  0.4286
13471SOL     OW41255   6.054   6.576   6.392 -0.0283 -0.0251  0.1497
13471SOL    HW141256   6.032   6.554   6.302 -1.4257  0.1765  0.4187
13471SOL    HW241257   6.060   6.492   6.437 -0.8221 -0.0685  0.1839
13472SOL     OW41258   4.870   0.135   7.108  0.3903 -0.3792  0.3513
13472SOL    HW141259   4.960   0.151   7.079 -0.6932  1.4536 -2.4737
13472SOL    HW241260   4.853   0.202   7.174  1.2699 -1.1881  1.4271
13473SOL     OW41261   7.319   4.353   1.526 -0.0903  0.3403  0.2844
13473SOL    HW141262   7.303   4.302   1.447  0.8498  0.7584 -0.1817
13473SOL    HW241263   7.344   4.288   1.592  0.6043  0.1381 -0.1703
13474SOL     OW41264   6.856   0.596   6.125  0.3357 -0.7095 -0.8026
13474SOL    HW141265   6.765   0.616   6.145  1.2243  2.5607  0.5340
13474SOL    HW241266   6.885   0.542   6.198 -0.3608 -1.3740 -1.0022
13475SOL     OW41267   5.380   3.526   0.531  0.5284 -0.3205 -0.0396
13475SOL    HW141268   5.393   3.431   0.541  1.0325 -0.5596 -2.3541
13475SOL    HW241269   5.467   3.559   0.509  0.0374  0.4143 -0.9100
13476SOL     OW41270   1.120   1.874   5.717  0.3681  0.3063  0.7611
13476SOL    HW141271   1.100   1.783   5.740  0.3932 -0.0116 -0.4068
13476SOL    HW241272   1.054   1.897   5.651 -0.0106  1.3456  1.4701
13477SOL     OW41273   4.207   6.149   6.123 -0.0871  0.4369  0.1720
13477SOL    HW141274   4.139   6.084   6.139  0.7296 -1.1575 -2.2451
13477SOL    HW241275   4.289   6.104   6.144  0.4155  1.1886 -0.1315
13478SOL     OW41276   7.801   5.372   3.144 -0.0261 -0.4262  0.4714
13478SOL    HW141277   7.755   5.293   3.113 -0.2028 -0.6023  1.1705
13478SOL    HW241278   7.893   5.346   3.147  0.2068  0.0422 -1.2999
13479SOL     OW41279   0.889   4.136   2.088  0.1553  0.3117 -0.4191
13479SOL    HW141280   0.904   4.131   2.182  0.4785  0.2816 -0.4729
13479SOL    HW241281   0.824   4.206   2.078  1.4340  1.5680 -0.3152
13480SOL     OW41282   7.829   0.294   0.680 -0.3756 -0.0319 -0.1572
13480SOL    HW141283   7.922   0.295   0.659 -0.7465  0.0720 -1.8971
13480SOL    HW241284   7.822   0.229   0.750  1.2322  1.2929  1.3584
13481SOL     OW41285   1.339   1.461   4.840 -0.2480 -0.1024  0.6370
13481SOL    HW141286   1.249   1.455   4.871 -0.3557  1.1029  0.6208
13481SOL    HW241287   1.389   1.488   4.917 -0.1648  0.7587  0.2904
13482SOL     OW41288   2.622   1.915   6.693 -0.6405 -0.1513  0.2383
13482SOL    HW141289   2.526   1.914   6.687 -0.8527  3.4054  0.9383
13482SOL    HW241290   2.649   1.978   6.626  1.0652  0.0702  1.0785
13483SOL     OW41291   7.011   3.075   0.561  0.3039  0.0952  0.0227
13483SOL    HW141292   6.949   3.081   0.489 -0.4948  0.1074  0.6958
13483SOL    HW241293   6.959   3.093   0.639  1.0487 -0.3956  0.6488
13484SOL     OW41294   1.707   2.867   0.096  0.3345 -0.2662  0.3800
13484SOL    HW141295   1.672   2.806   0.031 -1.1035 -0.3093  1.1704
13484SOL    HW241296   1.736   2.811   0.168 -0.6636 -0.0687  0.9547
13485SOL     OW41297   0.331   1.797   4.735 -0.8936  0.4749 -0.0198
13485SOL    HW141298   0.339   1.890   4.753 -0.9088  0.5373 -0.3233
13485SOL    HW241299   0.295   1.793   4.646 -2.5453  0.1954  0.6335
13486SOL     OW41300   1.527   7.420   6.887  0.0351 -0.0483  0.4622
13486SOL    HW141301   1.497   7.335   6.920 -1.9622  0.3160 -0.2464
13486SOL    HW241302   1.539   7.407   6.793  0.2936  0.3042  0.4426
13487SOL     OW41303   6.505   2.536   4.764  0.3840  0.2922 -0.6118
13487SOL    HW141304   6.594   2.519   4.796  0.0038 -1.7188 -0.4462
13487SOL    HW241305   6.448   2.510   4.836 -0.3599  0.6023 -1.0770
13488SOL     OW41306   2.898   0.792   6.710  0.0936  0.2503 -0.9615
13488SOL    HW141307   2.953   0.867   6.688  0.0284 -0.4254 -3.7914
13488SOL    HW241308   2.960   0.723   6.734  0.4520 -0.0264 -2.5718
13489SOL     OW41309   8.195   2.527   5.585  0.1724 -0.1110 -0.0989
13489SOL    HW141310   8.268   2.490   5.536  0.0495 -0.3788 -0.0795
13489SOL    HW241311   8.235   2.594   5.641  0.4878 -0.6807  0.3656
13490SOL     OW41312   2.418   7.534   3.734  0.2684 -0.3959 -0.5283
13490SOL    HW141313   2.416   7.620   3.777  0.2103 -0.1806 -0.9463
13490SOL    HW241314   2.404   7.554   3.641  1.2096 -0.7632 -0.7656
13491SOL     OW41315   5.936   3.397   1.159  0.0116 -0.2071 -0.1826
13491SOL    HW141316   5.874   3.361   1.223  1.6931 -0.2428  1.5154
13491SOL    HW241317   5.980   3.320   1.123  2.9164 -0.1323  2.7370
13492SOL     OW41318   0.462   1.671   7.283 -0.0558  0.3026  0.1712
13492SOL    HW141319   0.527   1.741   7.289 -0.8060  1.3568 -2.3390
13492SOL    HW241320   0.513   1.593   7.261  0.6323  0.4197  1.2882
13493SOL     OW41321   7.237   6.337   7.987 -0.0200 -0.4552  0.2968
13493SOL    HW141322   7.155   6.387   7.980  0.7393  0.6740 -1.2678
13493SOL    HW241323   7.241   6.287   7.905  1.1657  0.0555  0.0184
13494SOL     OW41324   6.355   5.785   6.866 -0.2113  0.2816 -0.2220
13494SOL    HW141325   6.374   5.710   6.921  0.0216  0.0671 -0.5931
13494SOL    HW241326   6.436   5.837   6.866  0.1184 -0.2145 -1.1397
13495SOL     OW41327   7.780   0.987   4.891  0.5452  0.3448  0.4773
13495SOL    HW141328   7.716   1.011   4.824  1.0288 -0.6556 -0.3675
13495SOL    HW241329   7.733   0.997   4.973 -1.3189 -2.0367 -0.1821
13496SOL     OW41330   3.214   4.136   7.727  0.2129 -0.0617 -0.1957
13496SOL    HW141331   3.283   4.078   7.695 -0.0668  0.6633 -2.2433
13496SOL    HW241332   3.154   4.146   7.653  0.0746  2.5373  0.1745
13497SOL     OW41333   0.750   1.906   4.321 -0.0205  0.3387  0.0236
13497SOL    HW141334   0.801   1.944   4.250  0.3990  1.5307  0.9203
13497SOL    HW241335   0.814   1.871   4.382 -0.3251  0.3122  0.3368
13498SOL     OW41336   4.447   6.660   7.142 -0.7604  0.1670  0.0278
13498SOL    HW141337   4.436   6.753   7.123 -0.6455  0.1119 -0.3249
13498SOL    HW241338   4.467   6.621   7.056 -2.2238 -0.4109 -0.0704
13499SOL     OW41339   0.658   3.806   2.111 -0.2486  0.1248  0.6043
13499SOL    HW141340   0.746   3.780   2.138  0.2937  1.2164 -0.0494
13499SOL    HW241341   0.627   3.863   2.182 -0.2118  0.1802  0.5759
13500SOL     OW41342   8.024   3.808   6.671  0.3877  0.0338  0.0936
13500SOL    HW141343   7.959   3.739   6.659  0.7662 -0.2012 -0.6575
13500SOL    HW241344   8.088   3.793   6.601  0.4446  1.1787 -0.1155
13501SOL     OW41345   1.928   5.274   3.986 -0.7294  0.4652  0.0890
13501SOL    HW141346   1.963   5.186   3.993 -0.3856  0.6326  0.6128
13501SOL    HW241347   1.902   5.283   3.894  0.8225  0.4068 -0.3904
13502SOL     OW41348   0.863   2.867   4.595 -0.3500  0.1661 -0.1023
13502SOL    HW141349   0.830   2.849   4.507 -0.8068  2.1387 -0.3864
13502SOL    HW241350   0.944   2.916   4.581 -1.2474  1.9107  0.5113
13503SOL     OW41351   7.151   6.960   6.379  0.1046  0.0182  0.6513
13503SOL    HW141352   7.106   6.876   6.388  0.2590 -0.0027  1.2338
13503SOL    HW241353   7.080   7.024   6.373 -0.0333  0.0389  2.0573
13504SOL     OW41354   1.734   3.264   5.305  0.1099 -0.4247 -0.4089
13504SOL    HW141355   1.817   3.309   5.288  0.6152 -2.2500 -3.5380
13504SOL    HW241356   1.667   3.324   5.271  0.4238 -0.2388 -0.7135
13505SOL     OW41357   4.048   4.722   1.355 -0.4950  0.6284  0.0962
13505SOL    HW141358   3.969   4.738   1.304 -0.9563  1.2439  0.9821
13505SOL    HW241359   4.017   4.688   1.439  0.2376 -0.1011  0.0889
13506SOL     OW41360   1.547   3.661   3.637  0.5809 -0.1643 -0.2660
13506SOL    HW141361   1.634   3.689   3.667  0.6506  0.1176 -0.7309
13506SOL    HW241362   1.489   3.734   3.658  0.6652  0.1130 -0.9924
13507SOL     OW41363   0.953   5.931   1.557 -0.0830  0.1436  0.1488
13507SOL    HW141364   0.989   5.984   1.486  1.3376 -0.7136  0.1783
13507SOL    HW241365   0.889   5.988   1.600  0.7215  1.4975 -0.3869
13508SOL     OW41366   6.943   6.576   7.744 -0.3886 -0.5298 -0.2772
13508SOL    HW141367   6.889   6.553   7.819 -1.5128 -0.5624 -1.0644
13508SOL    HW241368   6.889   6.554   7.668 -0.5175  2.2014 -1.1150
13509SOL     OW41369   1.928   2.782   5.812 -0.0778  0.4975 -0.0201
13509SOL    HW141370   1.833   2.794   5.813 -0.2423 -0.4729  2.2524
13509SOL    HW241371   1.943   2.707   5.755 -0.7380  0.3708 -0.0280
13510SOL     OW41372   5.906   0.398   1.870  0.3303  0.6219  0.0810
13510SOL    HW141373   5.920   0.414   1.777  2.8441 -0.3039  0.2079
13510SOL    HW241374   5.892   0.303   1.877 -1.0319  0.8414  0.5503
13511SOL     OW41375   4.816   5.389   6.933  0.4894 -0.4339  0.3086
13511SOL    HW141376   4.787   5.430   7.015 -2.2013  0.5898 -1.0333
13511SOL    HW241377   4.863   5.311   6.961 -0.6189 -0.3130  2.8264
13512SOL     OW41378   7.973   6.826   7.534  0.0159  0.1773  0.4477
13512SOL    HW141379   7.922   6.898   7.496  0.4835 -0.0170 -0.5641
13512SOL    HW241380   7.917   6.792   7.604 -1.0819  0.2263 -0.3773
13513SOL     OW41381   2.673   2.290   3.717  0.3200  0.8421 -0.4428
13513SOL    HW141382   2.586   2.269   3.752  1.3858 -0.6898  1.5415
13513SOL    HW241383   2.679   2.385   3.721 -0.6982  0.8737  0.8933
13514SOL     OW41384   5.382   5.669   4.147 -0.0878 -0.2403  0.1780
13514SOL    HW141385   5.308   5.730   4.153  0.4181  0.3172  0.9334
13514SOL    HW241386   5.423   5.673   4.233 -0.9053 -2.7805  0.7434
13515SOL     OW41387   4.006   3.868   1.504  0.3392 -0.1624  0.2700
13515SOL    HW141388   4.026   3.958   1.530 -0.7590  0.1059  0.2447
13515SOL    HW241389   3.924   3.875   1.456 -0.4948 -1.3317  1.4428
13516SOL     OW41390   6.233   0.109   0.882 -0.3161 -0.3357 -0.4224
13516SOL    HW141391   6.195   0.086   0.967  0.2244  0.1247 -0.0480
13516SOL    HW241392   6.161   0.150   0.834 -0.4541  0.0138  0.0683
13517SOL     OW41393   7.388   8.065   1.533 -0.4119 -0.2547 -0.0025
13517SOL    HW141394   7.382   7.971   1.550 -1.1214 -0.3480 -0.7056
13517SOL    HW241395   7.301   8.089   1.500  0.0069  0.4883 -0.6068
13518SOL     OW41396   5.678   0.609   5.757 -0.1941 -0.2298  0.2540
13518SOL    HW141397   5.701   0.625   5.849  0.9749 -2.8711  0.5210
13518SOL    HW241398   5.731   0.672   5.708  0.8223 -0.2258  1.3125
13519SOL     OW41399   8.050   2.116   5.080 -0.2094  0.5452  0.2613
13519SOL    HW141400   7.961   2.109   5.046  0.1672 -1.9788 -0.4317
13519SOL    HW241401   8.106   2.106   5.003  0.6690 -0.1100  0.9696
13520SOL     OW41402   7.437   1.979   5.142  0.6549 -0.0478  0.0357
13520SOL    HW141403   7.483   1.928   5.075  0.6678 -0.4886  0.3794
13520SOL    HW241404   7.347   1.947   5.138  0.9636 -1.1375  1.2406
13521SOL     OW41405   5.077   3.938   2.348  0.0279 -0.5190 -0.4354
13521SOL    HW141406   5.095   3.892   2.430 -0.1346  1.0006  0.4882
13521SOL    HW241407   4.984   3.962   2.354  0.5892  1.7545  0.1117
13522SOL     OW41408   3.803   6.762   0.966  0.6221 -0.0561  0.5185
13522SOL    HW141409   3.741   6.744   0.896 -0.1290  1.8696  0.6190
13522SOL    HW241410   3.871   6.695   0.956 -1.2618 -2.0393  0.1985
13523SOL     OW41411   1.095   4.553   3.832  0.5709 -0.2858  0.3879
13523SOL    HW141412   1.191   4.555   3.835  0.6224 -0.3565 -0.8201
13523SOL    HW241413   1.074   4.521   3.744 -0.5638 -0.4152  0.6913
13524SOL     OW41414   3.188   0.388   5.108  0.1954  0.0224  0.4380
13524SOL    HW141415   3.119   0.341   5.155 -0.4765  2.2579  1.8490
13524SOL    HW241416   3.264   0.383   5.166  0.4289 -0.1526  0.1218
13525SOL     OW41417   5.167   0.621   6.431 -0.2478  0.7111 -0.1765
13525SOL    HW141418   5.139   0.554   6.493 -0.4602 -0.0390 -1.0493
13525SOL    HW241419   5.118   0.699   6.456  2.7381  1.7610  3.2390
13526SOL     OW41420   6.413   7.051   0.131  0.4410  0.4943  0.4640
13526SOL    HW141421   6.331   7.021   0.092  0.7272 -0.2034  0.3839
13526SOL    HW241422   6.435   6.984   0.195 -0.1605  1.7439  2.0550
13527SOL     OW41423   6.452   1.512   7.643 -0.1952  0.3178  0.6335
13527SOL    HW141424   6.394   1.449   7.687 -0.5280  0.6629  0.6976
13527SOL    HW241425   6.534   1.506   7.691  0.2674 -1.1312 -0.2737
13528SOL     OW41426   0.398   3.666   0.062 -0.1769  0.0064  0.1256
13528SOL    HW141427   0.325   3.727   0.060  0.0590  0.2825 -0.1430
13528SOL    HW241428   0.467   3.709   0.011  1.0633  0.8896  2.3761
13529SOL     OW41429   0.061   1.037   6.171  0.4696 -0.5135  0.0421
13529SOL    HW141430   0.041   1.022   6.263  0.8577  0.5545  0.3162
13529SOL    HW241431   0.153   1.063   6.170  0.4193 -0.3357 -0.6259
13530SOL     OW41432   7.541   1.913   4.276 -0.4054 -0.5713  0.0822
13530SOL    HW141433   7.562   1.845   4.212 -0.6465 -0.6202  0.0541
13530SOL    HW241434   7.447   1.902   4.293 -0.5407  0.0048 -0.2233
13531SOL     OW41435   7.705   5.111   0.802  0.2768 -0.2636  0.3613
13531SOL    HW141436   7.695   5.016   0.794 -0.5120 -0.2994  1.5338
13531SOL    HW241437   7.618   5.146   0.781  1.0447  0.3649 -2.0306
13532SOL     OW41438   2.150   2.790   4.526  0.1504 -0.4466 -0.0173
13532SOL    HW141439   2.130   2.763   4.437  1.9920 -0.0653 -0.5977
13532SOL    HW241440   2.165   2.707   4.573  0.0225 -0.6199 -0.2823
13533SOL     OW41441   7.630   6.951   3.533  0.5969 -0.0678  0.0960
13533SOL    HW141442   7.600   6.862   3.513  0.1548  0.5099 -2.1213
13533SOL    HW241443   7.638   6.993   3.447  2.6337  1.4790  0.9645
13534SOL     OW41444   8.123   8.041   6.495 -0.1691 -0.3808  0.4090
13534SOL    HW141445   8.037   8.070   6.463 -0.2480  0.1910  1.1047
13534SOL    HW241446   8.105   7.958   6.539 -0.2143 -0.7003 -0.2030
13535SOL     OW41447   0.385   6.027   0.265  0.2289  0.1757  1.2590
13535SOL    HW141448   0.379   5.966   0.339 -0.8523  1.1608  2.0276
13535SOL    HW241449   0.392   6.113   0.306 -0.8035  0.7766  0.2171
13536SOL     OW41450   1.890   7.617   3.259 -0.2359 -0.3616 -0.0725
13536SOL    HW141451   1.933   7.702   3.257  0.8246 -0.8845 -0.5122
13536SOL    HW241452   1.827   7.623   3.331 -0.4235  0.8958 -0.3300
13537SOL     OW41453   1.972   2.190   6.261  0.4697  0.6019 -0.3222
13537SOL    HW141454   1.897   2.244   6.238 -0.0804  0.2167  0.4924
13537SOL    HW241455   2.047   2.249   6.257  0.3016  0.7378 -2.2069
13538SOL     OW41456   7.810   6.176   1.241  0.3320  0.2304  0.1522
13538SOL    HW141457   7.853   6.095   1.269 -0.0834 -0.5786 -1.4237
13538SOL    HW241458   7.721   6.169   1.276  0.6119  0.5215  0.9322
13539SOL     OW41459   0.688   1.689   0.376  0.5433  0.7808 -0.0386
13539SOL    HW141460   0.722   1.599   0.374  1.9340  1.2561  0.6825
13539SOL    HW241461   0.743   1.736   0.314 -0.0953  1.1682 -0.3146
13540SOL     OW41462   5.898   3.853   3.883 -0.4163  0.2054  0.4993
13540SOL    HW141463   5.831   3.921   3.886 -1.0510 -0.3841 -0.1277
13540SOL    HW241464   5.884   3.809   3.800  1.1057  0.4194  0.0997
13541SOL     OW41465   4.862   6.541   8.012 -0.3447  0.6864  0.0300
13541SOL    HW141466   4.891   6.496   7.933  2.2001  0.6098  0.9020
13541SOL    HW241467   4.839   6.472   8.073  1.8290  0.5123  0.7493
13542SOL     OW41468   0.574   2.508   5.341  0.5030 -0.2548 -0.0067
13542SOL    HW141469   0.643   2.444   5.360 -0.0072 -1.0126 -0.6761
13542SOL    HW241470   0.610   2.591   5.374  1.3171 -0.8082  0.5546
13543SOL     OW41471   5.881   4.533   2.469  1.0564 -0.1111 -0.1887
13543SOL    HW141472   5.959   4.490   2.505 -0.1023 -1.4262  0.8847
13543SOL    HW241473   5.832   4.462   2.426 -0.3070  0.3535  0.5338
13544SOL     OW41474   1.065   6.380   4.152 -0.0633 -0.1029 -0.4568
13544SOL    HW141475   1.053   6.447   4.084  1.0953 -0.0476 -0.6265
13544SOL    HW241476   0.990   6.391   4.210 -0.1277  1.0523 -0.7375
13545SOL     OW41477   2.917   4.485   3.980 -0.3214 -0.2288  0.4812
13545SOL    HW141478   2.976   4.494   4.055 -0.2647  0.1052  0.3949
13545SOL    HW241479   2.975   4.464   3.906 -0.4290 -1.1392  0.6372
13546SOL     OW41480   5.659   4.020   5.759 -0.2226 -0.7012  0.2737
13546SOL    HW141481   5.620   3.968   5.689 -0.4248 -1.9355  1.2622
13546SOL    HW241482   5.667   3.959   5.832  2.0514 -0.0529  0.6399
13547SOL     OW41483   3.489   4.619   0.606  0.4117 -0.1219 -0.2060
13547SOL    HW141484   3.527   4.568   0.535 -2.3173 -0.6314 -1.4112
13547SOL    HW241485   3.395   4.618   0.589 -0.1753  1.2945  2.4225
13548SOL     OW41486   7.675   1.985   2.427 -0.3875 -0.1934 -0.1661
13548SOL    HW141487   7.680   2.080   2.419  0.2199 -0.2031  0.0429
13548SOL    HW241488   7.616   1.958   2.357 -0.7684  0.3583 -0.0652
13549SOL     OW41489   1.415   5.140   6.290  0.4455 -0.5865  0.3354
13549SOL    HW141490   1.382   5.180   6.210 -0.8530 -1.5482  0.3456
13549SOL    HW241491   1.432   5.213   6.349 -1.6685  0.0083  0.2879
13550SOL     OW41492   6.181   2.218   7.943  0.2154 -0.1873  0.1429
13550SOL    HW141493   6.211   2.304   7.912  1.8660 -0.5870  0.5125
13550SOL    HW241494   6.182   2.163   7.865 -0.0849 -0.0673  0.0532
13551SOL     OW41495   5.163   7.795   6.465  0.1108  0.3869  0.4471
13551SOL    HW141496   5.218   7.793   6.544  0.0431 -0.7684  0.4755
13551SOL    HW241497   5.200   7.728   6.408 -2.2225 -1.6147  1.1355
13552SOL     OW41498   2.304   1.721   1.883 -0.2009 -0.0851 -0.1224
13552SOL    HW141499   2.337   1.635   1.910  2.1341  0.7353 -0.1218
13552SOL    HW241500   2.218   1.704   1.845  0.6091 -2.5616 -1.0080
13553SOL     OW41501   1.865   2.828   1.509 -0.5259  0.0370 -0.4526
13553SOL    HW141502   1.865   2.852   1.601 -1.6684 -1.5908  0.0080
13553SOL    HW241503   1.954   2.796   1.493 -0.1875  0.7560 -0.0491
13554SOL     OW41504   5.819   6.732   2.298  0.2585 -0.2025  0.2303
13554SOL    HW141505   5.855   6.650   2.263  0.5697  0.7713 -1.9209
13554SOL    HW241506   5.785   6.708   2.384  0.4574 -2.5566 -0.2602
13555SOL     OW41507   2.066   6.429   0.334  0.1761  0.1767  0.7837
13555SOL    HW141508   2.062   6.387   0.248 -1.9362 -0.9437  1.3758
13555SOL    HW241509   2.139   6.385   0.378 -1.2337 -2.1820  0.9528
13556SOL     OW41510   8.159   1.322   0.081  0.2320  0.2868  0.4812
13556SOL    HW141511   8.225   1.371   0.032 -0.2271 -0.5038 -0.9782
13556SOL    HW241512   8.207   1.250   0.122  1.0342  2.1791  3.1695
13557SOL     OW41513   3.962   0.289   0.596 -0.0063 -0.0313  0.0331
13557SOL    HW141514   3.926   0.203   0.619 -0.8309 -0.4575 -2.5080
13557SOL    HW241515   3.892   0.351   0.616 -0.7201 -0.3950 -1.2216
13558SOL     OW41516   6.525   6.861   3.770  0.5057  0.7984 -0.3136
13558SOL    HW141517   6.451   6.809   3.737 -0.3411  1.4606  0.5189
13558SOL    HW241518   6.597   6.838   3.711  0.1178 -1.1853 -0.0954
13559SOL     OW41519   1.231   7.790   3.409 -0.1828  0.1010  0.1258
13559SOL    HW141520   1.262   7.703   3.386  0.7327  0.1858  0.9565
13559SOL    HW241521   1.140   7.777   3.437 -0.1536 -0.5291 -0.0675
13560SOL     OW41522   4.229   0.889   7.771  0.0729  0.5842 -0.4237
13560SOL    HW141523   4.280   0.825   7.721 -1.1697 -0.7853 -0.0325
13560SOL    HW241524   4.291   0.921   7.838 -0.0507 -2.8060  1.5929
13561SOL     OW41525   6.511   3.490   6.395 -0.3003  0.2058  0.9833
13561SOL    HW141526   6.589   3.472   6.449 -1.2146  0.1997  2.3585
13561SOL    HW241527   6.532   3.453   6.309  1.8316  1.5891  0.8455
13562SOL     OW41528   4.046   7.972   2.567 -0.0629  0.2598 -0.3313
13562SOL    HW141529   4.043   7.993   2.661  2.1474 -1.6457  0.2737
13562SOL    HW241530   4.094   8.044   2.527 -0.4021  0.7463  0.1321
13563SOL     OW41531   1.645   0.380   4.931 -0.4426 -0.1699  0.1657
13563SOL    HW141532   1.573   0.443   4.936 -0.9282 -0.8121  1.6293
13563SOL    HW241533   1.658   0.351   5.021  3.5250  1.9367  0.4709
13564SOL     OW41534   2.701   6.502   7.396  0.2675 -0.1421  0.2058
13564SOL    HW141535   2.766   6.546   7.451  0.8676 -1.2254  0.3845
13564SOL    HW241536   2.752   6.447   7.337 -0.4659 -1.0736  0.4057
13565SOL     OW41537   1.188   2.826   7.967  0.6147 -0.1714 -0.1443
13565SOL    HW141538   1.240   2.769   7.910 -1.4647 -0.1725 -2.2005
13565SOL    HW241539   1.195   2.787   8.053  1.5781 -1.8792 -0.9459
13566SOL     OW41540   3.380   4.498   4.410 -0.3455 -0.3948 -0.0027
13566SOL    HW141541   3.422   4.431   4.465  0.0897 -0.2010 -0.0976
13566SOL    HW241542   3.315   4.538   4.467  0.2511 -0.0475  0.4491
13567SOL     OW41543   3.896   3.112   6.101  0.0772  0.1268 -0.3380
13567SOL    HW141544   3.971   3.059   6.127  0.0358  0.1960 -0.0775
13567SOL    HW241545   3.904   3.193   6.152 -1.0768 -0.5267  0.9620
13568SOL     OW41546   3.541   7.057   2.080 -0.1376  0.5509 -0.2814
13568SOL    HW141547   3.459   7.075   2.126 -1.3627 -0.6819 -1.8953
13568SOL    HW241548   3.535   6.966   2.052  1.2353  0.7893 -1.5164
13569SOL     OW41549   7.030   6.716   3.646 -0.0856  0.2693 -0.2995
13569SOL    HW141550   7.036   6.717   3.550  0.2846 -0.2434 -0.2827
13569SOL    HW241551   7.100   6.774   3.675  1.0330 -1.0545 -0.2877
13570SOL     OW41552   7.332   2.466   6.032 -0.1849  0.4868 -0.4485
13570SOL    HW141553   7.326   2.409   6.109  0.6240  1.8424  0.6583
13570SOL    HW241554   7.425   2.489   6.027 -0.3844  1.1317 -1.2977
13571SOL     OW41555   6.652   2.289   1.156  0.8842  0.4451 -0.1862
13571SOL    HW141556   6.607   2.347   1.217  1.4095 -0.8402  1.4752
13571SOL    HW241557   6.606   2.205   1.164  1.0494  0.2027 -1.4779
13572SOL     OW41558   2.228   0.631   3.147 -0.1205 -0.2896  0.3810
13572SOL    HW141559   2.250   0.675   3.065 -1.5782  0.2413  0.2334
13572SOL    HW241560   2.306   0.639   3.201  0.9069 -0.7495 -0.9873
13573SOL     OW41561   3.720   7.010   7.476 -0.0121  0.1917  0.0798
13573SOL    HW141562   3.767   6.993   7.395 -2.0516 -0.9374 -0.9436
13573SOL    HW241563   3.668   7.089   7.457  0.1300  0.4123  0.5890
13574SOL     OW41564   1.429   6.846   1.863  0.2915  0.2965  0.2743
13574SOL    HW141565   1.451   6.819   1.774  1.3179  0.1370  0.5691
13574SOL    HW241566   1.359   6.786   1.889 -0.4468  0.7369 -0.6336
13575SOL     OW41567   7.492   0.450   3.333 -0.0252 -0.1984 -0.4284
13575SOL    HW141568   7.477   0.431   3.240  0.0528 -0.3006 -0.4198
13575SOL    HW241569   7.407   0.480   3.365  0.2738  1.1813 -0.8657
13576SOL     OW41570   4.432   0.226   7.784 -0.0514  0.1882  0.2440
13576SOL    HW141571   4.378   0.232   7.706  0.7099 -0.7823 -0.3803
13576SOL    HW241572   4.475   0.140   7.778  1.6065  0.9364  0.6730
13577SOL     OW41573   7.905   8.183   4.796  0.5273 -0.5271  0.0275
13577SOL    HW141574   7.907   8.223   4.883  1.2536  1.1297 -0.7018
13577SOL    HW241575   7.947   8.248   4.739  3.0469 -2.8673 -1.0305
13578SOL     OW41576   2.154   5.287   1.803  0.2097 -0.1814 -0.0224
13578SOL    HW141577   2.091   5.245   1.745  2.6248  0.1488 -3.2058
13578SOL    HW241578   2.213   5.217   1.830  0.6462  0.1149 -0.1913
13579SOL     OW41579   6.110   1.673   2.024 -0.0816 -0.0360 -0.0203
13579SOL    HW141580   6.019   1.659   2.053 -0.8070  3.3886 -0.2538
13579SOL    HW241581   6.108   1.655   1.930 -0.9042  1.3036 -0.2858
13580SOL     OW41582   3.731   6.427   3.366  0.9142 -0.4196 -0.1501
13580SOL    HW141583   3.775   6.501   3.407  0.3035 -0.8268  1.3054
13580SOL    HW241584   3.729   6.449   3.273 -1.2820  2.5062  0.4512
13581SOL     OW41585   7.876   5.908   1.306 -0.5074 -0.1428 -0.3275
13581SOL    HW141586   7.965   5.875   1.290  0.5361  1.4140  1.8500
13581SOL    HW241587   7.830   5.835   1.347  0.3707 -0.3719  0.2813
13582SOL     OW41588   5.006   5.966   6.484 -0.4944 -0.2028 -0.0059
13582SOL    HW141589   4.978   6.022   6.411 -0.2741  0.2191  0.2306
13582SOL    HW241590   4.925   5.944   6.530 -0.7968 -1.4895 -1.0818
13583SOL     OW41591   8.186   3.179   4.301 -0.1506 -0.3870  0.5204
13583SOL    HW141592   8.118   3.224   4.250  1.4176  0.3976 -0.9521
13583SOL    HW241593   8.246   3.144   4.235 -0.2546 -2.9782  1.7070
13584SOL     OW41594   0.609   7.529   1.344 -0.5527  0.0870  0.2382
13584SOL    HW141595   0.656   7.559   1.267 -0.1113  0.0945  0.5056
13584SOL    HW241596   0.550   7.461   1.312  1.0438 -1.3485  0.1690
13585SOL     OW41597   7.888   6.066   4.480  0.4020  0.5104 -0.0056
13585SOL    HW141598   7.914   6.088   4.569  1.4001  0.0820 -0.1808
13585SOL    HW241599   7.881   5.971   4.479 -0.4080  0.5556 -0.1882
13586SOL     OW41600   2.570   1.453   4.192 -0.1755  0.5185  0.3372
13586SOL    HW141601   2.488   1.489   4.158  0.5738  0.1518 -2.0382
13586SOL    HW241602   2.543   1.383   4.252 -1.5973  0.6228 -0.1460
13587SOL     OW41603   3.932   3.032   7.693 -0.2615 -0.2823 -0.2610
13587SOL    HW141604   3.972   3.071   7.616 -0.4140 -0.2866 -0.3441
13587SOL    HW241605   3.961   2.941   7.692 -0.9271 -0.4966 -0.7765
13588SOL     OW41606   6.963   5.538   5.089  0.5089 -0.3862 -0.4741
13588SOL    HW141607   6.958   5.593   5.011 -2.4992 -0.0030 -0.1172
13588SOL    HW241608   6.894   5.571   5.147  1.0867 -2.1607  1.3762
13589SOL     OW41609   2.418   7.099   0.985 -0.1612  0.2282 -0.1847
13589SOL    HW141610   2.488   7.083   0.921 -0.2263  0.2066 -0.2505
13589SOL    HW241611   2.459   7.152   1.052 -0.3349  1.0412 -0.7110
13590SOL     OW41612   7.396   4.131   7.762  0.2014  0.0658  0.1944
13590SOL    HW141613   7.458   4.063   7.735  0.3272  0.6904 -1.1894
13590SOL    HW241614   7.427   4.159   7.848  1.1046 -0.5048  0.0678
13591SOL     OW41615   2.654   7.955   6.900 -0.2647  0.5045 -0.5278
13591SOL    HW141616   2.674   7.980   6.810  0.4695 -0.4439 -0.6429
13591SOL    HW241617   2.713   7.882   6.919  2.0475  2.7019  1.8072
13592SOL     OW41618   5.634   2.254   2.248 -0.2254 -0.1523  0.3142
13592SOL    HW141619   5.696   2.198   2.201 -0.9553 -2.6071  2.0723
13592SOL    HW241620   5.548   2.228   2.216 -0.5592  0.4693  0.6683
13593SOL     OW41621   4.690   1.968   7.594 -0.2537  0.1124 -0.7732
13593SOL    HW141622   4.647   1.979   7.679  0.5201 -1.6009 -0.0933
13593SOL    HW241623   4.758   2.035   7.593  0.5469 -0.6252  0.5554
13594SOL     OW41624   0.275   3.169   6.932  0.2286  0.1323 -0.2998
13594SOL    HW141625   0.261   3.089   6.883  0.6846  0.7785 -1.5203
13594SOL    HW241626   0.280   3.141   7.023  1.3743 -1.3415 -0.7789
13595SOL     OW41627   4.511   8.101   5.641  0.0510 -0.4863  0.2545
13595SOL    HW141628   4.558   8.080   5.560  0.2983  2.0402 -0.3494
13595SOL    HW241629   4.425   8.131   5.612  1.1241  3.4582  0.4613
13596SOL     OW41630   6.959   1.025   6.406 -0.0469  0.7167 -0.0974
13596SOL    HW141631   7.022   1.090   6.376 -0.6389  0.9708 -0.8279
13596SOL    HW241632   6.934   0.977   6.327  0.2185 -0.2550  0.3997
13597SOL     OW41633   8.094   2.480   4.076 -0.7503 -0.3166 -0.2484
13597SOL    HW141634   8.141   2.481   3.993  0.5611 -2.4008  0.4141
13597SOL    HW241635   8.136   2.412   4.128 -2.2800  0.1250  1.7183
13598SOL     OW41636   4.055   4.976   3.298 -0.1583  0.0130  0.1311
13598SOL    HW141637   4.056   4.988   3.393 -1.1841  0.5847  0.0795
13598SOL    HW241638   4.042   5.064   3.262 -0.7116 -0.3151 -0.5038
13599SOL     OW41639   3.646   1.839   3.563 -0.4194 -0.2017  0.9211
13599SOL    HW141640   3.607   1.912   3.610 -0.8527  0.5904 -0.6029
13599SOL    HW241641   3.613   1.761   3.607 -1.4563  0.4946  1.4052
13600SOL     OW41642   0.712   0.145   5.376 -0.0451  0.2061 -0.2027
13600SOL    HW141643   0.724   0.197   5.455 -0.0857 -0.7875  0.4643
13600SOL    HW241644   0.788   0.086   5.374  0.8141  1.2742 -1.7558
13601SOL     OW41645   2.858   4.981   2.807  0.2702  0.0801 -0.2181
13601SOL    HW141646   2.866   5.068   2.768 -0.0590 -0.0041 -0.4769
13601SOL    HW241647   2.868   4.995   2.901 -2.1287  0.7324 -0.0062
13602SOL     OW41648   6.441   3.302   5.352  0.2053  0.1992 -0.3827
13602SOL    HW141649   6.364   3.271   5.398 -0.4627  1.9650 -0.2190
13602SOL    HW241650   6.441   3.254   5.269 -2.1555  1.4148 -1.1858
13603SOL     OW41651   4.859   4.719   7.461 -0.7125 -0.0401  0.1746
13603SOL    HW141652   4.817   4.697   7.544  1.6679 -0.1887  1.4326
13603SOL    HW241653   4.852   4.639   7.409 -2.1426  0.0245  0.2269
13604SOL     OW41654   2.356   5.769   0.942  0.5674 -0.0798  0.1551
13604SOL    HW141655   2.298   5.695   0.959 -1.0359  1.2538  0.8354
13604SOL    HW241656   2.436   5.730   0.907 -0.4283 -2.0637 -0.0479
13605SOL     OW41657   5.357   1.593   5.513 -0.2506  0.7417 -0.1193
13605SOL    HW141658   5.312   1.594   5.597 -1.6313 -0.5279 -0.7924
13605SOL    HW241659   5.286   1.599   5.448  0.6571  0.0533 -1.2044
13606SOL     OW41660   0.298   2.549   4.665  0.4909 -0.2301 -0.2681
13606SOL    HW141661   0.270   2.470   4.619  2.3691 -0.3123 -1.3613
13606SOL    HW241662   0.314   2.613   4.595  2.4786 -0.0522  0.3109
13607SOL     OW41663   7.512   6.538   1.847 -0.0137 -0.2038  0.1120
13607SOL    HW141664   7.505   6.551   1.942  2.5965  1.6341  0.1427
13607SOL    HW241665   7.567   6.460   1.838 -0.1818 -0.3219  0.1099
13608SOL     OW41666   0.566   5.276   3.361 -0.3757  0.1401 -0.3149
13608SOL    HW141667   0.556   5.234   3.276  0.8095  0.6519 -0.7325
13608SOL    HW241668   0.566   5.370   3.342 -1.4832  0.3132  0.4268
13609SOL     OW41669   3.324   6.833   1.523  0.5468  0.0715  0.1098
13609SOL    HW141670   3.330   6.742   1.552  1.5165  0.0163 -0.2096
13609SOL    HW241671   3.342   6.885   1.601 -1.9930  0.0812  0.7842
13610SOL     OW41672   3.744   4.457   1.921  0.2676  0.3833  0.5457
13610SOL    HW141673   3.679   4.522   1.895 -0.9557 -1.4740 -1.4311
13610SOL    HW241674   3.705   4.412   1.996 -0.1496  0.1306  0.1810
13611SOL     OW41675   2.030   0.657   0.106 -0.2878 -0.0650  0.6809
13611SOL    HW141676   2.051   0.572   0.144 -0.3595  0.3055  1.5800
13611SOL    HW241677   2.038   0.644   0.011  1.2347 -0.6595  0.8658
13612SOL     OW41678   6.384   3.069   2.095  0.2399  0.6680  0.3973
13612SOL    HW141679   6.298   3.092   2.059 -1.0343 -2.9044  0.8219
13612SOL    HW241680   6.438   3.052   2.018 -0.4582 -0.3249  0.1088
13613SOL     OW41681   4.620   4.508   6.630 -0.2030 -0.1178  0.0994
13613SOL    HW141682   4.533   4.547   6.644 -0.2036 -0.4369  1.0911
13613SOL    HW241683   4.657   4.559   6.558 -1.6058 -0.6525 -1.0501
13614SOL     OW41684   4.906   7.214   6.743 -0.1411  0.0052 -0.6130
13614SOL    HW141685   4.857   7.133   6.732 -1.0262  0.3526  0.5700
13614SOL    HW241686   4.991   7.197   6.702  0.0932 -1.9027  0.5580
13615SOL     OW41687   4.068   4.969   4.971 -0.5341  0.0891  0.6687
13615SOL    HW141688   4.152   4.998   4.934 -0.4823  0.7443  1.2570
13615SOL    HW241689   4.079   4.875   4.985  0.2819  0.2456  1.1611
13616SOL     OW41690   7.231   1.072   4.104 -0.0255 -0.0065  0.1614
13616SOL    HW141691   7.222   1.122   4.185 -0.2857  0.5362 -0.1975
13616SOL    HW241692   7.220   1.137   4.034 -2.6445 -0.8747 -0.3504
13617SOL     OW41693   7.694   1.867   5.293 -0.4906  0.2442  0.0283
13617SOL    HW141694   7.687   1.927   5.367  0.8435  0.3313  0.0993
13617SOL    HW241695   7.692   1.924   5.216  0.7530  0.3888  0.0948
13618SOL     OW41696   1.836   3.603   1.586  0.3480 -0.3984  0.0830
13618SOL    HW141697   1.819   3.519   1.544 -3.3205  0.4439 -0.5375
13618SOL    HW241698   1.887   3.652   1.522  1.1531 -1.5841 -0.2140
13619SOL     OW41699   6.796   4.725   7.684 -0.5766 -0.0368  0.1198
13619SOL    HW141700   6.863   4.661   7.705 -0.6931 -0.7336 -1.4786
13619SOL    HW241701   6.844   4.800   7.649 -0.5333  0.1479  0.5709
13620SOL     OW41702   5.975   6.524   2.131  0.1765 -0.3476 -0.6998
13620SOL    HW141703   6.025   6.484   2.060  0.0536  0.2994 -1.1615
13620SOL    HW241704   6.038   6.576   2.179 -0.5571  3.4564 -3.4206
13621SOL     OW41705   2.857   6.051   6.005  0.2311 -0.3994  0.3859
13621SOL    HW141706   2.869   5.971   5.953 -0.3581 -0.0788 -0.2552
13621SOL    HW241707   2.801   6.107   5.951 -0.1791  0.0502  1.2520
13622SOL     OW41708   2.089   4.770   6.126 -0.1077  0.1492  0.6534
13622SOL    HW141709   2.042   4.762   6.043 -0.2747  0.6222  0.6970
13622SOL    HW241710   2.170   4.816   6.103  0.3726 -0.7139  0.5684
13623SOL     OW41711   3.554   2.790   4.496  0.1038 -0.7571 -0.4370
13623SOL    HW141712   3.603   2.777   4.577  1.4521  1.2749 -0.8479
13623SOL    HW241713   3.612   2.843   4.441 -1.4024 -0.7572 -2.1160
13624SOL     OW41714   2.802   5.556   0.775 -0.3663 -0.2362  0.0623
13624SOL    HW141715   2.854   5.477   0.760  1.4244  1.1009 -1.2024
13624SOL    HW241716   2.793   5.561   0.870  2.0226 -0.4696  0.3605
13625SOL     OW41717   2.137   1.673   4.393  0.4823 -0.2660  0.0079
13625SOL    HW141718   2.109   1.589   4.428  0.2051 -0.2440 -0.1498
13625SOL    HW241719   2.127   1.664   4.298 -0.9214  0.4042  0.0595
13626SOL     OW41720   3.976   3.163   1.553  0.4960 -0.0210  0.0509
13626SOL    HW141721   3.954   3.123   1.637 -0.1238  0.8272  0.3067
13626SOL    HW241722   3.988   3.255   1.573  2.6478 -0.1690 -0.3974
13627SOL     OW41723   2.132   5.929   0.002  0.3547  0.5152 -0.1527
13627SOL    HW141724   2.142   5.834  -0.002 -0.5487  0.4477 -1.0568
13627SOL    HW241725   2.049   5.947  -0.042  2.3488  2.0478 -3.7373
13628SOL     OW41726   3.539   5.668   3.003  0.5189  0.1420  0.4041
13628SOL    HW141727   3.494   5.753   2.993  1.4764  0.8413  1.7746
13628SOL    HW241728   3.586   5.675   3.086  0.5255 -1.8012  0.6113
13629SOL     OW41729   5.948   4.564   3.140 -0.0865  0.1293 -0.0175
13629SOL    HW141730   5.974   4.472   3.127  0.0701 -0.2864  2.6530
13629SOL    HW241731   5.861   4.570   3.101  0.2645 -0.8905 -1.0242
13630SOL     OW41732   0.785   0.718   6.045 -0.1958  0.5486  0.0584
13630SOL    HW141733   0.827   0.708   6.131  1.3686  0.8844 -0.6257
13630SOL    HW241734   0.790   0.632   6.005 -2.5046 -0.0599  0.9336
13631SOL     OW41735   2.157   7.211   4.865 -0.2800 -0.0231  0.4483
13631SOL    HW141736   2.090   7.278   4.850  0.2993  0.7490  1.1613
13631SOL    HW241737   2.138   7.178   4.952 -1.2407 -1.6306 -0.3291
13632SOL     OW41738   5.926   2.692   6.396  0.0663 -0.0732  0.4815
13632SOL    HW141739   5.881   2.755   6.452 -0.0841 -0.6117  0.9724
13632SOL    HW241740   5.858   2.632   6.368 -0.3197  1.4159 -2.0863
13633SOL     OW41741   2.873   3.572   4.667 -0.7513 -0.0511 -0.0133
13633SOL    HW141742   2.902   3.563   4.758  0.8594  1.9879 -0.2589
13633SOL    HW241743   2.910   3.496   4.622  0.2765  0.0551  0.6306
13634SOL     OW41744   4.943   5.337   2.752 -0.4168  0.7898  0.6721
13634SOL    HW141745   4.952   5.276   2.825 -3.2420  0.1193  0.5528
13634SOL    HW241746   5.033   5.356   2.726  0.5943 -1.8270  1.9344
13635SOL     OW41747   4.605   7.817   2.577 -0.5524 -0.2388  0.1954
13635SOL    HW141748   4.513   7.844   2.578 -0.1980  1.0806  1.2330
13635SOL    HW241749   4.623   7.791   2.667  0.2975  0.3326  0.2062
13636SOL     OW41750   1.582   4.232   7.849  0.2280 -0.1396  0.0529
13636SOL    HW141751   1.648   4.299   7.867 -1.0369  0.5410  2.5114
13636SOL    HW241752   1.632   4.151   7.840  1.5114  0.5624  0.6324
13637SOL     OW41753   1.590   7.303   1.091  0.0108  0.1390  0.8195
13637SOL    HW141754   1.500   7.333   1.076  0.4547  0.6548 -1.1087
13637SOL    HW241755   1.630   7.371   1.144  0.7254  2.7702 -2.6984
13638SOL     OW41756   6.872   4.769   6.778  0.3859  0.2233  0.2602
13638SOL    HW141757   6.839   4.758   6.867  0.7252  1.9026  0.6325
13638SOL    HW241758   6.966   4.752   6.785  0.8946  2.8199  0.8178
13639SOL     OW41759   7.005   8.126   1.166 -0.1163 -0.3883 -0.0507
13639SOL    HW141760   7.033   8.172   1.087 -1.5285 -0.3140 -0.5382
13639SOL    HW241761   7.082   8.128   1.224  0.7681  0.0137 -1.2032
13640SOL     OW41762   6.322   0.162   2.749  0.0981 -0.6786 -0.1678
13640SOL    HW141763   6.315   0.257   2.760 -0.9557 -0.5942 -1.2824
13640SOL    HW241764   6.295   0.146   2.658  0.2639 -2.0434 -0.0050
13641SOL     OW41765   0.203   4.112   1.070  0.1737 -0.3398 -0.4399
13641SOL    HW141766   0.252   4.139   0.992 -1.0190  0.5049 -0.9286
13641SOL    HW241767   0.143   4.044   1.039 -1.0122  0.7070 -0.5055
13642SOL     OW41768   6.686   1.863   0.639 -0.7306  0.2942 -0.2711
13642SOL    HW141769   6.752   1.875   0.708 -0.2403  0.1641 -0.7049
13642SOL    HW241770   6.675   1.951   0.602 -1.1109  0.3936  0.0752
13643SOL     OW41771   6.591   6.796   4.527 -0.3193  0.3550 -0.5956
13643SOL    HW141772   6.519   6.859   4.515 -1.3047 -0.7729 -0.7588
13643SOL    HW241773   6.550   6.710   4.517  0.7899 -0.3652  0.7806
13644SOL     OW41774   3.180   6.473   1.400  0.3177 -0.3608  0.0462
13644SOL    HW141775   3.127   6.459   1.478  0.4633  2.4544  0.7457
13644SOL    HW241776   3.270   6.472   1.432  0.3108  3.7006  0.6041
13645SOL     OW41777   6.813   3.023   7.767  0.3192 -0.0052  0.2182
13645SOL    HW141778   6.823   3.037   7.673  0.0627 -0.6043  0.1034
13645SOL    HW241779   6.873   3.087   7.807  2.1780 -1.2916 -0.4016
13646SOL     OW41780   4.871   2.948   1.613 -0.2658 -0.1983  0.4855
13646SOL    HW141781   4.796   2.911   1.661  0.1036 -0.9282  0.5109
13646SOL    HW241782   4.906   3.014   1.672 -1.0964  0.4088  0.3302
13647SOL     OW41783   3.644   1.124   3.306  0.2038 -0.4165  0.3133
13647SOL    HW141784   3.593   1.046   3.284  0.0481 -0.8416  1.9898
13647SOL    HW241785   3.581   1.181   3.350  0.7951 -0.2462  0.9477
13648SOL     OW41786   5.165   8.120   5.280  0.0251  0.4776  0.2164
13648SOL    HW141787   5.235   8.074   5.233 -0.7009 -0.3782 -0.0441
13648SOL    HW241788   5.085   8.095   5.234 -0.3750  2.1964 -0.0910
13649SOL     OW41789   7.347   2.363   1.247 -0.0231 -0.2863 -0.1182
13649SOL    HW141790   7.272   2.360   1.306 -0.4629  0.5339 -0.6086
13649SOL    HW241791   7.315   2.323   1.166 -0.3205  1.0578 -0.7072
13650SOL     OW41792   6.458   6.843   5.604 -0.5212 -0.1891  0.2349
13650SOL    HW141793   6.516   6.807   5.537  2.1677  1.3764  1.5484
13650SOL    HW241794   6.455   6.937   5.585  0.5124  0.3352  2.3352
13651SOL     OW41795   1.993   0.818   1.159  0.0936  0.0993 -0.4704
13651SOL    HW141796   2.020   0.728   1.179 -0.0078  0.6293  2.5069
13651SOL    HW241797   1.898   0.812   1.148 -0.2365  0.0729  1.8889
13652SOL     OW41798   3.375   4.554   1.098 -0.5163 -0.0077  0.2598
13652SOL    HW141799   3.391   4.461   1.082  0.8579  0.4935 -1.5131
13652SOL    HW241800   3.286   4.568   1.066 -0.2355 -0.4489 -0.7595
13653SOL     OW41801   7.994   7.333   3.918 -0.0989  0.1258  0.3351
13653SOL    HW141802   7.987   7.245   3.953  1.2124 -0.0218  0.2854
13653SOL    HW241803   8.003   7.320   3.823 -0.7089  0.3618  0.2412
13654SOL     OW41804   7.514   4.156   5.648  0.4961 -0.2008 -0.4584
13654SOL    HW141805   7.553   4.191   5.568 -0.8065  1.4287 -0.4268
13654SOL    HW241806   7.430   4.120   5.620  0.2964 -0.1596  0.0762
13655SOL     OW41807   6.617   5.869   6.936  0.0139 -0.0195 -0.1003
13655SOL    HW141808   6.607   5.815   7.014 -0.8672 -0.8337 -0.7506
13655SOL    HW241809   6.712   5.869   6.918  0.0645 -1.0528  0.1215
13656SOL     OW41810   4.426   1.165   2.229 -0.1868  0.4044 -0.4282
13656SOL    HW141811   4.374   1.088   2.208  0.9137 -0.3438 -0.5015
13656SOL    HW241812   4.465   1.191   2.146  1.3799 -0.4569 -0.0078
13657SOL     OW41813   2.008   4.044   1.833  0.2165 -0.7894 -0.1891
13657SOL    HW141814   2.077   4.003   1.780  0.1859 -1.7297  0.4620
13657SOL    HW241815   1.934   4.053   1.773  0.4925 -0.9602 -0.5625
13658SOL     OW41816   2.991   0.708   1.176  0.6689 -0.1419 -0.1349
13658SOL    HW141817   3.007   0.771   1.106 -1.8124  0.8574  0.1076
13658SOL    HW241818   2.903   0.676   1.160  0.5766 -0.9571  1.7456
13659SOL     OW41819   0.131   0.656   7.879  0.4414 -0.4142  0.0054
13659SOL    HW141820   0.062   0.710   7.839  0.5559  0.3285  0.7880
13659SOL    HW241821   0.097   0.567   7.874 -1.0585  0.0441  1.3305
13660SOL     OW41822   3.715   0.355   5.297 -0.0509  0.2429 -0.4908
13660SOL    HW141823   3.794   0.304   5.283  0.1957  0.0872  1.2653
13660SOL    HW241824   3.745   0.437   5.336 -0.7202  0.4200 -0.3301
13661SOL     OW41825   5.191   2.980   4.466  0.5254  0.5589  0.8398
13661SOL    HW141826   5.150   3.064   4.486 -0.8656  0.6115 -1.7863
13661SOL    HW241827   5.120   2.926   4.431  2.4447  0.6802 -4.0437
13662SOL     OW41828   7.619   7.287   3.501  0.0700 -0.3474  0.2149
13662SOL    HW141829   7.636   7.240   3.583 -3.1839 -2.5875 -0.2031
13662SOL    HW241830   7.574   7.367   3.528 -1.1731 -1.1709  0.7010
13663SOL     OW41831   1.906   6.524   4.744 -0.0094 -0.2894  0.2062
13663SOL    HW141832   1.828   6.562   4.704  1.2023  1.6479 -0.4532
13663SOL    HW241833   1.889   6.526   4.838 -1.6148 -1.9756  0.0015
13664SOL     OW41834   0.949   8.022   2.931 -0.1260 -0.2078 -0.0471
13664SOL    HW141835   0.920   8.069   2.852  3.3284 -0.6280 -1.7551
13664SOL    HW241836   0.883   7.954   2.943  0.0339 -1.2626 -3.7531
13665SOL     OW41837   0.824   4.064   7.471 -0.0297  0.2641  0.5628
13665SOL    HW141838   0.843   4.027   7.557  1.3091  2.7275  1.4271
13665SOL    HW241839   0.875   4.146   7.468 -1.7766  1.3901 -1.6880
13666SOL     OW41840   5.089   2.239   7.782 -0.3326  0.8908 -1.0278
13666SOL    HW141841   5.141   2.167   7.819 -1.3053  0.6472 -0.0580
13666SOL    HW241842   5.153   2.297   7.742  0.4710 -0.6445 -2.1027
13667SOL     OW41843   6.558   3.389   0.892  0.0263  0.2077  0.0282
13667SOL    HW141844   6.522   3.364   0.807  0.9026  0.4690 -0.4299
13667SOL    HW241845   6.510   3.336   0.955  0.1045 -0.7619 -0.7123
13668SOL     OW41846   5.426   8.034   6.388 -0.0770  0.3352 -0.2435
13668SOL    HW141847   5.330   8.033   6.392 -0.1704  2.3289 -0.8669
13668SOL    HW241848   5.446   8.028   6.295  0.5259 -1.9683 -0.0268
13669SOL     OW41849   1.581   1.831   4.559 -0.1480 -0.3750  0.4117
13669SOL    HW141850   1.528   1.757   4.530 -1.1297  0.5869 -0.3643
13669SOL    HW241851   1.576   1.893   4.486  0.4727  0.5341  1.1289
13670SOL     OW41852   4.420   0.989   7.518 -0.6646 -0.6684  0.0106
13670SOL    HW141853   4.503   0.967   7.559 -0.6495 -0.8773 -0.1329
13670SOL    HW241854   4.369   1.029   7.589 -0.8333 -1.5130  0.3804
13671SOL     OW41855   2.805   6.345   1.103  0.2142 -0.1528 -0.2104
13671SOL    HW141856   2.859   6.419   1.133  0.8128 -0.9020  0.5926
13671SOL    HW241857   2.762   6.378   1.024 -0.0086  1.2671  0.4643
13672SOL     OW41858   7.554   1.186   2.262 -0.2904 -0.1449 -0.0637
13672SOL    HW141859   7.608   1.108   2.279 -2.2607 -1.9207 -1.4841
13672SOL    HW241860   7.504   1.199   2.343 -1.5245 -1.7345 -0.5274
13673SOL     OW41861   2.262   6.698   1.470 -0.3952  0.1508 -0.2681
13673SOL    HW141862   2.232   6.741   1.390  0.5777  0.5584 -0.4330
13673SOL    HW241863   2.354   6.677   1.453 -0.1472  0.3161  0.7666
13674SOL     OW41864   6.273   1.905   7.526  0.2878 -0.2056  0.0006
13674SOL    HW141865   6.344   1.845   7.550  0.3130  0.0988  0.7379
13674SOL    HW241866   6.194   1.866   7.563 -0.0701 -0.9143 -1.4397
13675SOL     OW41867   4.745   0.872   4.205  0.2350 -0.3274  0.4293
13675SOL    HW141868   4.692   0.860   4.284 -1.7335 -1.4583 -0.9910
13675SOL    HW241869   4.682   0.878   4.134  1.9375  0.9961 -1.0777
13676SOL     OW41870   3.900   1.984   6.597 -0.2276 -0.0316  0.3440
13676SOL    HW141871   3.809   1.957   6.583 -1.0207  1.9033  1.4232
13676SOL    HW241872   3.952   1.906   6.575 -2.1457 -1.2782  0.0101
13677SOL     OW41873   2.709   3.133   0.401 -0.3064  0.7490  0.0610
13677SOL    HW141874   2.680   3.159   0.489 -1.1349 -1.1052  0.3690
13677SOL    HW241875   2.698   3.038   0.399 -0.8564  0.8222 -2.2683
13678SOL     OW41876   7.398   7.409   2.943 -0.4249 -0.0585  0.5627
13678SOL    HW141877   7.344   7.331   2.958  1.2346 -1.2130  0.8387
13678SOL    HW241878   7.470   7.400   3.005  0.5810  0.9540 -0.4228
13679SOL     OW41879   3.897   0.405   0.054 -0.0192 -0.7639 -0.3342
13679SOL    HW141880   3.992   0.409   0.042 -0.1037  0.4146 -0.7747
13679SOL    HW241881   3.884   0.346   0.128  1.0793 -0.6516 -0.0354
13680SOL     OW41882   3.297   4.996   5.152 -0.0234  0.3253 -0.4890
13680SOL    HW141883   3.347   5.007   5.071 -0.4957  2.2568 -0.5524
13680SOL    HW241884   3.206   4.990   5.123 -0.1228  0.1363 -0.1446
13681SOL     OW41885   4.595   3.927   3.390  0.2613 -0.5923 -0.7967
13681SOL    HW141886   4.579   3.959   3.479  0.6881 -0.4787 -0.7607
13681SOL    HW241887   4.511   3.941   3.345  0.5931  1.1687 -0.9619
13682SOL     OW41888   3.880   0.072   6.826  0.4162 -0.3176 -0.3734
13682SOL    HW141889   3.970   0.044   6.842  0.8494  1.1657 -0.1021
13682SOL    HW241890   3.879   0.098   6.734  0.7848  1.3871  0.0607
13683SOL     OW41891   2.031   5.958   1.714  0.2791 -0.0828 -0.1630
13683SOL    HW141892   2.043   5.875   1.667 -0.2480 -0.1914 -0.1170
13683SOL    HW241893   2.118   5.979   1.749  0.2231 -1.1085  0.6367
13684SOL     OW41894   1.253   3.154   0.328  0.3603 -0.0963  0.5658
13684SOL    HW141895   1.324   3.172   0.389  0.5213 -2.8391  1.3179
13684SOL    HW241896   1.174   3.163   0.381  0.4420 -1.4203  0.9483
13685SOL     OW41897   5.680   6.440   7.534 -0.1261  0.0611  0.6268
13685SOL    HW141898   5.597   6.400   7.559 -0.0961 -0.3428  0.0857
13685SOL    HW241899   5.663   6.534   7.538 -0.4057 -0.0057  1.1853
13686SOL     OW41900   5.742   2.331   1.448  0.2518  0.2626  0.2917
13686SOL    HW141901   5.785   2.247   1.466 -0.0820 -0.1405 -0.7039
13686SOL    HW241902   5.675   2.310   1.382 -1.3023  0.9167  1.5785
13687SOL     OW41903   7.528   1.051   7.727 -0.3141 -0.4268 -0.0660
13687SOL    HW141904   7.466   1.044   7.800  0.1451 -0.4125  0.3309
13687SOL    HW241905   7.472   1.054   7.649 -0.9027  1.6387  0.3778
13688SOL     OW41906   5.843   2.388   0.239 -0.0460 -0.1444  0.4423
13688SOL    HW141907   5.777   2.424   0.180 -0.6230  0.4105  1.3844
13688SOL    HW241908   5.923   2.433   0.215  0.2935 -1.6608 -1.4834
13689SOL     OW41909   1.909   0.948   1.557  0.1061 -0.4123 -0.2944
13689SOL    HW141910   1.871   0.930   1.643  1.4596 -0.0700  0.3895
13689SOL    HW241911   1.943   0.863   1.528 -0.5704 -0.5814 -0.6224
13690SOL     OW41912   4.185   3.184   3.507 -0.1202 -0.4034  0.0635
13690SOL    HW141913   4.260   3.240   3.488  1.1611 -2.3724 -0.9427
13690SOL    HW241914   4.187   3.116   3.440 -0.6953 -2.5466  2.0569
13691SOL     OW41915   6.772   1.304   4.339  1.0653  0.0111 -0.5055
13691SOL    HW141916   6.685   1.306   4.298  0.5380  0.0397  0.5940
13691SOL    HW241917   6.831   1.277   4.268  0.1431 -0.1722 -1.2224
13692SOL     OW41918   0.810   6.288   8.166 -0.7678  0.3348 -0.2114
13692SOL    HW141919   0.750   6.269   8.238 -2.4625  1.6760 -1.1955
13692SOL    HW241920   0.850   6.372   8.189 -0.9306  0.5147 -0.5624
13693SOL     OW41921   1.978   4.758   5.872 -0.5455 -0.0570 -0.3959
13693SOL    HW141922   1.913   4.762   5.801  1.5524  0.1296 -2.4470
13693SOL    HW241923   2.053   4.712   5.833  0.2741 -1.0572  2.1332
13694SOL     OW41924   7.629   3.908   0.040 -0.2639  0.2538 -0.0155
13694SOL    HW141925   7.630   3.981   0.102  0.5021  0.3569 -0.1343
13694SOL    HW241926   7.644   3.948  -0.045 -1.3090  0.1104 -0.2702
13695SOL     OW41927   1.317   0.153   0.483  0.0065 -0.1355 -0.5173
13695SOL    HW141928   1.247   0.158   0.549 -0.6180  1.4431 -1.2395
13695SOL    HW241929   1.371   0.231   0.499 -0.4354  0.5518 -2.1277
13696SOL     OW41930   0.053   4.226   2.291  0.4234 -0.8467  0.4563
13696SOL    HW141931  -0.039   4.202   2.291 -0.1334  1.0689 -0.8779
13696SOL    HW241932   0.086   4.193   2.207  0.4335  0.1818  0.0431
13697SOL     OW41933   7.482   1.057   1.096 -0.8875  0.1910 -0.0345
13697SOL    HW141934   7.499   1.074   1.188  1.0019 -0.2964 -0.2602
13697SOL    HW241935   7.390   1.081   1.084 -0.9283  1.0846  1.7584
13698SOL     OW41936   6.761   7.865   2.156 -0.3301 -0.4891 -0.3825
13698SOL    HW141937   6.752   7.938   2.095 -0.0355  0.3560  0.5639
13698SOL    HW241938   6.856   7.854   2.165 -0.3745 -0.8362 -0.3325
13699SOL     OW41939   2.480   3.161   8.198 -0.4829  0.0248 -0.1547
13699SOL    HW141940   2.559   3.212   8.216 -0.6197  0.3483 -0.4568
13699SOL    HW241941   2.467   3.109   8.277  0.1403 -0.1717 -0.1701
13700SOL     OW41942   7.917   4.368   7.059  0.0474  0.5037  0.0270
13700SOL    HW141943   7.830   4.385   7.096 -0.2150  1.3626 -0.9664
13700SOL    HW241944   7.900   4.329   6.974  0.6590 -0.4559  0.3225
13701SOL     OW41945   7.069   8.015   6.649 -0.2447  0.3907 -0.7609
13701SOL    HW141946   7.024   8.028   6.732  0.0667 -1.3413 -0.2816
13701SOL    HW241947   7.090   8.103   6.619 -1.0349  1.0765  0.6165
13702SOL     OW41948   6.181   0.689   1.976 -0.3264  0.1377 -0.1312
13702SOL    HW141949   6.209   0.721   1.890 -0.8212 -1.1558 -0.8058
13702SOL    HW241950   6.154   0.599   1.960  1.7287 -0.8989  1.8225
13703SOL     OW41951   5.551   0.897   2.185  0.0875  0.4770 -0.2721
13703SOL    HW141952   5.461   0.876   2.209  0.5225 -0.2570  0.8505
13703SOL    HW241953   5.591   0.925   2.267  0.8695  0.8253 -0.7638
13704SOL     OW41954   0.034   3.221   2.634  0.3025  0.2974 -0.5062
13704SOL    HW141955   0.076   3.142   2.668 -0.6464  0.0331  0.1125
13704SOL    HW241956   0.067   3.229   2.544  1.4699 -0.0118 -0.1135
13705SOL     OW41957   4.821   6.155   1.909 -0.1544  0.1288  0.1191
13705SOL    HW141958   4.845   6.197   1.991 -0.1955  0.6516 -0.1338
13705SOL    HW241959   4.815   6.062   1.930  0.7831  0.1437  0.4854
13706SOL     OW41960   7.903   3.848   6.047 -0.1942  0.1094  0.7368
13706SOL    HW141961   7.855   3.931   6.056 -0.7507  0.0217 -1.0630
13706SOL    HW241962   7.835   3.780   6.051 -0.0299 -0.1127 -0.1843
13707SOL     OW41963   6.641   0.654   8.133 -0.0958  0.3351 -0.2536
13707SOL    HW141964   6.652   0.666   8.227  0.4678 -0.9328 -0.1415
13707SOL    HW241965   6.721   0.691   8.095 -0.3045  0.8086 -0.2435
13708SOL     OW41966   1.123   3.430   1.442  0.0559  0.2271 -0.0071
13708SOL    HW141967   1.060   3.456   1.374 -0.9225  0.3108  0.9008
13708SOL    HW241968   1.145   3.511   1.487 -0.1931  0.0210  0.4997
13709SOL     OW41969   2.599   5.447   5.455 -0.2436 -0.2019 -0.0498
13709SOL    HW141970   2.677   5.395   5.472  0.9367  2.1730  2.7832
13709SOL    HW241971   2.625   5.508   5.386  0.0312 -0.1773  0.0747
13710SOL     OW41972   4.944   6.819   6.675 -0.0279  0.1384 -0.2824
13710SOL    HW141973   5.033   6.848   6.693  0.3673  0.4964 -2.5294
13710SOL    HW241974   4.888   6.879   6.725  0.9290  1.7175 -1.0375
13711SOL     OW41975   4.402   0.875   6.184 -0.6777  0.4028 -0.6187
13711SOL    HW141976   4.461   0.894   6.111  0.7901 -1.7019 -0.0683
13711SOL    HW241977   4.353   0.798   6.156 -1.4412  0.6840 -0.0913
13712SOL     OW41978   6.709   7.566   2.064  0.8015 -0.8314  0.3463
13712SOL    HW141979   6.745   7.551   2.152  0.1605  0.0206  0.7642
13712SOL    HW241980   6.621   7.599   2.079  0.7778 -0.4180 -0.6160
13713SOL     OW41981   4.792   8.138   5.515  0.3183  0.0025  0.4389
13713SOL    HW141982   4.736   8.207   5.482 -1.3325 -1.2652  0.4714
13713SOL    HW241983   4.861   8.184   5.563  0.4688  1.6872 -1.2639
13714SOL     OW41984   0.280   7.827   6.025  0.4895 -0.1416  0.0435
13714SOL    HW141985   0.345   7.897   6.029  0.6756  0.2715 -4.5813
13714SOL    HW241986   0.330   7.746   6.037  0.7479  0.2869  2.3825
13715SOL     OW41987   3.448   1.934   7.129 -0.3806  0.3765 -0.3135
13715SOL    HW141988   3.385   1.999   7.097 -1.3249 -0.9331 -1.1834
13715SOL    HW241989   3.398   1.854   7.138  0.7154 -0.2076  0.9939
13716SOL     OW41990   1.757   6.302   1.758  0.1763 -0.3337 -0.6167
13716SOL    HW141991   1.676   6.328   1.715 -0.8967 -1.0497  0.8547
13716SOL    HW241992   1.734   6.298   1.851  1.6430 -1.4829 -0.2679
13717SOL     OW41993   1.376   4.951   3.467  0.3074 -0.2071  0.6933
13717SOL    HW141994   1.288   4.958   3.429  0.1620  0.8811  1.1704
13717SOL    HW241995   1.366   4.984   3.556  1.6235  2.2917  0.0423
13718SOL     OW41996   4.039   1.288   4.712  0.1820  0.3874 -0.1401
13718SOL    HW141997   4.124   1.261   4.676 -0.1699  0.1703 -0.8251
13718SOL    HW241998   3.998   1.206   4.740  1.3175  0.6994  2.7995
13719SOL     OW41999   5.341   4.212   1.775  0.1284  0.4646 -0.4163
13719SOL    HW142000   5.323   4.266   1.852 -0.1152  0.6182 -0.5803
13719SOL    HW242001   5.339   4.122   1.808 -2.0300  0.3957 -0.6193
13720SOL     OW42002   5.765   4.548   0.933  0.0249  0.0212 -0.6182
13720SOL    HW142003   5.747   4.471   0.880 -0.0388  0.4910 -1.2928
13720SOL    HW242004   5.694   4.609   0.913  1.2889  1.1747 -1.8983
13721SOL     OW42005   5.201   3.823   7.427 -0.3505  0.5298  0.1517
13721SOL    HW142006   5.245   3.738   7.436  0.8160  1.0817 -0.1751
13721SOL    HW242007   5.167   3.822   7.337 -1.5140 -0.1148  0.5771
13722SOL     OW42008   2.209   5.717   4.726  0.1352  0.4145 -0.2110
13722SOL    HW142009   2.244   5.732   4.638  1.2244  0.2500  0.1706
13722SOL    HW242010   2.133   5.661   4.713 -0.1620  1.0091 -1.1077
13723SOL     OW42011   1.609   4.706   7.989 -0.6139  0.2290 -0.1292
13723SOL    HW142012   1.676   4.751   7.939  0.0262 -1.4218 -0.8354
13723SOL    HW242013   1.595   4.761   8.067  1.3784  0.7274 -0.0774
13724SOL     OW42014   2.574   3.895   7.204 -0.6500  0.1303  0.6292
13724SOL    HW142015   2.529   3.960   7.150 -0.1783  1.9966  2.3600
13724SOL    HW242016   2.513   3.822   7.209 -1.4439  0.6430 -0.9265
13725SOL     OW42017   1.334   0.980   4.595 -0.0447  0.6341  0.5593
13725SOL    HW142018   1.304   0.889   4.600 -0.1284  0.5801 -0.5678
13725SOL    HW242019   1.345   1.007   4.686  1.8717 -1.1078  0.9176
13726SOL     OW42020   2.320   5.457   5.458  0.2358  0.4083 -0.2383
13726SOL    HW142021   2.284   5.408   5.533 -1.2414 -0.2182 -1.3062
13726SOL    HW242022   2.415   5.450   5.467  0.1302  0.9783  1.9780
13727SOL     OW42023   0.309   2.806   1.046  0.0592 -0.4934  0.3368
13727SOL    HW142024   0.237   2.843   0.995  0.5195 -1.7322 -1.2905
13727SOL    HW242025   0.381   2.869   1.034 -0.2100 -0.1474  0.5122
13728SOL     OW42026   4.058   1.424   5.632 -0.7024 -0.8887  0.7110
13728SOL    HW142027   4.057   1.333   5.603  0.9008 -1.1436  1.3964
13728SOL    HW242028   4.060   1.474   5.551  1.2403 -1.5452  0.3088
13729SOL     OW42029   6.583   2.731   8.135  0.1198  0.3613 -0.5890
13729SOL    HW142030   6.676   2.726   8.159  0.8006 -0.3287 -3.0533
13729SOL    HW242031   6.553   2.815   8.171  1.4371  0.2087  0.9830
13730SOL     OW42032   7.680   5.838   7.865  0.0399 -0.3060  0.6675
13730SOL    HW142033   7.692   5.929   7.894  0.7887 -0.5979  1.3245
13730SOL    HW242034   7.621   5.800   7.930  0.6909 -0.6068  1.1014
13731SOL     OW42035   2.305   6.914   6.258 -0.1078  0.0197  0.1475
13731SOL    HW142036   2.226   6.967   6.247  0.2647  0.5583  0.0423
13731SOL    HW242037   2.284   6.831   6.216  0.0746  0.8496 -1.6890
13732SOL     OW42038   3.339   7.600   3.407  0.0588  0.3219  0.0707
13732SOL    HW142039   3.388   7.540   3.350 -2.2600 -2.4613  0.7575
13732SOL    HW242040   3.270   7.635   3.351  0.0599  0.5766  0.2287
13733SOL     OW42041   5.138   6.247   3.820  0.0775 -0.0965 -0.4918
13733SOL    HW142042   5.182   6.331   3.809  0.2143  0.7664  4.3867
13733SOL    HW242043   5.208   6.182   3.815  0.9056  0.6551  0.9542
13734SOL     OW42044   5.444   2.673   3.159  0.0861  0.1086  0.3462
13734SOL    HW142045   5.368   2.720   3.194  1.0051  1.7076  0.2497
13734SOL    HW242046   5.519   2.725   3.185  1.2346 -1.7315  0.9007
13735SOL     OW42047   6.631   3.317   5.853  0.1113  0.0430  0.4431
13735SOL    HW142048   6.658   3.229   5.827 -1.6091 -0.8784  1.5499
13735SOL    HW242049   6.587   3.353   5.776  3.4592  1.2528 -1.0970
13736SOL     OW42050   7.929   1.765   6.828  0.6458 -0.4563  0.7035
13736SOL    HW142051   8.008   1.717   6.803  1.4127  0.9758  0.2606
13736SOL    HW242052   7.959   1.828   6.894 -0.5691 -1.3728  2.1839
13737SOL     OW42053   3.563   5.907   8.161 -0.0829  0.3642  0.9273
13737SOL    HW142054   3.476   5.919   8.199 -0.3203 -1.3511  0.9994
13737SOL    HW242055   3.561   5.820   8.122  1.5909  0.3003  0.8831
13738SOL     OW42056   4.092   1.911   4.570  0.4153  0.0617  0.4021
13738SOL    HW142057   4.071   1.861   4.492 -3.4411  1.1900  0.5313
13738SOL    HW242058   4.106   1.846   4.639 -1.2607 -0.9178 -0.1432
13739SOL     OW42059   7.728   5.635   0.709  0.0039 -0.0876  0.2183
13739SOL    HW142060   7.723   5.579   0.632 -0.0613  2.7503 -1.9573
13739SOL    HW242061   7.647   5.616   0.757 -0.6135 -0.9466 -1.1001
13740SOL     OW42062   2.927   1.054   0.771  0.3007 -0.4250  0.6405
13740SOL    HW142063   2.847   1.008   0.794  0.3104 -0.5978  0.3321
13740SOL    HW242064   2.980   0.990   0.724 -0.3954  0.3669 -1.3242
13741SOL     OW42065   5.551   3.260   4.641 -0.8766 -0.0219  0.1887
13741SOL    HW142066   5.563   3.207   4.720 -1.0493  0.1607  0.3394
13741SOL    HW242067   5.527   3.347   4.674  1.8082  0.8663  0.0415
13742SOL     OW42068   5.393   8.203   2.487 -0.4798  0.0962 -0.1049
13742SOL    HW142069   5.484   8.207   2.459 -0.3918  0.4087  0.2283
13742SOL    HW242070   5.397   8.172   2.577 -0.7388 -0.4892 -0.2873
13743SOL     OW42071   5.406   3.583   8.114 -0.3432  0.6737  0.1830
13743SOL    HW142072   5.364   3.589   8.028 -2.5035 -0.7327  1.0550
13743SOL    HW242073   5.427   3.674   8.137  0.2662  1.0696 -1.7847
13744SOL     OW42074   2.065   2.613   1.444 -0.0489 -0.0285  0.1108
13744SOL    HW142075   2.155   2.591   1.469 -0.4942 -2.0228  0.1353
13744SOL    HW242076   2.011   2.558   1.500 -1.3225  1.2126  0.1553
13745SOL     OW42077   3.971   5.793   2.728 -0.4559 -0.7276 -0.2630
13745SOL    HW142078   3.975   5.697   2.726 -1.2405 -0.8209  1.1583
13745SOL    HW242079   3.912   5.813   2.801 -1.0038  0.8326 -1.0871
13746SOL     OW42080   1.585   0.121   2.987 -0.3973 -0.4070 -0.0199
13746SOL    HW142081   1.567   0.068   3.065 -0.1792 -2.5862 -1.4015
13746SOL    HW242082   1.513   0.102   2.928 -0.2274  0.7512 -0.6356
13747SOL     OW42083   7.050   7.906   1.535  0.8323 -0.0335 -0.3957
13747SOL    HW142084   7.062   7.819   1.573  0.5045 -0.1576 -0.5779
13747SOL    HW242085   6.967   7.937   1.571  0.1059 -0.4845 -1.6381
13748SOL     OW42086   1.603   0.329   4.337  0.2443 -0.1696 -0.3919
13748SOL    HW142087   1.513   0.325   4.307 -0.7060  0.2003  2.1687
13748SOL    HW242088   1.642   0.247   4.306 -0.9636 -0.3880 -1.4330
13749SOL     OW42089   0.709   5.030   6.857 -0.4332  0.5277 -0.1811
13749SOL    HW142090   0.799   4.999   6.849 -1.5597 -2.9680 -1.1550
13749SOL    HW242091   0.684   5.054   6.768 -1.5650 -2.3547 -0.7427
13750SOL     OW42092   5.618   4.296   2.997 -0.4369 -0.1645 -0.1303
13750SOL    HW142093   5.594   4.377   2.952  0.1546 -0.1382 -0.4191
13750SOL    HW242094   5.614   4.229   2.928  0.1446 -0.1827 -0.1552
13751SOL     OW42095   2.058   3.257   2.790  0.3389 -0.0238 -0.3672
13751SOL    HW142096   2.058   3.324   2.860 -1.1994 -1.0444  0.6798
13751SOL    HW242097   1.968   3.223   2.790  0.9672 -1.7895 -1.1644
13752SOL     OW42098   1.656   4.380   6.250 -0.0802  0.1383  0.1706
13752SOL    HW142099   1.640   4.305   6.193 -1.9179 -0.5974  1.5610
13752SOL    HW242100   1.609   4.452   6.208 -0.1138 -0.0096 -0.0493
13753SOL     OW42101   3.514   0.830   3.292  0.1953  0.8268 -0.3244
13753SOL    HW142102   3.420   0.811   3.292  0.6342 -2.0545  1.7625
13753SOL    HW242103   3.546   0.795   3.375  3.4183 -0.1093 -1.7709
13754SOL     OW42104   4.288   4.932   3.966 -0.0519 -0.5721  0.1755
13754SOL    HW142105   4.377   4.913   3.937 -0.3299 -0.9924 -0.4413
13754SOL    HW242106   4.238   4.854   3.942 -0.5414 -0.4279  0.7163
13755SOL     OW42107   4.145   1.828   7.381 -0.1056 -0.1301 -0.6603
13755SOL    HW142108   4.123   1.883   7.306 -2.1666  1.2381  0.8378
13755SOL    HW242109   4.068   1.833   7.437  0.1006 -3.6532  0.1376
13756SOL     OW42110   3.883   3.781   1.041  0.0599 -0.0782  0.1043
13756SOL    HW142111   3.876   3.686   1.039 -0.1197 -0.0647  0.0347
13756SOL    HW242112   3.973   3.799   1.069  0.1232 -0.2682  0.0193
13757SOL     OW42113   3.505   4.407   2.911  0.4008  0.1136  0.4770
13757SOL    HW142114   3.561   4.422   2.987 -0.6819  0.0803  1.3124
13757SOL    HW242115   3.420   4.442   2.937 -0.4082 -1.3502 -0.1143
13758SOL     OW42116   5.209   2.226   6.510 -0.4612  0.4326  0.0205
13758SOL    HW142117   5.283   2.287   6.511 -0.4319  0.3959  1.0673
13758SOL    HW242118   5.132   2.282   6.524 -0.4618  0.2665  0.6918
13759SOL     OW42119   5.671   3.573   3.431 -0.9215 -1.1377 -0.8033
13759SOL    HW142120   5.616   3.628   3.375 -1.9291 -2.5262 -1.2165
13759SOL    HW242121   5.722   3.520   3.371  2.7731  1.6776 -0.5566
13760SOL     OW42122   7.602   0.431   1.358  0.2798 -0.0778 -0.1471
13760SOL    HW142123   7.587   0.407   1.267 -0.8836  1.2828 -0.3481
13760SOL    HW242124   7.603   0.527   1.357 -0.2256 -0.0362  1.3323
13761SOL     OW42125   1.176   0.970   0.306 -0.0843  0.1762  0.0264
13761SOL    HW142126   1.114   0.947   0.237 -0.2409 -0.7845  0.4779
13761SOL    HW242127   1.258   0.988   0.260 -0.2036 -0.4000 -0.4116
13762SOL     OW42128   6.067   4.701   1.980 -0.4047 -0.2744  0.2513
13762SOL    HW142129   6.127   4.744   1.919  0.2148 -0.8102  0.4768
13762SOL    HW242130   6.044   4.769   2.042  0.0078 -0.0734  0.1899
13763SOL     OW42131   1.447   4.456   0.293  0.0093  0.3063 -0.5504
13763SOL    HW142132   1.398   4.421   0.368 -2.4950 -1.6079 -2.8557
13763SOL    HW242133   1.496   4.380   0.260  0.6517  0.9804 -1.1733
13764SOL     OW42134   6.193   4.622   4.641 -0.2704 -0.2400 -0.6503
13764SOL    HW142135   6.261   4.646   4.705 -0.7892  0.5509 -0.3816
13764SOL    HW242136   6.132   4.568   4.691 -0.4372 -0.0010 -0.5963
13765SOL     OW42137   7.208   2.079   3.075 -0.2838 -0.1565  0.0750
13765SOL    HW142138   7.298   2.079   3.042  0.9269  0.4462  3.0689
13765SOL    HW242139   7.187   2.171   3.088 -0.7570 -0.3589  0.8083
13766SOL     OW42140   8.023   7.799   2.377  0.6657 -0.2373  0.1647
13766SOL    HW142141   7.946   7.838   2.419  0.5854  1.3597 -1.3454
13766SOL    HW242142   8.087   7.791   2.447  0.2526  1.5382  0.7807
13767SOL     OW42143   0.407   8.189   7.263  0.8762  0.3382  0.2685
13767SOL    HW142144   0.470   8.258   7.243  1.4576  0.0435  1.0385
13767SOL    HW242145   0.453   8.108   7.241  0.4140  0.1532 -0.0572
13768SOL     OW42146   5.185   7.650   7.597  0.2262 -0.1696  0.0710
13768SOL    HW142147   5.157   7.568   7.559 -0.4968 -0.8133  1.9013
13768SOL    HW242148   5.279   7.639   7.611  0.7992  0.5883 -2.6327
13769SOL     OW42149   4.245   3.074   7.027 -0.4880  0.3931 -0.3183
13769SOL    HW142150   4.340   3.064   7.036 -0.2112  1.3751 -1.7069
13769SOL    HW242151   4.232   3.097   6.935 -2.3882 -2.6815 -0.9507
13770SOL     OW42152   3.155   2.191   5.966 -0.1963 -0.0604 -0.0409
13770SOL    HW142153   3.227   2.249   5.993 -0.5039  0.8116 -1.0427
13770SOL    HW242154   3.192   2.137   5.897 -0.1126 -0.5893  0.4101
13771SOL     OW42155   2.768   6.611   6.011 -0.2587  0.0708  0.3055
13771SOL    HW142156   2.813   6.528   5.995 -1.4493 -0.6543  0.5298
13771SOL    HW242157   2.679   6.585   6.036 -0.4772  1.4045  1.0079
13772SOL     OW42158   5.758   6.056   6.057 -0.1073  0.3323  0.8953
13772SOL    HW142159   5.803   6.120   6.112  0.9672 -0.2613  0.7383
13772SOL    HW242160   5.764   6.093   5.968  2.0374 -0.7261  0.5242
13773SOL     OW42161   5.562   3.615   7.095 -0.3755  0.2471  0.3776
13773SOL    HW142162   5.556   3.521   7.079  0.8815  0.2944 -0.5371
13773SOL    HW242163   5.473   3.642   7.116 -0.8452 -1.0536  0.1087
13774SOL     OW42164   0.387   4.459   7.441 -0.5164 -0.3436  0.3494
13774SOL    HW142165   0.339   4.435   7.521 -1.5599 -0.6281 -0.3451
13774SOL    HW242166   0.437   4.381   7.419 -1.9263 -1.0415 -0.4785
13775SOL     OW42167   2.282   3.995   0.686 -0.2368  0.4084  0.1643
13775SOL    HW142168   2.221   3.921   0.693  1.8057 -1.3902  0.0335
13775SOL    HW242169   2.314   4.007   0.776  2.0955 -1.3318 -0.3526
13776SOL     OW42170   7.847   6.519   2.556 -0.2341 -0.2436  0.0385
13776SOL    HW142171   7.757   6.531   2.527  0.0968  0.3962 -0.7745
13776SOL    HW242172   7.900   6.545   2.480  0.6669  1.1766  1.1123
13777SOL     OW42173   0.198   3.259   5.341 -0.9877  0.1115  0.1161
13777SOL    HW142174   0.106   3.282   5.333 -0.4210  1.8772 -2.7660
13777SOL    HW242175   0.242   3.342   5.361  0.1219 -0.3898 -0.1584
13778SOL     OW42176   4.318   3.773   7.086  0.1478  0.4419 -0.0976
13778SOL    HW142177   4.366   3.725   7.019 -0.5668  1.0826 -1.1065
13778SOL    HW242178   4.381   3.836   7.121  0.7657 -0.4560  0.4540
13779SOL     OW42179   0.634   2.074   2.611 -0.4857  0.4612 -0.4571
13779SOL    HW142180   0.714   2.078   2.663 -0.3478  2.0360 -0.7466
13779SOL    HW242181   0.643   1.994   2.559  0.4591  0.1317  0.1914
13780SOL     OW42182   1.330   4.276   3.688  0.0758  0.5639 -0.1163
13780SOL    HW142183   1.369   4.249   3.772 -1.7613  1.8026  1.2127
13780SOL    HW242184   1.405   4.286   3.629  1.3377 -1.2729  1.0826
13781SOL     OW42185   2.818   4.011   6.812  0.2509 -0.3538 -0.3123
13781SOL    HW142186   2.744   4.069   6.829 -0.7517 -1.4647 -0.6935
13781SOL    HW242187   2.888   4.069   6.783 -0.8497  0.6348 -1.1118
13782SOL     OW42188   1.459   1.658   3.832  0.1838 -0.1102  0.0486
13782SOL    HW142189   1.424   1.585   3.883 -1.9179  0.5862 -0.2691
13782SOL    HW242190   1.529   1.695   3.886 -0.6820 -0.5827  1.5468
13783SOL     OW42191   0.147   2.412   4.852 -0.1404 -0.1949  0.2877
13783SOL    HW142192   0.181   2.331   4.889  0.6629  0.3855  0.8606
13783SOL    HW242193   0.212   2.439   4.788 -0.2396  0.1539  0.3281
13784SOL     OW42194   2.263   4.062   5.303 -0.0346 -0.2701  0.5785
13784SOL    HW142195   2.328   4.059   5.374  0.2421  0.3290  0.3593
13784SOL    HW242196   2.230   4.151   5.305  0.2449 -0.1410 -0.2811
13785SOL     OW42197   1.922   2.211   4.251 -0.0116 -0.1809  0.1253
13785SOL    HW142198   1.930   2.196   4.345  0.4988  1.2870  0.3514
13785SOL    HW242199   1.864   2.142   4.220 -0.1491 -0.7155  1.5100
13786SOL     OW42200   2.113   7.136   7.250 -0.0542  0.2969 -0.1303
13786SOL    HW142201   2.208   7.138   7.265 -0.0999 -0.7643  0.4310
13786SOL    HW242202   2.085   7.052   7.286 -1.0731  0.1885 -1.1020
13787SOL     OW42203   8.014   2.116   4.584  0.0963  0.1606  0.1260
13787SOL    HW142204   7.952   2.186   4.563 -0.9532  1.2614  5.4489
13787SOL    HW242205   7.963   2.036   4.574 -0.5145  0.6118 -0.5384
13788SOL     OW42206   2.371   2.107   1.112  0.1938  0.4484  0.1186
13788SOL    HW142207   2.394   2.140   1.199  1.6066 -1.8218  0.7017
13788SOL    HW242208   2.425   2.028   1.101 -1.3424 -0.4112 -2.0498
13789SOL     OW42209   4.629   5.745   5.176  0.3630  1.1061  0.1883
13789SOL    HW142210   4.670   5.777   5.256  3.0337  2.8285 -1.6979
13789SOL    HW242211   4.648   5.651   5.175 -0.7251  0.8243  2.0572
13790SOL     OW42212   0.285   4.287   3.470  0.7146  0.3904 -0.2626
13790SOL    HW142213   0.351   4.283   3.539  0.5009 -0.0239 -0.0839
13790SOL    HW242214   0.335   4.313   3.392  1.1319 -0.1444 -0.1822
13791SOL     OW42215   7.644   2.389   5.408  0.5537 -0.1749  0.7248
13791SOL    HW142216   7.555   2.424   5.411  0.4321 -0.4688  0.6284
13791SOL    HW242217   7.655   2.358   5.318  1.1655  0.8936  0.4225
13792SOL     OW42218   7.253   3.698   5.290  0.3559 -0.6704 -0.0515
13792SOL    HW142219   7.198   3.748   5.229 -1.0962 -2.1915 -0.0789
13792SOL    HW242220   7.252   3.609   5.255  0.4575 -1.3352  1.5523
13793SOL     OW42221   4.256   3.683   1.801 -0.0961 -0.2372  0.5438
13793SOL    HW142222   4.246   3.623   1.875 -1.3800  1.4720  1.8306
13793SOL    HW242223   4.175   3.734   1.799  0.2144  0.2830 -1.5981
13794SOL     OW42224   3.291   2.822   0.141  0.3377 -0.1094 -0.1205
13794SOL    HW142225   3.245   2.814   0.225 -0.6499 -1.0248 -0.7287
13794SOL    HW242226   3.356   2.891   0.156 -0.2590  0.1955  1.1996
13795SOL     OW42227   8.068   3.590   8.095  0.1312  0.4584  0.0774
13795SOL    HW142228   8.048   3.497   8.097 -0.0429  0.4946  0.0410
13795SOL    HW242229   8.161   3.595   8.073 -0.1339  0.3332 -1.1199
13796SOL     OW42230   1.231   3.628   7.690  0.1986 -0.0753  0.2859
13796SOL    HW142231   1.266   3.627   7.779 -1.1415  1.2250  0.8779
13796SOL    HW242232   1.304   3.654   7.635  1.3261 -1.8912  0.8211
13797SOL     OW42233   3.724   7.185   2.879 -0.1223 -0.0495 -0.1937
13797SOL    HW142234   3.668   7.134   2.938 -1.7727  0.8687 -0.8967
13797SOL    HW242235   3.763   7.120   2.821 -0.6794 -0.6939  0.1355
13798SOL     OW42236   3.476   0.521   8.076  0.4292 -0.0119 -0.1134
13798SOL    HW142237   3.450   0.479   8.158 -0.2718 -0.8323 -0.7405
13798SOL    HW242238   3.566   0.492   8.062 -0.2488 -1.8906 -0.8669
13799SOL     OW42239   1.854   4.958   0.827 -0.2139  0.4284 -0.1281
13799SOL    HW142240   1.783   4.899   0.853  0.7613 -1.0119 -0.6597
13799SOL    HW242241   1.848   5.031   0.889 -1.1333 -0.4432  0.8485
13800SOL     OW42242   3.133   5.846   5.946 -0.3237  0.3902  0.1657
13800SOL    HW142243   3.126   5.846   6.041 -2.2184 -0.6119  0.0758
13800SOL    HW242244   3.158   5.757   5.923 -3.7652 -0.5940 -0.3812
13801SOL     OW42245   2.901   7.920   1.388 -0.2778  0.0160  0.5440
13801SOL    HW142246   2.931   8.003   1.350  0.6473 -0.9115 -0.8456
13801SOL    HW242247   2.957   7.908   1.465  0.7568 -0.0977 -0.1908
13802SOL     OW42248   7.110   0.044   3.863  0.1185  0.1136 -0.7144
13802SOL    HW142249   7.162   0.097   3.923  0.1788 -0.1615 -0.5213
13802SOL    HW242250   7.173   0.011   3.798  0.3667 -0.9921  0.0581
13803SOL     OW42251   1.685   2.812   2.306 -0.0199  0.0183  0.4985
13803SOL    HW142252   1.773   2.808   2.269  0.1228 -0.6620  0.8825
13803SOL    HW242253   1.698   2.836   2.398 -0.1091 -1.3650  0.9031
13804SOL     OW42254   1.279   2.462   0.034 -0.0738 -0.2444 -0.2964
13804SOL    HW142255   1.362   2.472   0.081 -0.5867 -1.0830  0.8244
13804SOL    HW242256   1.261   2.368   0.037 -0.2249 -0.3101 -2.0362
13805SOL     OW42257   8.134   1.288   4.317 -0.0780  0.0487  0.0616
13805SOL    HW142258   8.179   1.291   4.402  0.4847  0.3226 -0.2357
13805SOL    HW242259   8.097   1.376   4.307  1.2868  0.5629 -0.7157
13806SOL     OW42260   4.338   7.524   1.799 -0.0840 -0.6810 -0.5337
13806SOL    HW142261   4.344   7.537   1.704 -1.2125  0.2859 -0.4926
13806SOL    HW242262   4.316   7.611   1.833 -0.6398 -1.2266  0.5164
13807SOL     OW42263   8.096   2.435   3.733 -0.1322  0.1879  0.0269
13807SOL    HW142264   8.106   2.528   3.753 -1.0765 -0.0264  1.6549
13807SOL    HW242265   8.003   2.424   3.715 -0.4308 -0.7938  1.9749
13808SOL     OW42266   3.978   6.040   3.868 -0.4015  0.4021  0.4400
13808SOL    HW142267   4.010   5.970   3.924 -1.0617  0.5588  1.0218
13808SOL    HW242268   3.921   6.092   3.924  0.8354  1.9826  0.3008
13809SOL     OW42269   6.169   2.982   6.972  0.0054  0.0060 -0.3689
13809SOL    HW142270   6.177   2.959   7.065  0.3409 -0.5115 -0.5188
13809SOL    HW242271   6.132   2.904   6.931 -1.9445  0.8860 -0.3851
13810SOL     OW42272   5.694   7.276   2.309  1.0390 -0.3320 -0.0534
13810SOL    HW142273   5.677   7.218   2.236 -1.7157  1.9114 -1.4029
13810SOL    HW242274   5.689   7.220   2.387  1.6543 -2.3549 -1.4118
13811SOL     OW42275   3.327   5.881   6.986 -0.2173 -0.4353 -0.3284
13811SOL    HW142276   3.419   5.896   7.008 -0.1741  1.9864 -1.7532
13811SOL    HW242277   3.330   5.831   6.904 -0.1425 -0.2354 -0.4504
13812SOL     OW42278   0.171   3.500   4.208  0.2307  0.5051  0.8294
13812SOL    HW142279   0.198   3.427   4.264  0.3337  0.2827  0.4870
13812SOL    HW242280   0.248   3.519   4.154 -0.2759 -0.1027 -0.1237
13813SOL     OW42281   7.245   0.252   5.262 -0.1982  0.1507  0.0718
13813SOL    HW142282   7.193   0.325   5.295  0.1586  0.5940 -0.3268
13813SOL    HW242283   7.277   0.282   5.177  0.8183 -0.0502  0.3704
13814SOL     OW42284   0.418   1.414   5.349 -0.1289 -0.5068 -0.6008
13814SOL    HW142285   0.418   1.408   5.253 -0.9446  0.3063 -0.6618
13814SOL    HW242286   0.426   1.323   5.378  1.3723 -0.6742 -1.4255
13815SOL     OW42287   3.274   8.207   1.526  0.0410  0.2758  0.4915
13815SOL    HW142288   3.280   8.298   1.555 -2.0365 -0.2210  2.7789
13815SOL    HW242289   3.181   8.186   1.531  0.4124 -1.8417 -0.4882
13816SOL     OW42290   1.632   5.336   0.501  0.0575  0.3401 -0.1346
13816SOL    HW142291   1.682   5.305   0.576 -0.3576 -0.4554 -0.1788
13816SOL    HW242292   1.698   5.360   0.436  0.4045  0.5028  0.2745
13817SOL     OW42293   5.303   2.472   2.547  0.2295  0.4947 -0.2869
13817SOL    HW142294   5.297   2.386   2.589 -1.0243  0.4948 -0.4287
13817SOL    HW242295   5.396   2.493   2.550  0.6271 -1.0709 -0.6547
13818SOL     OW42296   6.605   4.987   2.946  0.1059 -0.1395  0.1062
13818SOL    HW142297   6.599   5.004   3.040  1.2021  0.8315  0.0246
13818SOL    HW242298   6.529   5.033   2.909  0.4020  0.5903  0.3868
13819SOL     OW42299   0.895   3.074   4.334 -0.4382 -0.8406  0.1093
13819SOL    HW142300   0.891   3.075   4.239 -1.0594  2.4070  0.0763
13819SOL    HW242301   0.818   3.023   4.361 -0.6304 -1.2089 -1.0949
13820SOL     OW42302   0.654   6.610   5.495 -0.2310 -0.3571  0.3975
13820SOL    HW142303   0.671   6.596   5.588  0.4952  2.0344  0.6899
13820SOL    HW242304   0.712   6.547   5.451  1.5276  0.3903  1.5476
13821SOL     OW42305   4.489   2.957   7.449  0.0549  0.1197 -0.3119
13821SOL    HW142306   4.399   2.965   7.482 -1.1207 -0.8788 -3.0154
13821SOL    HW242307   4.527   2.887   7.501 -1.2573 -0.5123 -0.1578
13822SOL     OW42308   6.552   5.759   6.148  0.1496 -0.5346  0.2316
13822SOL    HW142309   6.603   5.839   6.147  0.2659 -0.5925  0.9172
13822SOL    HW242310   6.464   5.786   6.122  0.3452 -0.3028 -0.1955
13823SOL     OW42311   1.942   7.145   2.163  0.3533  0.5761  0.0208
13823SOL    HW142312   1.957   7.236   2.189 -1.4038  1.3487 -1.4543
13823SOL    HW242313   1.909   7.103   2.242 -0.3707  1.6529  0.3104
13824SOL     OW42314   0.880   1.017   0.416 -0.0697 -0.5032  0.1878
13824SOL    HW142315   0.860   1.033   0.509  0.8070 -0.0519  0.3138
13824SOL    HW242316   0.975   1.011   0.413  0.0554  1.2825 -0.9411
13825SOL     OW42317   5.358   6.621   0.557 -0.0093 -0.4232  0.4886
13825SOL    HW142318   5.300   6.639   0.482  0.5611  0.9124  0.3368
13825SOL    HW242319   5.348   6.527   0.573 -0.4196 -0.6720 -1.0350
13826SOL     OW42320   3.582   1.107   3.973 -0.3380 -0.3126  0.7183
13826SOL    HW142321   3.625   1.050   3.910  0.2756  0.9703 -0.0715
13826SOL    HW242322   3.653   1.139   4.029 -0.5433  0.2695  0.6593
13827SOL     OW42323   5.626   6.816   5.582  0.2286 -0.2710 -0.0411
13827SOL    HW142324   5.598   6.727   5.601 -2.0661  0.3781 -0.0597
13827SOL    HW242325   5.707   6.827   5.631 -0.8220 -1.5258  2.1278
13828SOL     OW42326   4.218   0.346   4.450  0.1421  0.2223  0.2396
13828SOL    HW142327   4.255   0.268   4.491  1.1320  0.6699  0.2140
13828SOL    HW242328   4.134   0.359   4.495 -1.6271 -2.6845 -1.8808
13829SOL     OW42329   0.038   2.730   4.625  0.2491 -0.2127  0.6538
13829SOL    HW142330   0.133   2.717   4.623  0.5045  1.4735 -1.2810
13829SOL    HW242331   0.007   2.689   4.544 -0.5416  0.0745  0.8040
13830SOL     OW42332   6.575   2.992   6.887  0.2303 -0.1094 -0.8800
13830SOL    HW142333   6.647   2.943   6.926 -0.4504  0.2364  0.9248
13830SOL    HW242334   6.498   2.966   6.938 -0.2573  2.2963 -0.2476
13831SOL     OW42335   5.958   5.466   3.604  0.1441  0.0510 -0.2839
13831SOL    HW142336   5.941   5.440   3.514  1.4413  1.5026 -0.9950
13831SOL    HW242337   6.036   5.417   3.630  1.0389  1.1797 -0.7290
13832SOL     OW42338   7.619   6.808   2.256 -0.3950  0.1835 -0.3431
13832SOL    HW142339   7.536   6.811   2.209 -0.2984  0.4096 -0.5015
13832SOL    HW242340   7.676   6.867   2.207 -0.8346  1.9098  1.1057
13833SOL     OW42341   4.424   8.212   0.314  0.0352  0.5963 -0.6660
13833SOL    HW142342   4.416   8.153   0.389 -0.3972  0.3082 -0.9346
13833SOL    HW242343   4.433   8.154   0.238  0.7818  0.8892 -0.8090
13834SOL     OW42344   6.735   5.163   1.027  0.1809  0.0347 -0.6824
13834SOL    HW142345   6.824   5.198   1.035  0.2739 -0.4749  0.9436
13834SOL    HW242346   6.692   5.221   0.965  1.1436  1.3599 -0.1619
13835SOL     OW42347   5.575   4.084   1.174 -0.1072  0.2861  0.3351
13835SOL    HW142348   5.492   4.116   1.137  0.7618  0.0604 -1.9720
13835SOL    HW242349   5.551   4.005   1.223 -1.5705  1.6263  1.9267
13836SOL     OW42350   7.077   0.117   2.410  0.3207  0.3601 -0.0147
13836SOL    HW142351   7.109   0.154   2.492  0.2878  0.8870 -0.2370
13836SOL    HW242352   6.982   0.111   2.422  0.2261  1.1494 -0.2888
13837SOL     OW42353   2.866   0.506   2.497 -0.0125  0.3360 -0.1317
13837SOL    HW142354   2.894   0.557   2.573 -2.9870  1.0309  0.6646
13837SOL    HW242355   2.837   0.572   2.434 -0.4892 -0.2983 -0.5868
13838SOL     OW42356   0.621   3.858   2.633  0.7074  0.2333 -0.5733
13838SOL    HW142357   0.639   3.782   2.689 -2.4406  0.3399  0.7929
13838SOL    HW242358   0.582   3.821   2.554 -1.0260  0.3264  0.1805
13839SOL     OW42359   1.728   3.379   1.418  0.0429 -0.1163 -0.0181
13839SOL    HW142360   1.678   3.305   1.384 -0.1037  0.1674 -0.4437
13839SOL    HW242361   1.795   3.394   1.352 -1.6345  1.8936 -1.4352
13840SOL     OW42362   6.943   6.394   8.043 -0.1890 -0.3010  0.2223
13840SOL    HW142363   6.885   6.320   8.023 -1.2443  0.4741  0.2884
13840SOL    HW242364   6.888   6.454   8.093  0.6599  0.5037  0.2122
13841SOL     OW42365   7.315   0.382   5.046 -0.5516 -0.0573 -0.2191
13841SOL    HW142366   7.397   0.424   5.073 -0.4250 -1.1477  1.1597
13841SOL    HW242367   7.269   0.451   4.997  1.1893  0.5622 -1.0969
13842SOL     OW42368   6.169   3.170   5.354 -0.3770  0.1877 -0.1806
13842SOL    HW142369   6.154   3.080   5.384 -1.9827  0.9268  1.3940
13842SOL    HW242370   6.219   3.159   5.272 -0.3732 -2.1082  0.0454
13843SOL     OW42371   5.146   1.455   7.557  0.1161 -0.1732  0.0447
13843SOL    HW142372   5.221   1.397   7.572  1.2791  1.6616  2.0470
13843SOL    HW242373   5.167   1.501   7.475 -0.5786 -2.1213 -1.2830
13844SOL     OW42374   2.416   4.090   7.675  0.5375  0.6955 -0.1187
13844SOL    HW142375   2.493   4.100   7.731  0.3749  2.2222 -0.1422
13844SOL    HW242376   2.357   4.160   7.702 -0.5971 -0.0716 -0.5216
13845SOL     OW42377   7.639   2.675   3.640  0.5825  0.4200  0.4686
13845SOL    HW142378   7.550   2.676   3.678  0.0523  0.8373 -0.7550
13845SOL    HW242379   7.632   2.725   3.559  1.5296 -0.9749 -0.5347
13846SOL     OW42380   2.969   7.151   1.984  0.2325  0.2086 -0.1015
13846SOL    HW142381   2.979   7.224   1.922  0.8997  1.2136  1.1345
13846SOL    HW242382   2.886   7.170   2.028  0.3448  0.1463  0.1339
13847SOL     OW42383   5.967   0.360   0.321 -0.0237  0.5679 -0.1546
13847SOL    HW142384   5.941   0.433   0.264 -0.2208  1.0397  0.5280
13847SOL    HW242385   6.055   0.383   0.350  0.9144 -0.6677 -1.8714
13848SOL     OW42386   0.082   5.309   7.934  0.5272  0.3839 -0.1492
13848SOL    HW142387   0.067   5.244   8.002  1.7556 -0.7516 -0.9181
13848SOL    HW242388   0.155   5.361   7.966  1.7342 -0.7480 -0.9583
13849SOL     OW42389   0.500   1.731   7.589 -0.7653  0.5403 -0.1650
13849SOL    HW142390   0.438   1.803   7.606 -1.7730 -0.6010  1.2236
13849SOL    HW242391   0.445   1.660   7.557 -0.0320 -0.2155  0.2350
13850SOL     OW42392   2.826   1.951   0.486 -0.0155 -0.2028 -0.0949
13850SOL    HW142393   2.810   1.942   0.580  1.2699 -1.1161  0.0561
13850SOL    HW242394   2.820   1.862   0.451  2.9787 -0.4538 -0.2593
13851SOL     OW42395   5.448   4.938   7.720 -0.0149  0.4866  0.2080
13851SOL    HW142396   5.440   4.894   7.636  2.2397  1.8490 -0.7948
13851SOL    HW242397   5.440   4.867   7.785 -0.0717 -0.8287 -1.1890
13852SOL     OW42398   3.233   3.139   1.951 -0.1550 -0.1539 -0.1420
13852SOL    HW142399   3.196   3.195   2.019 -1.8019 -1.3404 -0.0082
13852SOL    HW242400   3.210   3.183   1.869  1.0432  0.8002 -0.0054
13853SOL     OW42401   3.294   4.696   6.802  0.1281  0.3376  0.1699
13853SOL    HW142402   3.226   4.651   6.752  2.3961 -0.7576 -2.1455
13853SOL    HW242403   3.325   4.766   6.744  0.5711  1.2488  1.4341
13854SOL     OW42404   1.419   1.138   7.335 -0.0676 -0.2518  0.3898
13854SOL    HW142405   1.427   1.180   7.421 -0.0118  0.2444  0.1466
13854SOL    HW242406   1.462   1.054   7.345  1.9510  0.6966  0.2411
13855SOL     OW42407   7.836   1.341   3.761  0.4814  0.0140  0.3726
13855SOL    HW142408   7.799   1.342   3.849 -0.0802 -0.2622  0.1486
13855SOL    HW242409   7.770   1.296   3.708  1.6592 -1.5907  0.1906
13856SOL     OW42410   2.939   5.511   2.889 -0.6039 -0.0565 -0.6092
13856SOL    HW142411   2.989   5.506   2.808  1.2419  2.1498  0.2513
13856SOL    HW242412   2.994   5.467   2.954 -1.4042 -0.5788 -0.2717
13857SOL     OW42413   6.079   5.073   6.568  0.8401 -0.1704 -0.3659
13857SOL    HW142414   6.045   4.984   6.563  0.6946 -0.2563  1.3860
13857SOL    HW242415   6.002   5.126   6.588  1.2281  0.0462  0.6236
13858SOL     OW42416   3.062   1.125   6.779 -0.3008  0.1372  0.0654
13858SOL    HW142417   3.114   1.047   6.759  0.0194  0.3327  0.1351
13858SOL    HW242418   3.057   1.172   6.695  0.1974  0.4511  0.2048
13859SOL     OW42419   5.008   2.419   2.144  0.4880 -0.4173  0.0820
13859SOL    HW142420   4.982   2.477   2.072 -1.7911  0.2453  1.3366
13859SOL    HW242421   4.936   2.357   2.153  2.2907 -2.6922 -0.3541
13860SOL     OW42422   1.336   6.347   6.863  0.3751 -0.0268 -0.0214
13860SOL    HW142423   1.407   6.405   6.837  0.0165  1.7277  2.5364
13860SOL    HW242424   1.373   6.293   6.933 -0.7939  1.1324  1.5780
13861SOL     OW42425   3.328   5.233   5.620 -0.4654  0.0319 -0.1753
13861SOL    HW142426   3.342   5.320   5.582  0.3904 -0.1889 -0.3693
13861SOL    HW242427   3.298   5.179   5.546  1.5792 -0.4975 -0.6693
13862SOL     OW42428   6.842   4.353   4.572  0.3624  0.5194 -0.6082
13862SOL    HW142429   6.777   4.286   4.596  1.8903 -0.4836  1.0547
13862SOL    HW242430   6.841   4.355   4.477 -1.7687  0.2213 -0.6304
13863SOL     OW42431   5.028   1.127   3.270 -0.0215 -0.3582 -0.2293
13863SOL    HW142432   4.973   1.186   3.219  1.5290  1.7943  0.4124
13863SOL    HW242433   4.969   1.059   3.301 -1.6541  0.1139 -2.0929
13864SOL     OW42434   5.820   2.605   1.182  0.7787  0.3729  0.3999
13864SOL    HW142435   5.816   2.510   1.189  1.6623  0.1772 -1.2358
13864SOL    HW242436   5.787   2.637   1.266  0.2779 -1.3644  0.8980
13865SOL     OW42437   1.255   4.631   6.758  0.0520 -0.4973 -0.4592
13865SOL    HW142438   1.225   4.659   6.672 -1.0154  0.0789  0.0770
13865SOL    HW242439   1.286   4.712   6.800 -0.1030 -0.6491 -0.0435
13866SOL     OW42440   0.689   2.343   3.212 -0.8462  0.0807 -0.0732
13866SOL    HW142441   0.751   2.396   3.263  0.3225 -0.8686 -0.4666
13866SOL    HW242442   0.655   2.403   3.146  1.4399  0.0841 -1.3471
13867SOL     OW42443   6.664   5.038   7.838 -0.0522  0.3563  0.1691
13867SOL    HW142444   6.733   5.013   7.900 -0.1371  0.3810  0.2737
13867SOL    HW242445   6.637   4.955   7.798  0.6905  0.4472 -0.5632
13868SOL     OW42446   1.302   7.467   0.453 -0.4958 -0.3183  0.3947
13868SOL    HW142447   1.279   7.512   0.534 -0.4295  0.8143 -0.1977
13868SOL    HW242448   1.342   7.535   0.399 -0.4037 -1.0970 -0.5311
13869SOL     OW42449   3.020   5.030   6.789 -0.2886  0.1133  0.2303
13869SOL    HW142450   2.956   4.963   6.813 -0.0164 -0.2896 -0.1531
13869SOL    HW242451   2.981   5.112   6.819 -0.7493 -0.1853  0.4616
13870SOL     OW42452   5.158   7.781   5.684 -0.3965 -0.1280 -0.0794
13870SOL    HW142453   5.160   7.875   5.669 -1.4196 -0.2650 -1.3198
13870SOL    HW242454   5.204   7.743   5.610  0.9254 -0.5865  0.9416
13871SOL     OW42455   4.204   7.276   7.801 -0.0582 -0.0003  0.1612
13871SOL    HW142456   4.157   7.256   7.721 -0.0012  0.8480 -0.0944
13871SOL    HW242457   4.153   7.346   7.842 -0.3354 -0.7325  1.0923
13872SOL     OW42458   4.030   2.211   5.906  0.6222  0.3393 -0.4681
13872SOL    HW142459   4.009   2.145   5.972 -0.0987  1.7211  0.7413
13872SOL    HW242460   4.118   2.241   5.929  1.3668 -0.8456 -1.6154
13873SOL     OW42461   0.117   6.015   5.820 -0.3754  0.2487 -0.3003
13873SOL    HW142462   0.077   5.968   5.893  0.9854  1.4288  1.3025
13873SOL    HW242463   0.192   5.961   5.795 -0.0546  0.4906  0.1149
13874SOL     OW42464   7.579   5.923   6.898 -0.4176 -0.3358  0.1374
13874SOL    HW142465   7.582   6.003   6.844 -0.6704 -0.7446 -0.4962
13874SOL    HW242466   7.518   5.944   6.968 -1.3710 -0.3561 -0.6670
13875SOL     OW42467   2.614   2.205   3.432  0.3359 -0.0689  0.3004
13875SOL    HW142468   2.653   2.280   3.477 -2.5726  1.0748  1.1616
13875SOL    HW242469   2.678   2.181   3.366  1.7214  2.6989  0.4787
13876SOL     OW42470   6.048   1.995   1.036  0.0229 -0.7904 -0.3251
13876SOL    HW142471   5.979   1.931   1.017 -0.1416 -0.3367 -1.2842
13876SOL    HW242472   6.120   1.942   1.071 -0.8935 -1.2396  0.9586
13877SOL     OW42473   2.764   1.652   4.899 -0.5311 -0.5190 -0.3330
13877SOL    HW142474   2.688   1.656   4.957 -1.7713  1.0874 -1.9514
13877SOL    HW242475   2.739   1.591   4.829  0.5124 -1.5875  0.1891
13878SOL     OW42476   7.207   7.244   5.992 -0.2090 -0.2944 -0.2809
13878SOL    HW142477   7.159   7.223   6.072  1.2119 -0.0598  0.6717
13878SOL    HW242478   7.286   7.189   5.996  0.1556  0.1395 -1.2375
13879SOL     OW42479   7.976   1.965   7.730  0.4707  0.4055  0.1075
13879SOL    HW142480   7.981   2.051   7.773  0.5640 -0.2654  1.4953
13879SOL    HW242481   7.970   1.903   7.802  1.9245 -0.8819 -0.8275
13880SOL     OW42482   3.859   0.421   4.278 -0.5620 -0.1012  0.0566
13880SOL    HW142483   3.820   0.347   4.325  0.7091 -0.9609 -0.1843
13880SOL    HW242484   3.803   0.432   4.201 -1.6049  0.1402  0.8368
13881SOL     OW42485   0.524   5.359   7.229 -0.1262 -0.0195  0.1180
13881SOL    HW142486   0.553   5.390   7.315  3.2390 -0.2773 -0.8067
13881SOL    HW242487   0.433   5.331   7.244 -0.0696  1.0493  3.2657
13882SOL     OW42488   3.958   1.102   2.742  0.5093 -0.5537 -0.1602
13882SOL    HW142489   3.943   1.164   2.671  1.4641 -0.4414 -0.2687
13882SOL    HW242490   3.919   1.145   2.819  2.3744  0.8412  0.0620
13883SOL     OW42491   7.632   3.230   4.291 -0.1574  0.0711  0.4130
13883SOL    HW142492   7.603   3.145   4.325 -2.3490 -0.0624 -1.5444
13883SOL    HW242493   7.607   3.292   4.358 -2.5322 -0.4061  0.0482
13884SOL     OW42494   2.317   5.133   8.037  0.3025  0.2874 -0.5636
13884SOL    HW142495   2.252   5.122   7.967  1.0750 -0.9149 -1.1313
13884SOL    HW242496   2.400   5.106   7.996  0.6597 -1.1258  1.0083
13885SOL     OW42497   0.190   3.838   2.019 -0.3209 -0.0034  0.0952
13885SOL    HW142498   0.228   3.758   2.056  0.2690 -0.0109 -0.5050
13885SOL    HW242499   0.124   3.806   1.957  0.9198 -0.0916 -1.2369
13886SOL     OW42500   0.260   4.493   0.688  0.1884 -0.5932 -0.1453
13886SOL    HW142501   0.222   4.405   0.695 -0.9759  0.0300  2.9433
13886SOL    HW242502   0.211   4.545   0.751  2.7155  1.5893  0.1790
13887SOL     OW42503   3.013   3.189   4.973 -0.0680  0.5021  0.0002
13887SOL    HW142504   3.088   3.247   4.985  1.0022 -0.6992 -0.7512
13887SOL    HW242505   3.044   3.121   4.913 -1.9810  0.3916 -0.9396
13888SOL     OW42506   0.191   1.032   2.636  0.1081  0.2605 -0.3908
13888SOL    HW142507   0.153   1.096   2.697  1.2105  0.0102  0.5830
13888SOL    HW242508   0.151   0.949   2.661 -0.9587  0.4534 -1.3454
13889SOL     OW42509   4.230   4.487   5.822 -0.1290 -0.4007 -0.1366
13889SOL    HW142510   4.309   4.470   5.873 -0.7471 -2.0869  0.3071
13889SOL    HW242511   4.174   4.538   5.881  1.0974  2.0058 -0.9171
13890SOL     OW42512   4.184   0.142   0.555 -0.0124  0.4213 -0.4787
13890SOL    HW142513   4.146   0.063   0.516  0.4715  0.3750 -0.8684
13890SOL    HW242514   4.118   0.210   0.543 -0.2401  0.1839 -0.5547
13891SOL     OW42515   1.162   5.541   6.096 -0.6956  0.0216  0.6877
13891SOL    HW142516   1.123   5.485   6.163 -0.1700 -0.2684  0.7563
13891SOL    HW242517   1.111   5.622   6.099 -1.2570 -0.3356  0.8061
13892SOL     OW42518   5.018   3.292   5.588  0.0610 -0.3077  0.2581
13892SOL    HW142519   4.995   3.258   5.502  0.1520 -2.3138  0.9657
13892SOL    HW242520   5.069   3.222   5.629  1.2623  1.1757  1.4137
13893SOL     OW42521   4.754   4.436   0.826 -0.3906  0.3304  0.1822
13893SOL    HW142522   4.692   4.506   0.848 -0.5340  0.2853 -0.0754
13893SOL    HW242523   4.711   4.356   0.857 -0.3261  0.3340  0.2783
13894SOL     OW42524   5.634   5.462   1.717  0.1593 -0.3292  0.2024
13894SOL    HW142525   5.684   5.455   1.636 -0.7331 -0.3535 -0.3640
13894SOL    HW242526   5.700   5.462   1.787  0.9282 -0.4530 -0.5131
13895SOL     OW42527   8.155   0.250   2.715 -0.0070 -0.3608  1.0414
13895SOL    HW142528   8.200   0.166   2.728 -0.1137 -0.6157 -0.1192
13895SOL    HW242529   8.065   0.226   2.693  0.0079  0.0447  0.5202
13896SOL     OW42530   1.861   5.882   7.265  0.3149  0.8616  0.0709
13896SOL    HW142531   1.794   5.870   7.198  0.8615  0.8162 -0.4767
13896SOL    HW242532   1.942   5.855   7.222  0.4673 -0.6289  1.2116
13897SOL     OW42533   3.391   6.383   1.631 -0.6142 -0.0789 -0.1582
13897SOL    HW142534   3.405   6.390   1.536 -1.4450 -1.3455 -0.4018
13897SOL    HW242535   3.399   6.290   1.650 -0.1805  0.1956  1.0786
13898SOL     OW42536   7.030   4.549   1.959  0.0354 -0.5647  0.9003
13898SOL    HW142537   7.081   4.537   1.879  0.6104  0.6470  1.0648
13898SOL    HW242538   6.951   4.595   1.930  0.5893  0.5535  1.1182
13899SOL     OW42539   3.065   3.511   0.110 -0.9786  0.1972 -0.1429
13899SOL    HW142540   3.025   3.456   0.177 -0.0828 -0.4398 -0.1200
13899SOL    HW242541   3.149   3.469   0.091 -0.7309  0.9911 -0.8595
13900SOL     OW42542   2.797   1.833   3.215  0.0658 -0.2153  0.4168
13900SOL    HW142543   2.806   1.769   3.285  2.9879 -0.9725 -0.5279
13900SOL    HW242544   2.744   1.790   3.149 -0.5636 -0.4385  1.0461
13901SOL     OW42545   2.949   6.005   8.186  0.6488 -0.0820  0.0989
13901SOL    HW142546   2.942   6.064   8.261  0.1587 -1.6382  1.3539
13901SOL    HW242547   2.860   5.970   8.175  0.9637 -0.7432 -0.4510
13902SOL     OW42548   3.598   1.819   2.715 -0.0881  0.1943 -0.7418
13902SOL    HW142549   3.651   1.833   2.793 -0.6963  0.1998 -0.3234
13902SOL    HW242550   3.550   1.901   2.703 -1.0342 -0.2800 -0.3107
13903SOL     OW42551   4.647   5.496   7.417  0.0902  0.0085 -0.4602
13903SOL    HW142552   4.574   5.439   7.394  1.6564 -3.2094  1.7502
13903SOL    HW242553   4.712   5.481   7.349  0.7732 -1.5748  0.4721
13904SOL     OW42554   6.937   2.135   5.280  0.5261 -0.3112  0.6338
13904SOL    HW142555   6.919   2.224   5.249  0.9442 -0.3561  0.2524
13904SOL    HW242556   7.003   2.147   5.348 -0.8143 -0.1559  1.9630
13905SOL     OW42557   3.322   6.722   6.368 -0.7841 -0.4367 -0.5668
13905SOL    HW142558   3.238   6.767   6.359 -0.1676  1.0897  0.8248
13905SOL    HW242559   3.386   6.792   6.376  0.5697 -1.5785 -1.0001
13906SOL     OW42560   5.744   2.697   7.578 -0.5905  0.2304 -0.0824
13906SOL    HW142561   5.741   2.792   7.580 -0.0458  0.2743  2.5982
13906SOL    HW242562   5.804   2.673   7.649  0.8169 -2.1011 -1.8789
13907SOL     OW42563   7.516   6.247   4.854  0.1779 -0.0455 -0.0340
13907SOL    HW142564   7.455   6.293   4.912  1.6604  1.2039  0.6050
13907SOL    HW242565   7.562   6.186   4.911 -0.1160 -0.6526 -0.4275
13908SOL     OW42566   2.891   8.216   5.971  0.0032  0.0873  0.2281
13908SOL    HW142567   2.844   8.176   6.044 -0.3137  1.9852  1.1337
13908SOL    HW242568   2.982   8.219   5.999 -0.2988  1.9524  1.1475
13909SOL     OW42569   5.190   7.216   0.007  0.1210  0.3108  0.4155
13909SOL    HW142570   5.213   7.287  -0.052  0.5580  0.1603  0.4022
13909SOL    HW242571   5.154   7.148  -0.049  1.7059 -0.3490  0.1354
13910SOL     OW42572   1.020   1.531   2.590 -0.1980  0.0626  0.0818
13910SOL    HW142573   1.059   1.603   2.640  2.1406  0.2908 -1.9216
13910SOL    HW242574   0.926   1.546   2.596  0.1468  1.9932  1.5595
13911SOL     OW42575   2.764   4.693   2.740 -0.2445  0.3163 -0.0504
13911SOL    HW142576   2.787   4.786   2.748 -1.7139  0.6919  0.0652
13911SOL    HW242577   2.789   4.655   2.825 -0.5718  0.8278  0.2816
13912SOL     OW42578   2.983   3.088   0.312  0.5144  0.3041 -0.1575
13912SOL    HW142579   3.033   3.168   0.329 -0.6885  0.8326  1.1448
13912SOL    HW242580   2.892   3.114   0.325  0.0243 -1.0374 -0.7593
13913SOL     OW42581   2.514   7.589   1.419  0.5228 -0.0970 -0.2975
13913SOL    HW142582   2.592   7.626   1.461  0.3297 -1.0345  0.9431
13913SOL    HW242583   2.484   7.522   1.480 -0.6250 -0.5072 -1.2843
13914SOL     OW42584   6.847   4.567   1.091 -0.1273 -0.0558  0.4696
13914SOL    HW142585   6.834   4.659   1.115 -0.5783 -0.1908  0.7572
13914SOL    HW242586   6.887   4.527   1.168 -0.0114 -0.1206  0.3763
13915SOL     OW42587   6.165   1.747   1.221 -0.4429 -0.1739  0.2331
13915SOL    HW142588   6.181   1.666   1.270 -0.3722 -1.4468 -1.7947
13915SOL    HW242589   6.074   1.768   1.240 -0.7782 -1.3242  0.0101
13916SOL     OW42590   4.634   3.347   4.050 -0.5665  0.2026 -0.8775
13916SOL    HW142591   4.649   3.264   4.005 -1.3394 -1.6150  1.9915
13916SOL    HW242592   4.540   3.363   4.042 -0.5824  0.2750 -0.5605
13917SOL     OW42593   2.213   6.072   5.581 -0.2169 -0.1786  0.4066
13917SOL    HW142594   2.154   6.131   5.627 -1.4387  0.8146 -2.2270
13917SOL    HW242595   2.288   6.127   5.557 -0.4780 -0.1590 -0.3992
13918SOL     OW42596   0.915   4.011   6.325  0.5409 -0.3906  0.3657
13918SOL    HW142597   0.978   3.995   6.395  1.3522  1.0454  0.0237
13918SOL    HW242598   0.960   3.981   6.246  0.7600  0.5068  0.1391
13919SOL     OW42599   4.543   6.488   1.644 -0.3371  0.2479  0.1592
13919SOL    HW142600   4.597   6.497   1.722  1.6050  0.9427 -1.1735
13919SOL    HW242601   4.516   6.396   1.644 -0.8444  0.3763  1.9084
13920SOL     OW42602   1.086   1.379   7.410 -0.1017 -0.0349  0.3095
13920SOL    HW142603   1.136   1.418   7.338 -1.2598  0.8374 -0.0504
13920SOL    HW242604   1.147   1.378   7.483  0.9627 -0.5316 -0.5634
13921SOL     OW42605   0.559   0.459   5.214  0.3102 -0.4665  0.0934
13921SOL    HW142606   0.568   0.463   5.119  0.8856 -1.6504  0.0724
13921SOL    HW242607   0.465   0.465   5.229  0.3163  1.6247 -0.3998
13922SOL     OW42608   6.868   2.002   1.672  0.0157 -0.3355  0.1122
13922SOL    HW142609   6.776   2.009   1.696 -0.4987  1.1286 -1.9948
13922SOL    HW242610   6.916   2.041   1.745 -1.0477 -0.7456  1.0479
13923SOL     OW42611   1.024   6.814   5.403  0.1237  0.1541  0.0018
13923SOL    HW142612   0.995   6.771   5.484 -0.1682  0.4849  0.0743
13923SOL    HW242613   0.949   6.866   5.375 -0.3460 -1.2095 -1.3630
13924SOL     OW42614   5.929   0.676   3.071 -0.1787 -0.5050 -0.0836
13924SOL    HW142615   5.902   0.714   2.987  0.1333 -1.2982 -0.5505
13924SOL    HW242616   5.854   0.692   3.129 -0.6124 -0.4137 -0.6574
13925SOL     OW42617   3.711   7.052   1.128 -0.2843 -0.1801  0.0833
13925SOL    HW142618   3.663   7.012   1.055  0.3650 -1.4544  0.3327
13925SOL    HW242619   3.662   7.026   1.206 -2.4246  3.1821  0.0790
13926SOL     OW42620   4.379   6.606   0.807 -1.0895 -0.4845  0.3558
13926SOL    HW142621   4.323   6.652   0.869 -2.4786 -0.5217 -0.8214
13926SOL    HW242622   4.350   6.515   0.811  0.1034 -0.8540  1.0134
13927SOL     OW42623   1.595   8.175   1.747 -0.2105 -0.3034 -0.3043
13927SOL    HW142624   1.564   8.259   1.779 -1.7441 -2.1405  3.6851
13927SOL    HW242625   1.689   8.187   1.735 -0.5011  2.1210 -0.5943
13928SOL     OW42626   1.897   1.868   4.491  0.4435 -0.1742  0.0806
13928SOL    HW142627   1.917   1.808   4.419  2.1158 -0.9556  1.1410
13928SOL    HW242628   1.815   1.834   4.528  0.1466 -0.4068 -0.7625
13929SOL     OW42629   2.859   3.413   1.412  0.3666 -0.0582  0.0584
13929SOL    HW142630   2.940   3.415   1.360 -0.0245 -0.2582 -0.5764
13929SOL    HW242631   2.795   3.370   1.355 -0.1461 -0.0520  0.6149
13930SOL     OW42632   1.957   1.736   2.572  0.5135  0.1553 -0.0980
13930SOL    HW142633   1.911   1.791   2.636 -1.3924 -0.5766 -0.7464
13930SOL    HW242634   1.916   1.758   2.488  0.9761 -0.9382 -0.6297
13931SOL     OW42635   3.631   5.790   2.622 -0.1047  0.1300  0.3887
13931SOL    HW142636   3.659   5.833   2.541 -0.6428 -0.3380 -0.0536
13931SOL    HW242637   3.672   5.703   2.617 -1.0088 -0.2900  0.0937
13932SOL     OW42638   6.129   2.899   5.344 -0.2437  0.3557  0.3136
13932SOL    HW142639   6.212   2.874   5.303 -0.5922  0.8125 -0.6962
13932SOL    HW242640   6.106   2.824   5.399  0.3279 -0.2066 -0.1984
13933SOL     OW42641   1.955   6.264   3.468  0.4452 -0.5311  0.2536
13933SOL    HW142642   2.049   6.271   3.481  0.2706  0.3617  1.1666
13933SOL    HW242643   1.942   6.294   3.377  0.9865 -0.1319  0.2998
13934SOL     OW42644   2.863   6.547   6.683 -0.4560 -0.0492 -0.0631
13934SOL    HW142645   2.796   6.549   6.615 -1.0767 -0.0496  0.5342
13934SOL    HW242646   2.814   6.536   6.765  0.1137  1.9188  0.5946
13935SOL     OW42647   1.812   1.584   7.969 -0.4779 -0.2685  0.1024
13935SOL    HW142648   1.843   1.649   7.905 -1.5578  1.7620  1.5172
13935SOL    HW242649   1.879   1.516   7.968  0.5608  0.6848 -1.7019
13936SOL     OW42650   1.082   1.565   1.927  0.4487 -0.0162 -0.1369
13936SOL    HW142651   1.175   1.569   1.905  0.8000 -1.1597  1.0425
13936SOL    HW242652   1.065   1.472   1.946 -0.5033  0.4320  1.4077
13937SOL     OW42653   0.628   7.324   2.148 -0.3625 -0.4024  0.2494
13937SOL    HW142654   0.571   7.390   2.186 -0.7866 -0.9638  0.5869
13937SOL    HW242655   0.592   7.308   2.060 -1.0291 -1.1034  0.6341
13938SOL     OW42656   5.722   7.572   6.343 -0.5153  0.2439 -0.1052
13938SOL    HW142657   5.719   7.662   6.373  2.6061  0.2833  0.5044
13938SOL    HW242658   5.750   7.522   6.421 -2.5030 -1.3426 -0.3322
13939SOL     OW42659   3.165   5.996   0.519 -0.5614 -0.3444  0.5776
13939SOL    HW142660   3.142   6.043   0.599  0.2865 -0.4627  0.8998
13939SOL    HW242661   3.241   6.043   0.485 -1.4678  0.2859 -0.6829
13940SOL     OW42662   1.289   2.022   7.679 -0.2088 -0.1949  0.2819
13940SOL    HW142663   1.292   2.117   7.691 -0.7434  0.1742 -2.0350
13940SOL    HW242664   1.198   2.004   7.655  0.4514 -0.8824 -1.9131
13941SOL     OW42665   7.263   3.845   1.986 -0.2513  0.3959 -0.3703
13941SOL    HW142666   7.302   3.904   1.922  0.7684 -1.6458 -1.7359
13941SOL    HW242667   7.333   3.829   2.049 -0.4602  0.4588 -0.1183
13942SOL     OW42668   5.053   0.760   1.302  0.1849  0.1489  0.3265
13942SOL    HW142669   5.119   0.804   1.250  1.3061  0.7886  2.2076
13942SOL    HW242670   5.087   0.671   1.314 -0.2182 -0.0914 -0.2388
13943SOL     OW42671   4.682   4.304   1.257  0.2547  0.0900 -0.3469
13943SOL    HW142672   4.596   4.339   1.233  0.1259  0.2461  0.3046
13943SOL    HW242673   4.662   4.236   1.322  0.5886 -0.2608 -0.6081
13944SOL     OW42674   4.813   7.499   4.874  0.4194  0.0976 -0.0489
13944SOL    HW142675   4.723   7.492   4.906 -0.0727  0.2050 -1.3270
13944SOL    HW242676   4.826   7.592   4.859  1.1700  0.2209  1.2247
13945SOL     OW42677   7.106   5.507   7.020 -0.6424 -0.1002 -0.0604
13945SOL    HW142678   7.110   5.555   7.103 -0.2313  0.2626 -0.2828
13945SOL    HW242679   7.068   5.422   7.043 -1.1532  0.2412  0.3836
13946SOL     OW42680   5.662   2.438   7.118  0.4359 -0.0779  0.4216
13946SOL    HW142681   5.661   2.448   7.213 -0.8672  1.7170  0.2664
13946SOL    HW242682   5.698   2.521   7.085 -0.1837 -0.2165 -0.6644
13947SOL     OW42683   4.807   0.912   7.145 -0.5086  0.4881 -0.2558
13947SOL    HW142684   4.837   0.832   7.102  0.0638  1.1952 -1.2104
13947SOL    HW242685   4.787   0.886   7.235  2.1056 -0.2251  0.1905
13948SOL     OW42686   6.145   4.298   6.258 -0.4332 -0.4332 -0.1966
13948SOL    HW142687   6.146   4.251   6.342  1.2452  0.5698  0.3907
13948SOL    HW242688   6.236   4.295   6.228 -0.7274  0.5149 -1.2468
13949SOL     OW42689   0.965   3.959   4.882  0.0187 -0.0335  0.5414
13949SOL    HW142690   0.951   4.032   4.821  1.2204 -0.4558 -0.2717
13949SOL    HW242691   0.885   3.956   4.934  0.5407  2.8791  1.6913
13950SOL     OW42692   8.072   2.222   7.772  0.0688 -0.3104  0.2399
13950SOL    HW142693   8.014   2.298   7.786  3.9061  2.3577  4.5539
13950SOL    HW242694   8.135   2.253   7.707 -0.3438 -1.2593 -0.6329
13951SOL     OW42695   5.473   5.072   0.187  0.1349 -0.1560 -0.0395
13951SOL    HW142696   5.398   5.130   0.175 -0.0553 -0.4756 -0.4182
13951SOL    HW242697   5.527   5.116   0.252 -1.0096 -0.5448  1.2246
13952SOL     OW42698   1.307   3.444   8.180  0.0003  0.0683  0.1971
13952SOL    HW142699   1.339   3.364   8.223 -0.0806  0.0741  0.2660
13952SOL    HW242700   1.356   3.515   8.222 -0.9853  0.1931  1.1544
13953SOL     OW42701   4.885   3.737   3.277  0.0012  0.3952 -0.2621
13953SOL    HW142702   4.878   3.831   3.261 -0.7465  0.6441  1.3202
13953SOL    HW242703   4.961   3.728   3.335  0.6289 -0.0835 -1.1533
13954SOL     OW42704   1.661   1.734   0.996 -0.2203 -0.2514 -0.5444
13954SOL    HW142705   1.720   1.804   1.025 -0.2183 -0.2256 -0.6086
13954SOL    HW242706   1.576   1.760   1.030 -0.5489  0.6478 -1.9294
13955SOL     OW42707   0.414   3.290   0.788  0.0421  0.0235  0.0804
13955SOL    HW142708   0.474   3.310   0.860 -0.2793  0.0181  0.3518
13955SOL    HW242709   0.386   3.376   0.756 -1.9353  0.0660  1.7436
13956SOL     OW42710   0.351   2.226   6.304 -0.3816 -0.2742 -0.1200
13956SOL    HW142711   0.430   2.264   6.344  1.1618 -1.4630 -1.8699
13956SOL    HW242712   0.375   2.135   6.285 -1.9176 -0.4582 -1.3735
13957SOL     OW42713   3.119   5.382   3.035 -0.7441  0.0317 -0.4314
13957SOL    HW142714   3.100   5.296   2.998 -3.3574 -0.2751  1.3483
13957SOL    HW242715   3.126   5.366   3.130 -1.7983  1.8397 -0.0111
13958SOL     OW42716   6.443   3.259   0.367 -0.4147 -0.1919 -0.0539
13958SOL    HW142717   6.421   3.237   0.277 -0.5494 -1.4341  0.2541
13958SOL    HW242718   6.361   3.246   0.416  0.3157 -2.4770  0.7051
13959SOL     OW42719   3.877   7.725   1.628 -0.4496 -0.1570  0.9394
13959SOL    HW142720   3.931   7.661   1.674 -0.6795  0.0283  1.4729
13959SOL    HW242721   3.788   7.690   1.632 -0.6875  0.5013  1.8161
13960SOL     OW42722   4.166   5.940   3.116 -0.2056  0.2336  0.5387
13960SOL    HW142723   4.214   6.022   3.127 -2.0961  1.8491 -2.0516
13960SOL    HW242724   4.197   5.905   3.033 -0.4644 -0.9704  0.9223
13961SOL     OW42725   3.435   7.477   0.517  0.3417  0.2131  0.2348
13961SOL    HW142726   3.493   7.407   0.549  2.1071  0.6656 -1.7602
13961SOL    HW242727   3.349   7.435   0.509  1.4904 -2.0476 -1.6412
13962SOL     OW42728   7.630   6.958   2.689  0.2016 -0.1453  0.2169
13962SOL    HW142729   7.692   6.887   2.706  0.8456  0.8709  2.4320
13962SOL    HW242730   7.549   6.929   2.730 -0.1393 -0.4592 -0.6574
13963SOL     OW42731   2.639   7.607   2.669  0.1265 -0.3700 -0.1600
13963SOL    HW142732   2.585   7.607   2.748 -2.3786 -0.1090 -1.7612
13963SOL    HW242733   2.703   7.538   2.683 -0.0741 -0.1417  2.1761
13964SOL     OW42734   7.542   8.007   3.090 -0.0383  0.0283  0.2185
13964SOL    HW142735   7.509   7.979   3.005  2.4195 -0.5874 -0.6107
13964SOL    HW242736   7.631   7.971   3.095  1.3689  3.2838  1.3748
13965SOL     OW42737   2.477   4.269   4.445 -0.5310  0.7743  0.2455
13965SOL    HW142738   2.485   4.349   4.394  0.6770  0.3121 -0.3112
13965SOL    HW242739   2.564   4.229   4.442 -1.6280 -1.7427 -1.4779
13966SOL     OW42740   6.166   3.770   7.854 -0.2258  0.6669 -0.1490
13966SOL    HW142741   6.178   3.842   7.792 -0.0048  0.5405 -0.2536
13966SOL    HW242742   6.156   3.692   7.799 -1.0407  0.6971 -0.0510
13967SOL     OW42743   6.901   4.342   1.340 -0.0308  0.3101  0.4386
13967SOL    HW142744   6.838   4.311   1.405 -0.8242 -0.9820 -0.8681
13967SOL    HW242745   6.919   4.265   1.286 -0.0945  1.5066 -1.3840
13968SOL     OW42746   6.535   7.398   6.826 -0.2982  0.3665 -0.1152
13968SOL    HW142747   6.579   7.320   6.792 -1.0412 -0.1295  0.0264
13968SOL    HW242748   6.441   7.378   6.818 -0.5150  0.2783  2.0779
13969SOL     OW42749   7.790   0.018   0.592 -0.1234  0.0321  0.0615
13969SOL    HW142750   7.784   0.056   0.504  1.2012 -1.3026 -0.6637
13969SOL    HW242751   7.703   0.030   0.630 -0.2680  2.0785 -0.7962
13970SOL     OW42752   0.712   3.502   4.243  0.3410 -0.0163  1.0138
13970SOL    HW142753   0.681   3.582   4.286  2.0407  0.6847  1.0313
13970SOL    HW242754   0.760   3.456   4.312 -1.8572 -1.8583  1.4294
13971SOL     OW42755   1.449   6.069   0.024 -0.6249  0.5126  0.0873
13971SOL    HW142756   1.399   6.093  -0.054 -1.8143  0.4714  0.8107
13971SOL    HW242757   1.501   5.993  -0.004 -1.8635 -0.1997 -0.3844
13972SOL     OW42758   8.092   3.268   7.594  0.2159  0.3376 -0.3583
13972SOL    HW142759   8.164   3.226   7.547  0.4697  0.1045  0.2346
13972SOL    HW242760   8.117   3.361   7.597  0.6482  0.2126  0.1126
13973SOL     OW42761   3.899   4.980   4.252  0.3908  0.1936  0.1152
13973SOL    HW142762   3.989   4.947   4.261  0.5750  0.6571 -0.0039
13973SOL    HW242763   3.905   5.045   4.182  0.1640  0.9770  0.8168
13974SOL     OW42764   0.633   4.288   4.375  0.0335 -0.4055 -0.0946
13974SOL    HW142765   0.564   4.317   4.316 -0.5302  0.1968  0.8408
13974SOL    HW242766   0.711   4.282   4.320  0.2072  2.9129 -0.4030
13975SOL     OW42767   6.315   6.102   3.329  0.3669  0.1039  0.1175
13975SOL    HW142768   6.305   6.012   3.300  1.0704 -0.5423  1.8046
13975SOL    HW242769   6.229   6.142   3.312  0.2084 -0.7042 -1.1175
13976SOL     OW42770   2.869   3.929   5.546 -0.4725  0.5502  0.3846
13976SOL    HW142771   2.797   3.869   5.563 -1.2119  1.1225 -0.5999
13976SOL    HW242772   2.847   4.007   5.596 -0.5632  0.7373  0.0556
13977SOL     OW42773   3.541   4.252   7.363 -0.1590 -0.6009  0.6963
13977SOL    HW142774   3.602   4.285   7.429  0.6463 -1.3732  0.3598
13977SOL    HW242775   3.464   4.309   7.371  0.9256  0.9346  0.5688
13978SOL     OW42776   4.923   6.407   6.747 -0.0360 -0.2123  0.1004
13978SOL    HW142777   5.007   6.411   6.700 -0.8116 -1.9345 -1.6104
13978SOL    HW242778   4.861   6.448   6.687 -0.3056  2.1721  1.8749
13979SOL     OW42779   5.284   1.459   0.974  0.6733  0.1331  0.4846
13979SOL    HW142780   5.339   1.381   0.971 -0.7596 -0.9293  0.3372
13979SOL    HW242781   5.292   1.498   0.887  1.5838  0.2948  0.6361
13980SOL     OW42782   3.065   4.018   0.674 -0.1841  0.4448 -0.9830
13980SOL    HW142783   3.021   3.983   0.752  1.9527  2.7981  1.5105
13980SOL    HW242784   3.092   3.941   0.625 -3.1806 -1.1101 -0.4462
13981SOL     OW42785   7.658   6.350   5.807 -0.2900 -0.6422  0.2035
13981SOL    HW142786   7.740   6.320   5.848 -0.8279 -0.8801  1.1193
13981SOL    HW242787   7.672   6.443   5.791  0.1713 -0.6862  0.3335
13982SOL     OW42788   8.000   4.942   5.624  0.1599 -0.0134 -0.7915
13982SOL    HW142789   8.047   4.894   5.692 -2.1864  0.4584  1.2778
13982SOL    HW242790   7.953   4.874   5.576  0.4263 -0.1744 -0.8313
13983SOL     OW42791   8.072   2.736   5.014  0.3247  0.0272 -0.0829
13983SOL    HW142792   8.020   2.765   5.089  0.5843 -0.7686  0.4179
13983SOL    HW242793   8.150   2.695   5.053  0.1037 -1.0815 -0.7543
13984SOL     OW42794   2.859   5.628   3.505 -0.4318  0.1068  0.5346
13984SOL    HW142795   2.788   5.638   3.569 -1.4302 -1.2196 -0.3087
13984SOL    HW242796   2.839   5.546   3.460  1.8574 -0.4743  0.4940
13985SOL     OW42797   1.654   2.921   2.557 -0.7707 -0.3876 -0.5821
13985SOL    HW142798   1.616   2.884   2.636 -0.7434  0.1130 -0.3251
13985SOL    HW242799   1.592   2.989   2.530 -0.0295  0.5202 -0.0907
13986SOL     OW42800   1.283   1.091   5.164 -0.3574 -0.2550 -0.8321
13986SOL    HW142801   1.204   1.142   5.178  0.7125  1.5646 -1.1305
13986SOL    HW242802   1.321   1.082   5.252 -1.0401 -1.4481 -0.6334
13987SOL     OW42803   2.966   3.740   5.817  0.3519  0.1931  0.4371
13987SOL    HW142804   3.029   3.668   5.828 -0.6450 -0.6319  0.9327
13987SOL    HW242805   2.882   3.696   5.804 -0.2441  1.2822  0.5020
13988SOL     OW42806   2.501   3.334   5.728  0.2257 -0.3769 -0.0402
13988SOL    HW142807   2.428   3.273   5.732  0.4836 -0.6488  0.6663
13988SOL    HW242808   2.510   3.355   5.635 -1.5460  0.6450 -0.0278
13989SOL     OW42809   1.240   2.535   1.968 -0.1152  0.4249 -0.1392
13989SOL    HW142810   1.247   2.448   1.929  0.9521  1.3967 -2.2989
13989SOL    HW242811   1.146   2.554   1.968 -0.4368 -0.9368  1.0132
13990SOL     OW42812   2.816   5.530   2.308  0.0875 -0.7829 -0.5025
13990SOL    HW142813   2.767   5.601   2.266 -0.6977 -0.8167  0.3294
13990SOL    HW242814   2.886   5.575   2.356  0.0519 -0.6263 -0.5977
13991SOL     OW42815   4.510   3.878   5.781 -0.0487  0.0947  0.3431
13991SOL    HW142816   4.592   3.830   5.779  1.9863  3.2835 -1.0778
13991SOL    HW242817   4.489   3.888   5.874  1.3219 -0.5173  0.7333
13992SOL     OW42818   7.013   1.628   4.560 -0.4546  0.2357  0.2720
13992SOL    HW142819   6.962   1.703   4.591 -1.7821  0.0173 -1.2557
13992SOL    HW242820   6.965   1.596   4.485  1.1988 -0.9091 -0.3549
13993SOL     OW42821   3.431   5.798   7.521 -0.0122 -0.0300 -0.7042
13993SOL    HW142822   3.337   5.782   7.519 -0.3470  1.3263  1.2088
13993SOL    HW242823   3.468   5.733   7.462 -2.1016 -0.9149 -1.1146
13994SOL     OW42824   3.683   0.609   0.373  0.1756 -0.4085 -0.5666
13994SOL    HW142825   3.677   0.703   0.359 -0.7942 -0.3494  0.0841
13994SOL    HW242826   3.665   0.597   0.466 -1.4182 -1.3457 -0.9445
13995SOL     OW42827   4.101   5.892   7.259 -0.2507 -0.2411  0.0037
13995SOL    HW142828   4.176   5.857   7.211 -0.6875 -0.6799 -0.3581
13995SOL    HW242829   4.137   5.966   7.308  0.6012 -0.9356  0.4601
13996SOL     OW42830   0.696   0.711   1.654 -0.0391  0.3415 -0.0707
13996SOL    HW142831   0.690   0.740   1.563  0.8974 -1.0847 -0.6184
13996SOL    HW242832   0.703   0.616   1.648 -1.4668  0.0817  1.5806
13997SOL     OW42833   1.401   6.427   3.435  0.0356 -0.2668  0.0539
13997SOL    HW142834   1.307   6.438   3.419  0.0803 -1.9034 -1.7643
13997SOL    HW242835   1.407   6.356   3.499  0.0396 -0.5391 -0.2475
13998SOL     OW42836   1.904   2.580   6.145  0.7776  0.3755 -0.2091
13998SOL    HW142837   1.883   2.525   6.221  0.3311 -1.8881 -1.8553
13998SOL    HW242838   1.992   2.614   6.164  0.4649  0.3048  1.5359
13999SOL     OW42839   7.503   4.095   0.512 -0.2695 -0.6076  0.5138
13999SOL    HW142840   7.580   4.144   0.541 -2.1063  2.3912  0.7306
13999SOL    HW242841   7.515   4.085   0.418  0.5333 -0.5072  0.5994
14000SOL     OW42842   3.331   0.064   0.144 -0.3353 -0.2456  0.3644
14000SOL    HW142843   3.334  -0.032   0.134 -1.8722 -0.4552  1.5085
14000SOL    HW242844   3.253   0.079   0.198  0.7280  1.5534  1.4515
14001SOL     OW42845   0.299   5.138   6.806  0.1014  0.2711 -0.0538
14001SOL    HW142846   0.318   5.058   6.756  0.1713  1.5536 -2.1805
14001SOL    HW242847   0.219   5.172   6.767 -0.8097  0.4380  1.8842
14002SOL     OW42848   4.895   5.431   5.649 -0.9774 -0.2865 -0.2507
14002SOL    HW142849   4.931   5.345   5.669  0.4089  0.6180  1.4512
14002SOL    HW242850   4.869   5.467   5.734 -1.9192  0.8220 -0.9721
14003SOL     OW42851   0.810   3.953   3.180  0.1023 -0.0400  0.5589
14003SOL    HW142852   0.886   4.005   3.206 -0.5655  1.7237 -0.8307
14003SOL    HW242853   0.735   4.010   3.197 -0.5665  0.0172 -2.2035
14004SOL     OW42854   4.551   1.984   4.870  0.1377 -0.0029 -0.0306
14004SOL    HW142855   4.472   1.997   4.819 -0.1732  1.1017  0.7102
14004SOL    HW242856   4.601   1.918   4.821 -0.4678  0.5101 -1.3691
14005SOL     OW42857   0.622   1.483   2.882  0.2484 -0.2748 -0.1650
14005SOL    HW142858   0.608   1.460   2.790 -0.9733 -1.5281  0.2904
14005SOL    HW242859   0.681   1.415   2.915  1.2242  0.5553 -0.1691
14006SOL     OW42860   3.751   0.536   6.133 -0.4260 -0.0365 -0.3223
14006SOL    HW142861   3.705   0.612   6.168 -0.2020 -0.5725  1.2430
14006SOL    HW242862   3.821   0.520   6.196  0.6783 -0.4370 -1.6135
14007SOL     OW42863   5.014   4.097   7.936 -0.4410  0.0742  0.2967
14007SOL    HW142864   5.070   4.062   8.005 -0.2360 -0.7284 -0.2642
14007SOL    HW242865   4.944   4.143   7.983 -0.7628 -1.1521  1.0583
14008SOL     OW42866   3.721   1.600   4.556  0.3912  0.0042 -0.5676
14008SOL    HW142867   3.684   1.512   4.561 -0.1742  0.2305 -0.7009
14008SOL    HW242868   3.647   1.656   4.535  0.6589  0.5747 -0.0191
14009SOL     OW42869   7.624   2.954   4.400  0.2756  0.5906  0.4658
14009SOL    HW142870   7.703   2.965   4.348  0.1303  1.7664  0.4840
14009SOL    HW242871   7.617   2.859   4.411  0.9954  0.3929 -0.5826
14010SOL     OW42872   2.004   1.081   4.766  0.2138 -0.8553  0.0664
14010SOL    HW142873   2.041   1.068   4.679 -1.7235  1.4499 -1.2340
14010SOL    HW242874   1.912   1.056   4.756 -0.4039  0.8773  0.9698
14011SOL     OW42875   6.475   2.872   1.268  0.6535 -0.0074  0.2246
14011SOL    HW142876   6.467   2.910   1.180 -1.8306  1.2496  0.8672
14011SOL    HW242877   6.569   2.873   1.287  1.3644 -1.2062 -2.7319
14012SOL     OW42878   8.019   0.698   6.163 -0.1052  0.2862 -0.6005
14012SOL    HW142879   7.993   0.677   6.074  1.6485 -0.6215 -0.9457
14012SOL    HW242880   8.026   0.794   6.163 -2.3417  0.5012 -0.7318
14013SOL     OW42881   6.754   4.886   1.794  0.4607  0.2832  0.9708
14013SOL    HW142882   6.761   4.908   1.701  0.7975 -0.5576  0.7937
14013SOL    HW242883   6.682   4.941   1.825  0.1847  0.4007  0.1600
14014SOL     OW42884   0.349   4.862   2.007 -0.0994 -0.2257 -0.4204
14014SOL    HW142885   0.400   4.942   2.015 -0.0289 -0.3841  0.9129
14014SOL    HW242886   0.361   4.817   2.091  2.0311 -2.9332 -1.9972
14015SOL     OW42887   1.892   7.626   7.450 -0.1643  0.7065 -0.1887
14015SOL    HW142888   1.951   7.691   7.489  0.1998  0.9384 -1.0925
14015SOL    HW242889   1.876   7.563   7.520  0.8562  0.8549  0.1932
14016SOL     OW42890   6.904   7.320   5.512  0.2340 -0.0945  0.0957
14016SOL    HW142891   6.903   7.402   5.561 -0.2270  1.2246 -1.9653
14016SOL    HW242892   6.996   7.310   5.485  0.1851  0.0790 -0.1434
14017SOL     OW42893   4.773   7.901   2.356 -0.2295 -0.0085  0.4514
14017SOL    HW142894   4.829   7.935   2.426 -1.0403  0.6101  0.8199
14017SOL    HW242895   4.706   7.851   2.402 -0.6172  0.1894  0.1068
14018SOL     OW42896   1.208   1.433   5.250  0.6332 -0.6715 -0.0680
14018SOL    HW142897   1.295   1.446   5.287  0.0516  2.5362  0.4709
14018SOL    HW242898   1.161   1.382   5.317  0.5768  2.2157  2.3055
14019SOL     OW42899   1.130   2.622   7.020  0.4172  0.1190  0.1926
14019SOL    HW142900   1.131   2.705   6.971  0.9718  1.0151  1.6739
14019SOL    HW242901   1.046   2.583   6.996 -0.5898  1.8667  0.6551
14020SOL     OW42902   7.218   3.220   4.245  0.5818 -0.2795 -0.3026
14020SOL    HW142903   7.268   3.162   4.303 -0.0797 -2.3746 -1.7052
14020SOL    HW242904   7.131   3.181   4.242 -0.3207  1.6551 -0.1970
14021SOL     OW42905   2.551   0.659   6.127  0.1653  0.2390  0.6706
14021SOL    HW142906   2.531   0.625   6.039 -0.8907 -1.7662  1.6314
14021SOL    HW242907   2.589   0.584   6.173  0.1216  1.0923  2.1373
14022SOL     OW42908   1.586   7.801   2.446 -0.1242 -0.2884  0.3003
14022SOL    HW142909   1.674   7.772   2.469  0.6293  0.9481 -0.8571
14022SOL    HW242910   1.592   7.896   2.441 -1.0925 -0.2653 -1.3839
14023SOL     OW42911   5.451   3.784   0.285 -0.2159  0.0321 -0.7805
14023SOL    HW142912   5.401   3.714   0.242 -0.9648  1.3385 -2.1252
14023SOL    HW242913   5.388   3.826   0.344 -0.3287  0.8027 -1.4394
14024SOL     OW42914   5.173   7.149   5.810 -0.5853  0.1792 -0.3415
14024SOL    HW142915   5.111   7.140   5.883 -0.2631  0.6120 -0.0089
14024SOL    HW242916   5.182   7.060   5.776  0.7211 -0.4028  1.3690
14025SOL     OW42917   4.480   5.830   0.797 -0.1964  0.0805 -0.0256
14025SOL    HW142918   4.427   5.763   0.840  1.0345 -0.4725  0.7104
14025SOL    HW242919   4.425   5.863   0.726 -0.8076 -1.7711 -0.4707
14026SOL     OW42920   1.611   7.674   0.506 -0.1572 -0.5912  0.2523
14026SOL    HW142921   1.562   7.714   0.578  0.1612  0.3060 -0.0117
14026SOL    HW242922   1.690   7.640   0.548 -0.1562 -0.4222  0.3898
14027SOL     OW42923   0.605   2.506   7.364  0.1287 -0.1235  0.0858
14027SOL    HW142924   0.556   2.558   7.300 -0.8116 -0.2455  0.6816
14027SOL    HW242925   0.564   2.527   7.448  0.4988 -0.9376  0.4759
14028SOL     OW42926   2.027   2.732   3.781 -0.3046 -0.1819  0.4212
14028SOL    HW142927   2.060   2.643   3.764 -2.5851 -1.0878  0.4577
14028SOL    HW242928   2.010   2.733   3.876 -0.8863  0.0616  0.3178
14029SOL     OW42929   5.708   4.709   2.303 -0.5535 -0.5588  0.5224
14029SOL    HW142930   5.751   4.644   2.249 -2.3341 -0.4183 -1.1731
14029SOL    HW242931   5.741   4.693   2.392  1.4095 -1.6780 -0.3595
14030SOL     OW42932   8.043   6.167   0.301 -0.4264  0.6306 -0.2913
14030SOL    HW142933   8.028   6.230   0.371  0.1461  0.2737  0.1654
14030SOL    HW242934   8.138   6.166   0.290 -0.3383 -0.8044  0.3467
14031SOL     OW42935   0.013   2.301   0.088  0.0202 -0.2784 -0.4206
14031SOL    HW142936   0.102   2.265   0.083  0.8334  1.6442 -0.7084
14031SOL    HW242937  -0.021   2.292  -0.001  1.2700  2.0279 -1.2366
14032SOL     OW42938   3.735   6.287   4.175 -0.0867  0.2146  0.6922
14032SOL    HW142939   3.677   6.360   4.196 -0.5117  0.0228  0.2019
14032SOL    HW242940   3.805   6.325   4.123  0.9302  0.6807  2.3269
14033SOL     OW42941   2.558   2.706   1.425  0.4900  0.7322  0.1515
14033SOL    HW142942   2.520   2.633   1.376  0.4537 -0.3174  1.6972
14033SOL    HW242943   2.556   2.678   1.516  2.4893  1.7533  0.5635
14034SOL     OW42944   6.492   0.018   3.265 -0.3583 -0.1455 -0.4916
14034SOL    HW142945   6.426   0.085   3.282  1.0290  1.7928 -2.2932
14034SOL    HW242946   6.575   0.065   3.265  0.9036 -2.2567  0.2318
14035SOL     OW42947   6.960   2.151   6.007  0.0090 -0.3369  0.6095
14035SOL    HW142948   7.055   2.155   6.020  0.0370  2.2021  0.0734
14035SOL    HW242949   6.923   2.159   6.095  0.2670 -0.4682  0.7325
14036SOL     OW42950   2.589   5.408   0.561 -0.0993  0.1200 -0.3233
14036SOL    HW142951   2.621   5.488   0.520  0.2272  0.8351  1.2537
14036SOL    HW242952   2.625   5.410   0.649 -1.6642 -0.8000  0.3806
14037SOL     OW42953   4.913   6.262   1.149 -0.1001  0.5265  0.2298
14037SOL    HW142954   4.832   6.301   1.184 -0.0143 -0.3918  1.5432
14037SOL    HW242955   4.950   6.215   1.224  1.0717 -0.0079 -0.6664
14038SOL     OW42956   6.384   1.932   2.314  0.0458  0.1152  0.1978
14038SOL    HW142957   6.452   1.893   2.369  0.0485  0.5327  0.4967
14038SOL    HW242958   6.337   1.857   2.277 -0.8945 -0.1976  1.9149
14039SOL     OW42959   1.246   3.045   0.731  0.0540 -0.2738  0.0521
14039SOL    HW142960   1.270   2.953   0.732  1.3147  0.0320  0.0841
14039SOL    HW242961   1.151   3.046   0.745 -0.0102 -1.5636 -0.1754
14040SOL     OW42962   1.075   1.319   4.494  0.6666  0.4914  0.1162
14040SOL    HW142963   1.088   1.260   4.568  1.8926  2.2196  1.3541
14040SOL    HW242964   1.126   1.280   4.423 -0.8530 -1.4057 -0.0214
14041SOL     OW42965   0.788   7.475   4.925 -0.1551  0.4162 -0.3655
14041SOL    HW142966   0.742   7.410   4.872 -0.4675 -2.2406  2.8196
14041SOL    HW242967   0.864   7.501   4.872 -1.4278 -0.5738 -2.8026
14042SOL     OW42968   5.060   0.388   0.505  0.0152 -0.0345  0.1789
14042SOL    HW142969   5.021   0.414   0.588  0.0633  1.3655 -0.2190
14042SOL    HW242970   5.151   0.416   0.511  0.2878 -0.8604  0.0453
14043SOL     OW42971   4.917   7.131   0.465 -0.3876 -0.0061  0.2524
14043SOL    HW142972   4.822   7.137   0.477 -0.3200 -1.4221  1.9450
14043SOL    HW242973   4.952   7.136   0.553  1.0385 -0.5602 -0.2589
14044SOL     OW42974   5.865   2.275   5.098 -0.1206  0.2115  0.3433
14044SOL    HW142975   5.813   2.239   5.170  0.3331 -0.8985  0.1441
14044SOL    HW242976   5.954   2.244   5.115  0.4151  1.7541  0.4652
14045SOL     OW42977   2.198   4.416   1.378 -0.3478 -0.4448 -0.2951
14045SOL    HW142978   2.170   4.330   1.408  1.4442 -0.9112  0.1431
14045SOL    HW242979   2.293   4.409   1.371 -0.1349  1.6058  0.0622
14046SOL     OW42980   7.335   1.674   6.465 -0.0159 -0.0386  0.9051
14046SOL    HW142981   7.316   1.666   6.558  1.5927 -1.6285  1.1616
14046SOL    HW242982   7.401   1.606   6.448  2.8714  2.8082 -0.4719
14047SOL     OW42983   0.430   3.352   2.880 -0.4242  0.0301 -0.3012
14047SOL    HW142984   0.368   3.368   2.951  1.5052 -1.5603  1.8566
14047SOL    HW242985   0.429   3.433   2.829 -1.7299  1.3163  1.6371
14048SOL     OW42986   7.114   5.577   7.283  0.3627  0.1878 -0.2287
14048SOL    HW142987   7.022   5.596   7.302  0.1748 -1.3109  0.4898
14048SOL    HW242988   7.157   5.576   7.369  0.6914 -0.8073 -0.3898
14049SOL     OW42989   0.914   3.366   5.627 -0.1995  0.4462 -0.0409
14049SOL    HW142990   0.862   3.420   5.686 -0.5623  1.0455 -0.8797
14049SOL    HW242991   0.972   3.428   5.583  0.9782 -0.1641  0.6048
14050SOL     OW42992   4.703   5.479   2.716  0.4990 -0.1753  0.2247
14050SOL    HW142993   4.682   5.450   2.627  0.1265 -1.1761  0.6212
14050SOL    HW242994   4.795   5.506   2.711 -0.0342  1.5826 -0.8826
14051SOL     OW42995   2.804   0.261   2.947 -0.5023  0.5858  0.1026
14051SOL    HW142996   2.738   0.291   3.010 -0.7238  0.6921 -0.1823
14051SOL    HW242997   2.861   0.336   2.934  1.0115 -0.1250  2.0390
14052SOL     OW42998   4.585   3.160   5.217 -0.5789 -0.1418  0.1024
14052SOL    HW142999   4.627   3.230   5.167 -0.7948  0.0111  0.1315
14052SOL    HW243000   4.493   3.188   5.223 -0.9578 -1.0820 -1.0383
14053SOL     OW43001   6.392   7.195   6.504  0.2744 -0.4522  0.1700
14053SOL    HW143002   6.322   7.145   6.462  0.8888 -2.0307  0.9433
14053SOL    HW243003   6.419   7.141   6.578  1.0016  1.0387  1.0426
14054SOL     OW43004   0.651   5.944   6.862 -0.1364 -0.0603 -0.5487
14054SOL    HW143005   0.665   5.862   6.816 -0.5933 -1.2403  1.2854
14054SOL    HW243006   0.558   5.963   6.850 -0.3137 -0.5041  0.0459
14055SOL     OW43007   5.440   7.099   7.451 -0.3073  0.0395  0.0798
14055SOL    HW143008   5.346   7.102   7.436  0.0157  1.3370 -2.1337
14055SOL    HW243009   5.468   7.191   7.451  1.2396 -0.3674 -1.7033
14056SOL     OW43010   3.281   3.019   5.501  0.2023  0.3875 -0.4953
14056SOL    HW143011   3.192   3.019   5.537  0.8320 -0.7491  1.2282
14056SOL    HW243012   3.317   2.934   5.527  1.9588  1.0208 -0.7215
14057SOL     OW43013   4.148   5.352   2.653 -0.1232 -0.2681  0.4070
14057SOL    HW143014   4.082   5.422   2.649 -0.7221 -0.8593 -0.4076
14057SOL    HW243015   4.220   5.384   2.599 -0.2612 -0.1447  0.2946
14058SOL     OW43016   1.042   2.493   6.006  0.3866 -0.5322  0.0323
14058SOL    HW143017   1.135   2.514   6.013  0.3368 -0.6465  1.3205
14058SOL    HW243018   1.026   2.486   5.912  1.2824  1.2558 -0.2984
14059SOL     OW43019   4.896   3.754   7.595 -0.2484 -0.2002 -0.1720
14059SOL    HW143020   4.886   3.709   7.679  0.1895 -1.3059 -0.6815
14059SOL    HW243021   4.903   3.847   7.617  0.9695 -0.5611  1.1171
14060SOL     OW43022   1.374   8.083   2.412  0.0922  0.3660  0.3268
14060SOL    HW143023   1.350   7.994   2.387 -0.1218  0.2611  0.8923
14060SOL    HW243024   1.393   8.078   2.506  0.8019  0.7669  0.2199
14061SOL     OW43025   0.736   7.391   2.616 -0.1707  0.2167 -0.0222
14061SOL    HW143026   0.776   7.330   2.677 -1.7068 -0.9076 -0.0856
14061SOL    HW243027   0.802   7.404   2.548  0.0371 -1.7463 -0.2459
14062SOL     OW43028   4.128   3.953   2.173  0.2118 -0.6153  0.5893
14062SOL    HW143029   4.177   3.924   2.096  0.9832 -0.3337  0.9728
14062SOL    HW243030   4.047   3.990   2.136 -0.9844 -3.4230  0.0841
14063SOL     OW43031   3.382   7.229   7.680 -0.8354  0.2207  0.2302
14063SOL    HW143032   3.294   7.192   7.689 -0.8678  0.4706  1.0212
14063SOL    HW243033   3.402   7.265   7.766 -0.9754  2.4100 -0.5926
14064SOL     OW43034   1.555   2.206   3.078 -0.1756 -0.0459 -0.2466
14064SOL    HW143035   1.518   2.292   3.095  0.2031 -0.0946  0.9259
14064SOL    HW243036   1.483   2.155   3.040 -0.3097  0.8591 -1.2456
14065SOL     OW43037   1.357   0.937   3.676  0.0937  0.8195  0.0382
14065SOL    HW143038   1.334   0.979   3.594  1.3581  2.6546  0.5636
14065SOL    HW243039   1.447   0.906   3.663  0.4391  1.4480  0.8314
14066SOL     OW43040   3.500   7.601   2.526  0.1527  0.2432  0.4362
14066SOL    HW143041   3.492   7.649   2.608 -0.9016 -0.3401  0.6997
14066SOL    HW243042   3.583   7.553   2.534  0.0435  0.1636  1.1841
14067SOL     OW43043   1.395   3.174   0.550  0.2145  0.1687 -0.3105
14067SOL    HW143044   1.409   3.251   0.605  0.4222 -0.1709  0.1208
14067SOL    HW243045   1.334   3.120   0.600  0.0383  0.0691 -0.6306
14068SOL     OW43046   5.587   4.423   4.882 -0.3119  0.3076  0.0208
14068SOL    HW143047   5.574   4.428   4.977 -0.3663  0.4706  0.0056
14068SOL    HW243048   5.499   4.413   4.846 -0.2413 -0.3958  0.0239
14069SOL     OW43049   1.699   2.848   7.697 -0.0090  0.9788  0.1108
14069SOL    HW143050   1.750   2.925   7.672 -0.9489  1.5744  0.0053
14069SOL    HW243051   1.742   2.776   7.651  2.3867  1.0011  2.0698
14070SOL     OW43052   6.900   5.682   3.973  0.0111 -0.7070 -0.2064
14070SOL    HW143053   6.830   5.725   3.925  1.1062 -0.6008 -1.7712
14070SOL    HW243054   6.934   5.616   3.913 -0.3519 -2.4687  1.4358
14071SOL     OW43055   0.837   3.924   1.161 -0.7801  0.1252 -0.1618
14071SOL    HW143056   0.784   3.942   1.238 -0.2514  0.8157  0.0530
14071SOL    HW243057   0.847   4.009   1.118 -0.9936 -0.2311 -0.9494
14072SOL     OW43058   5.859   0.078   0.173 -0.1987  0.3225 -0.3766
14072SOL    HW143059   5.824   0.157   0.214 -0.4681 -0.2974  0.6369
14072SOL    HW243060   5.950   0.074   0.202 -0.0022  0.5839 -0.9399
14073SOL     OW43061   2.105   0.632   2.832  0.3623  0.0521 -0.0276
14073SOL    HW143062   2.075   0.723   2.826  1.0434  0.3507  0.8068
14073SOL    HW243063   2.199   0.639   2.848  0.6473 -0.8341 -1.1880
14074SOL     OW43064   8.156   8.133   7.609 -0.5052  1.0088 -0.0030
14074SOL    HW143065   8.147   8.104   7.700 -0.3337  1.3244  0.1175
14074SOL    HW243066   8.210   8.211   7.615  0.0291  0.6795 -0.4366
14075SOL     OW43067   5.718   5.919   1.725 -0.3296 -0.7251 -0.1431
14075SOL    HW143068   5.733   5.879   1.639 -0.5212  0.5444 -0.7951
14075SOL    HW243069   5.801   5.907   1.771 -0.2876 -1.5951 -0.4283
14076SOL     OW43070   4.428   2.608   4.412 -1.2866  0.2666  0.4458
14076SOL    HW143071   4.447   2.591   4.504 -1.7795  1.2492  0.7402
14076SOL    HW243072   4.437   2.523   4.370 -1.2422 -0.2299  1.4344
14077SOL     OW43073   5.996   0.527   5.416 -0.0597  0.8118  0.2388
14077SOL    HW143074   6.070   0.512   5.357 -1.2654 -0.5301 -1.0302
14077SOL    HW243075   5.941   0.449   5.406 -0.7853  0.9673  2.4827
14078SOL     OW43076   4.606   4.177   0.806  0.4119  0.2621  1.0747
14078SOL    HW143077   4.670   4.127   0.755  1.4134  2.7509 -0.3111
14078SOL    HW243078   4.646   4.186   0.892  0.6911 -0.4123  1.0250
14079SOL     OW43079   2.817   7.285   5.013 -0.0931 -0.4253 -0.2662
14079SOL    HW143080   2.762   7.243   5.079  0.2305 -0.9000 -0.2959
14079SOL    HW243081   2.905   7.251   5.029 -0.1344 -1.1442 -1.4229
14080SOL     OW43082   1.393   7.046   2.101 -0.6245  0.2659  0.7004
14080SOL    HW143083   1.388   6.984   2.029 -0.9042 -1.0743  1.8220
14080SOL    HW243084   1.468   7.102   2.080  0.0194 -0.8478 -0.0446
14081SOL     OW43085   5.885   6.904   1.566 -0.0256  0.8385 -0.3846
14081SOL    HW143086   5.796   6.924   1.537 -0.0634  1.0557 -0.1296
14081SOL    HW243087   5.882   6.917   1.661 -0.0786 -0.4843 -0.1911
14082SOL     OW43088   4.126   3.664   3.478  0.1926  0.2213  0.2313
14082SOL    HW143089   4.108   3.758   3.476 -1.1551 -0.0234 -0.2402
14082SOL    HW243090   4.091   3.634   3.562 -1.6382 -0.2292 -0.6238
14083SOL     OW43091   4.640   6.499   4.012 -0.8176  0.0611 -0.7467
14083SOL    HW143092   4.598   6.531   3.932  0.0453  0.2655 -1.1343
14083SOL    HW243093   4.730   6.477   3.985 -0.9508 -1.3067 -0.1681
14084SOL     OW43094   3.039   6.764   6.170  0.4218 -0.2565  0.1177
14084SOL    HW143095   3.054   6.693   6.109 -0.4421  0.3463 -0.8222
14084SOL    HW243096   3.037   6.843   6.116 -0.8144  0.2428  0.8555
14085SOL     OW43097   3.810   3.066   1.800  0.0696  0.6663 -0.3095
14085SOL    HW143098   3.887   3.009   1.810 -0.7471 -0.5121 -0.5644
14085SOL    HW243099   3.813   3.124   1.877  2.4993  2.2767 -1.4827
14086SOL     OW43100   5.752   5.415   1.446  0.0780 -0.0890  0.1345
14086SOL    HW143101   5.788   5.383   1.364  0.8003  1.1072 -0.0405
14086SOL    HW243102   5.791   5.359   1.513  1.3612  0.4236 -0.1577
14087SOL     OW43103   3.063   6.048   4.940 -0.5703 -0.1472  0.3997
14087SOL    HW143104   2.980   6.007   4.961 -0.5961 -0.1493  0.2946
14087SOL    HW243105   3.065   6.052   4.844  1.1524 -3.5362  0.1244
14088SOL     OW43106   2.683   0.144   4.300 -0.0354  0.9905  0.0659
14088SOL    HW143107   2.656   0.193   4.378 -1.2082 -0.1434  0.4078
14088SOL    HW243108   2.685   0.053   4.329  3.2062  0.8648 -0.2598
14089SOL     OW43109   3.355   2.592   0.403 -0.0141 -0.2576  0.0649
14089SOL    HW143110   3.407   2.516   0.375 -0.3297 -0.2567 -0.5317
14089SOL    HW243111   3.345   2.580   0.498 -0.9837 -1.5534 -0.1735
14090SOL     OW43112   3.536   2.191   6.886  0.5717 -0.0056 -0.3579
14090SOL    HW143113   3.607   2.146   6.931 -0.3764 -0.2023  1.0007
14090SOL    HW243114   3.481   2.226   6.956 -1.3737 -0.9466 -1.3192
14091SOL     OW43115   4.800   1.218   7.334 -0.6020 -0.2512  0.5962
14091SOL    HW143116   4.800   1.208   7.238  1.2213 -0.2602  0.5668
14091SOL    HW243117   4.764   1.305   7.349  0.1072  0.1830 -0.1687
14092SOL     OW43118   7.570   2.884   7.930  0.4077  0.1091 -0.1894
14092SOL    HW143119   7.605   2.876   7.841  2.6975  1.2035  0.5325
14092SOL    HW243120   7.501   2.950   7.923  0.4879  0.1004 -1.1686
14093SOL     OW43121   5.600   3.338   7.592 -0.6109 -0.4093 -0.2569
14093SOL    HW143122   5.525   3.301   7.638 -1.7634  1.2699 -0.6594
14093SOL    HW243123   5.670   3.340   7.657 -1.5378 -0.1223  0.7630
14094SOL     OW43124   0.668   3.102   7.851 -0.1568 -0.2470 -0.1750
14094SOL    HW143125   0.655   3.081   7.758 -2.4824  1.0777 -0.1984
14094SOL    HW243126   0.584   3.082   7.892  1.2130 -2.0819  1.9646
14095SOL     OW43127   6.273   0.962   1.849 -0.0646  0.0781 -0.0202
14095SOL    HW143128   6.337   1.025   1.883 -0.9349  1.3070 -0.5732
14095SOL    HW243129   6.212   1.016   1.797 -1.5649 -1.0339  0.5200
14096SOL     OW43130   2.726   2.683   1.149  0.2873 -0.2825 -0.0599
14096SOL    HW143131   2.694   2.632   1.224 -2.0327  1.1719  0.0731
14096SOL    HW243132   2.702   2.773   1.171  2.2945  0.6062 -1.2481
14097SOL     OW43133   3.708   6.279   0.991 -0.3926  0.1163 -0.3023
14097SOL    HW143134   3.717   6.348   0.927  1.1051  1.6298  1.4180
14097SOL    HW243135   3.750   6.313   1.070  0.3956 -2.7302  0.6603
14098SOL     OW43136   0.122   8.154   5.099 -0.5655 -0.5766  0.1096
14098SOL    HW143137   0.031   8.180   5.089 -0.1323  0.6655 -0.9618
14098SOL    HW243138   0.172   8.234   5.079  0.7622 -1.3380  0.2526
14099SOL     OW43139   5.482   5.595   1.970  0.3727 -0.3647  0.0176
14099SOL    HW143140   5.506   5.671   1.916  0.3592 -0.7793 -0.5854
14099SOL    HW243141   5.487   5.521   1.910 -0.0690 -0.7811  0.4875
14100SOL     OW43142   6.368   2.498   4.995  0.1388 -0.1215  0.5438
14100SOL    HW143143   6.288   2.498   5.047 -0.6728  1.0245 -0.6286
14100SOL    HW243144   6.413   2.417   5.019 -1.3740 -0.7888  1.2285
14101SOL     OW43145   3.892   4.256   3.535  0.0196 -0.2044  0.0979
14101SOL    HW143146   3.948   4.268   3.611  0.7893  1.5664 -0.6889
14101SOL    HW243147   3.809   4.226   3.571  0.7923 -0.7703  1.4881
14102SOL     OW43148   2.455   6.713   0.296 -0.3079  0.9464  0.2793
14102SOL    HW143149   2.487   6.786   0.242  1.4883  1.9832  2.5447
14102SOL    HW243150   2.527   6.649   0.295 -1.0142  0.1414 -0.0038
14103SOL     OW43151   4.001   6.222   7.317 -0.0602  0.1033  0.3749
14103SOL    HW143152   3.951   6.142   7.299  3.2708 -1.4582 -3.3216
14103SOL    HW243153   3.954   6.290   7.270  0.7029 -1.2205 -2.5442
14104SOL     OW43154   2.700   2.858   0.388 -0.5832  0.3279  0.0284
14104SOL    HW143155   2.669   2.789   0.330  2.6314 -0.0837 -1.3760
14104SOL    HW243156   2.743   2.812   0.460 -1.5437  0.8844  0.9857
14105SOL     OW43157   0.270   7.773   5.001 -0.2346  0.8554  0.1137
14105SOL    HW143158   0.228   7.803   5.082 -1.9593  0.9026 -0.7419
14105SOL    HW243159   0.209   7.799   4.932 -0.7193 -2.5518 -0.9140
14106SOL     OW43160   5.514   4.243   5.791 -0.0303  0.1973  0.0743
14106SOL    HW143161   5.437   4.191   5.815  0.5245  0.0998  1.8206
14106SOL    HW243162   5.579   4.179   5.763 -0.2764  0.2050 -0.5267
14107SOL     OW43163   3.808   6.034   1.084 -0.1520  0.5372  0.5375
14107SOL    HW143164   3.793   5.950   1.039 -0.6480  0.2207  1.2615
14107SOL    HW243165   3.785   6.100   1.020  0.3688  0.1218 -0.0905
14108SOL     OW43166   1.537   3.918   7.434 -0.1994  0.0609 -0.1167
14108SOL    HW143167   1.446   3.946   7.445 -0.7238 -0.7826 -1.9452
14108SOL    HW243168   1.536   3.826   7.460  0.2072  0.1294  0.1455
14109SOL     OW43169   3.747   2.985   1.391 -0.7179 -0.2291  0.1610
14109SOL    HW143170   3.766   2.894   1.417 -1.3607 -0.3197  0.3415
14109SOL    HW243171   3.821   3.035   1.424 -1.4256 -0.3671  2.0457
14110SOL     OW43172   4.640   0.761   4.963  0.0066  0.1489 -0.0881
14110SOL    HW143173   4.700   0.802   5.026  0.1220  0.0327 -0.1210
14110SOL    HW243174   4.582   0.707   5.017 -0.8229  1.1664  0.0620
14111SOL     OW43175   4.681   0.132   0.392  0.0570 -0.5404 -0.0389
14111SOL    HW143176   4.632   0.055   0.364  0.7040 -1.8277  2.1448
14111SOL    HW243177   4.772   0.103   0.397  0.4606  0.6432 -0.0378
14112SOL     OW43178   0.199   7.872   3.594  0.4034 -0.3786  0.0405
14112SOL    HW143179   0.270   7.838   3.539 -0.5257  0.7448 -1.9848
14112SOL    HW243180   0.125   7.814   3.576 -0.2136  0.6226 -0.7744
14113SOL     OW43181   8.076   4.489   2.205 -0.1422  0.0978 -0.3810
14113SOL    HW143182   8.122   4.572   2.217  2.0776 -0.9753 -0.8631
14113SOL    HW243183   8.060   4.457   2.294 -0.4562  0.7633 -0.1982
14114SOL     OW43184   4.211   0.282   5.355 -0.0254  0.0043 -0.2207
14114SOL    HW143185   4.211   0.354   5.293  0.4196 -0.3275 -0.6147
14114SOL    HW243186   4.298   0.285   5.396 -0.0189 -0.2751 -0.2075
14115SOL     OW43187   2.905   1.284   0.336  0.3823  0.5120  1.0799
14115SOL    HW143188   2.982   1.300   0.282  0.4693 -1.3627  0.5440
14115SOL    HW243189   2.937   1.286   0.426  0.9702  0.2093  0.8805
14116SOL     OW43190   5.850   0.112   4.641  0.4150  0.0779 -0.0713
14116SOL    HW143191   5.854   0.164   4.561  0.3486 -0.9703 -0.7906
14116SOL    HW243192   5.940   0.108   4.672  0.8290 -1.2739 -1.3123
14117SOL     OW43193   7.256   4.712   1.781 -0.2686 -0.2844  0.0600
14117SOL    HW143194   7.330   4.723   1.722  0.2710 -0.8070  0.6268
14117SOL    HW243195   7.281   4.639   1.837 -1.9090 -1.5900 -0.8098
14118SOL     OW43196   2.000   6.946   7.731  0.1244 -0.9493  0.0572
14118SOL    HW143197   2.001   7.021   7.791  0.8914 -2.4854  2.0935
14118SOL    HW243198   2.078   6.956   7.677 -0.6693  0.5541 -0.8619
14119SOL     OW43199   5.462   1.424   2.955  0.0424 -0.0480 -0.6190
14119SOL    HW143200   5.411   1.492   3.000  1.8349  1.5681 -0.9097
14119SOL    HW243201   5.430   1.426   2.865  1.0538  1.4896 -0.9856
14120SOL     OW43202   1.681   6.962   1.632  0.3663  0.3617  0.1413
14120SOL    HW143203   1.606   6.980   1.575  0.1711  0.2321  0.3541
14120SOL    HW243204   1.689   7.040   1.687  0.9749  0.7708 -0.5173
14121SOL     OW43205   3.801   3.218   2.026  0.1170  0.0228  0.2613
14121SOL    HW143206   3.715   3.259   2.026 -0.5411 -1.2897  1.2077
14121SOL    HW243207   3.800   3.159   2.101  1.6875 -0.3587  0.0286
14122SOL     OW43208   5.040   7.425   0.492 -0.2966  0.4767  0.2209
14122SOL    HW143209   4.996   7.348   0.528  0.4164  0.4811  1.1471
14122SOL    HW243210   5.132   7.414   0.516  0.1031  0.8148 -1.0724
14123SOL     OW43211   6.155   3.336   3.225  0.3966  0.5086 -0.5060
14123SOL    HW143212   6.138   3.246   3.196  0.3282  0.2026  0.4274
14123SOL    HW243213   6.140   3.390   3.148 -0.8270 -0.1619 -0.7632
14124SOL     OW43214   7.616   2.232   6.284 -0.1824  0.1049 -0.1313
14124SOL    HW143215   7.607   2.191   6.199 -0.7340 -0.3801  0.1564
14124SOL    HW243216   7.560   2.310   6.280  0.8976  0.8807 -0.6910
14125SOL     OW43217   1.218   6.587   2.807 -0.1722  0.1813  0.3394
14125SOL    HW143218   1.222   6.492   2.813 -1.4917  0.0970  0.0835
14125SOL    HW243219   1.154   6.613   2.873  0.9823  1.0007  1.1845
14126SOL     OW43220   1.697   0.131   0.892  0.1366 -0.3829  0.2516
14126SOL    HW143221   1.733   0.106   0.807 -1.1372  1.5413 -0.9177
14126SOL    HW243222   1.767   0.182   0.933  0.0876  0.2701 -0.4586
14127SOL     OW43223   3.389   1.332   5.155 -0.3516  0.1196 -0.0144
14127SOL    HW143224   3.378   1.313   5.062 -0.6988  0.7237 -0.1014
14127SOL    HW243225   3.464   1.392   5.158  0.6324 -1.0865  0.2423
14128SOL     OW43226   5.846   7.799   4.162  0.9011 -0.6799  0.1725
14128SOL    HW143227   5.754   7.804   4.188  0.9527 -1.6193  0.5723
14128SOL    HW243228   5.859   7.707   4.139  1.3246 -0.2417 -1.4718
14129SOL     OW43229   5.028   3.334   2.837 -0.1503 -0.5553 -0.1900
14129SOL    HW143230   4.977   3.365   2.762 -0.7934 -0.1392  0.4037
14129SOL    HW243231   5.097   3.399   2.847  0.6779 -1.2436 -1.1411
14130SOL     OW43232   7.553   6.203   1.346 -0.4618  0.2224 -1.1117
14130SOL    HW143233   7.482   6.142   1.328 -0.8198  0.3940 -0.3311
14130SOL    HW243234   7.509   6.280   1.383  0.2555 -0.3981  1.2159
14131SOL     OW43235   5.781   5.066   1.395  0.4058  0.7149 -0.2925
14131SOL    HW143236   5.690   5.068   1.367  0.9982  1.1086 -2.2912
14131SOL    HW243237   5.777   5.039   1.487 -1.6956  0.5285 -0.4010
14132SOL     OW43238   2.845   3.110   4.018  0.6071  0.2905 -0.1118
14132SOL    HW143239   2.819   3.133   4.107  2.0938 -1.2816  0.7908
14132SOL    HW243240   2.883   3.191   3.983 -1.0372  1.2525  0.2170
14133SOL     OW43241   0.136   0.315   3.702 -0.2852  0.8126 -0.0028
14133SOL    HW143242   0.183   0.240   3.667 -1.8341  0.3741 -1.1894
14133SOL    HW243243   0.045   0.300   3.680 -0.8527  2.2619  1.1666
14134SOL     OW43244   3.136   0.562   4.449 -0.4075  0.8447 -0.3271
14134SOL    HW143245   3.047   0.538   4.475  0.1930 -0.8170  0.3437
14134SOL    HW243246   3.149   0.519   4.364  0.2989 -0.3944  0.3694
14135SOL     OW43247   2.882   7.952   8.118 -0.6446 -0.4950  0.3340
14135SOL    HW143248   2.941   8.019   8.153  0.7994 -0.7306 -1.5182
14135SOL    HW243249   2.800   7.999   8.103 -0.5467  0.1608  1.6719
14136SOL     OW43250   2.860   0.647   3.292  0.3565  0.1756  0.1076
14136SOL    HW143251   2.923   0.576   3.282  3.1430  2.0999  2.3833
14136SOL    HW243252   2.856   0.688   3.206  0.0170 -1.5724 -0.7736
14137SOL     OW43253   4.290   1.213   3.247 -0.2178  0.3126 -0.1065
14137SOL    HW143254   4.373   1.170   3.263 -0.1385  0.2839 -0.5650
14137SOL    HW243255   4.309   1.276   3.177 -0.5002  0.5544  0.0332
14138SOL     OW43256   4.520   2.989   3.348 -0.0872  0.0485 -0.3611
14138SOL    HW143257   4.525   3.025   3.259  0.0466  0.2021 -0.2935
14138SOL    HW243258   4.611   2.990   3.379  0.1494 -1.7408 -0.8963
14139SOL     OW43259   2.639   7.667   5.250  0.4659  0.4778  0.2435
14139SOL    HW143260   2.664   7.591   5.303  0.2972  0.2265 -0.0280
14139SOL    HW243261   2.580   7.630   5.183  0.5192  0.8214  0.0067
14140SOL     OW43262   1.958   0.063   0.761 -0.6141 -0.2274  0.4540
14140SOL    HW143263   1.910   0.144   0.743 -0.7114 -0.4304 -0.2513
14140SOL    HW243264   2.034   0.090   0.812 -0.9202  0.2377  0.6662
14141SOL     OW43265   1.487   4.525   1.652  0.3359  0.2863  0.1259
14141SOL    HW143266   1.571   4.481   1.638 -0.7177 -1.2450 -1.9762
14141SOL    HW243267   1.493   4.606   1.602  1.1134  0.9949  1.3298
14142SOL     OW43268   6.811   0.487   6.893  0.2167  0.3223  0.4760
14142SOL    HW143269   6.735   0.521   6.940  0.2768 -0.0168  0.8287
14142SOL    HW243270   6.886   0.507   6.950  0.5776  1.8413 -0.4706
14143SOL     OW43271   1.314   3.104   1.195 -0.0878  0.4760 -0.1184
14143SOL    HW143272   1.312   3.152   1.113 -0.7772  0.6527 -0.0055
14143SOL    HW243273   1.235   3.133   1.242 -1.0231 -1.3880 -0.4285
14144SOL     OW43274   4.582   1.993   5.144 -0.4778 -0.1700 -0.1079
14144SOL    HW143275   4.585   2.008   5.049 -0.8903  1.0119  0.0414
14144SOL    HW243276   4.493   2.019   5.169 -0.7226 -1.4668  0.4686
14145SOL     OW43277   0.902   8.108   1.479  0.1732 -0.3502  0.6068
14145SOL    HW143278   0.849   8.141   1.406 -1.1504 -2.1185  0.7176
14145SOL    HW243279   0.985   8.155   1.471 -1.8084  3.7365  1.3191
14146SOL     OW43280   1.405   6.051   7.740 -0.0593  0.0856  0.2018
14146SOL    HW143281   1.481   6.002   7.771 -1.5188 -1.3178  1.7820
14146SOL    HW243282   1.331   6.012   7.786 -1.9297  0.4947 -2.2607
14147SOL     OW43283   0.553   0.257   4.589  0.2293  0.2005 -0.2030
14147SOL    HW143284   0.613   0.329   4.573 -1.1260  1.4354 -0.0071
14147SOL    HW243285   0.492   0.259   4.515  0.6733 -1.3134 -0.6389
14148SOL     OW43286   4.137   1.974   5.038 -0.2595  0.1374  0.4010
14148SOL    HW143287   4.183   1.960   4.956 -1.2353 -0.7352 -0.0228
14148SOL    HW243288   4.155   2.065   5.061 -0.9556  0.7706 -1.3966
14149SOL     OW43289   6.891   2.717   3.650 -0.1073  0.1532 -0.3224
14149SOL    HW143290   6.839   2.797   3.645 -0.3729  0.0538  0.6516
14149SOL    HW243291   6.841   2.659   3.707 -0.2642 -0.9934 -1.5644
14150SOL     OW43292   2.814   1.886   7.228 -0.0415  0.1438 -0.6454
14150SOL    HW143293   2.719   1.895   7.233 -0.2810 -1.7559 -1.2288
14150SOL    HW243294   2.838   1.936   7.149 -0.5910  0.2927 -0.7241
14151SOL     OW43295   3.832   7.449   5.070 -0.5084  0.3316  0.5558
14151SOL    HW143296   3.824   7.535   5.029  0.5930  1.2314  2.0965
14151SOL    HW243297   3.743   7.415   5.073 -1.4930  2.8090  2.6862
14152SOL     OW43298   6.342   2.680   0.145 -0.2256  0.6086 -0.3390
14152SOL    HW143299   6.407   2.653   0.211 -1.7949 -1.0941  0.6020
14152SOL    HW243300   6.364   2.628   0.068  1.0029  1.8654 -0.8676
14153SOL     OW43301   3.956   1.349   7.566  0.0172 -0.4389  0.1454
14153SOL    HW143302   3.933   1.286   7.499  1.1877 -1.1094  0.3467
14153SOL    HW243303   3.890   1.337   7.634 -0.4337 -0.6394 -0.3233
14154SOL     OW43304   6.732   8.184   4.402 -0.3901 -0.4263 -0.3970
14154SOL    HW143305   6.680   8.106   4.384 -2.4970  1.1264 -1.5098
14154SOL    HW243306   6.809   8.175   4.347 -0.6092 -1.6967 -0.5281
14155SOL     OW43307   2.635   6.454   1.632 -0.1527  0.4856 -0.4003
14155SOL    HW143308   2.660   6.479   1.721  1.1142  0.8894 -0.8435
14155SOL    HW243309   2.694   6.382   1.610 -0.9152 -0.0690 -0.6832
14156SOL     OW43310   6.629   5.813   7.385  0.3364 -0.5644  1.1297
14156SOL    HW143311   6.608   5.869   7.310  1.7379  0.2015  1.2828
14156SOL    HW243312   6.543   5.789   7.420 -0.3386  1.2432  0.8667
14157SOL     OW43313   2.995   3.257   5.604  0.2236 -0.3683  0.0249
14157SOL    HW143314   2.970   3.342   5.569  1.7482 -0.4664 -1.4434
14157SOL    HW243315   3.082   3.271   5.641  0.1789 -1.1237  0.4377
14158SOL     OW43316   0.775   4.802   6.180 -0.0707  0.4383  0.6806
14158SOL    HW143317   0.712   4.731   6.192  0.8200 -0.2922  1.2197
14158SOL    HW243318   0.801   4.825   6.269  0.3420  0.8053  0.4665
14159SOL     OW43319   6.291   4.475   5.129 -0.0112  0.2156  0.0025
14159SOL    HW143320   6.294   4.570   5.119 -1.5006  0.4032  0.9060
14159SOL    HW243321   6.261   4.442   5.045 -3.5398  0.9649  0.7970
14160SOL     OW43322   7.102   7.984   0.362 -0.1923 -0.8605 -0.1399
14160SOL    HW143323   7.011   7.957   0.372 -0.6160  0.0897 -1.2765
14160SOL    HW243324   7.107   8.068   0.408  0.0539 -0.8061 -0.2652
14161SOL     OW43325   1.449   5.094   4.695 -0.2640 -0.3168 -0.0806
14161SOL    HW143326   1.498   5.083   4.777  0.0962  1.9895  0.0831
14161SOL    HW243327   1.427   5.187   4.693 -4.3786 -1.1119 -0.3427
14162SOL     OW43328   5.989   7.889   0.502 -0.5826 -0.1356  0.2477
14162SOL    HW143329   5.998   7.831   0.426  1.6686 -0.1534  0.4663
14162SOL    HW243330   5.947   7.835   0.569 -0.1665 -0.9613 -0.1405
14163SOL     OW43331   1.586   1.549   6.438  0.3626  0.0359  0.7037
14163SOL    HW143332   1.497   1.566   6.407 -0.1969 -2.4561  0.7228
14163SOL    HW243333   1.614   1.471   6.389  2.2585  0.3270  1.2429
14164SOL     OW43334   2.529   1.695   0.555 -0.6016  0.3339 -0.0598
14164SOL    HW143335   2.564   1.609   0.536 -3.0225 -0.9977  1.0440
14164SOL    HW243336   2.532   1.703   0.651 -2.4076  0.4692  0.0371
14165SOL     OW43337   1.499   2.177   6.988 -0.1567  0.5406 -0.0397
14165SOL    HW143338   1.420   2.187   6.934 -0.8902  1.1248  1.0941
14165SOL    HW243339   1.476   2.219   7.072 -0.0801 -2.6533  1.7551
14166SOL     OW43340   4.759   3.202   7.354  0.1456 -0.0189  0.4009
14166SOL    HW143341   4.846   3.172   7.327  0.3136  0.1704  0.7290
14166SOL    HW243342   4.776   3.269   7.421 -0.2519  0.0239  0.4618
14167SOL     OW43343   5.958   7.872   5.710 -0.0377  0.1852 -0.2733
14167SOL    HW143344   5.919   7.830   5.632 -0.6485  0.4070 -0.0934
14167SOL    HW243345   5.916   7.827   5.784 -0.8391  1.2209 -0.0764
14168SOL     OW43346   5.369   1.087   4.553 -0.0093  0.3700 -0.5647
14168SOL    HW143347   5.440   1.140   4.589 -0.0251  0.1366 -0.1806
14168SOL    HW243348   5.298   1.149   4.539  0.6282  0.8107 -1.9896
14169SOL     OW43349   6.028   1.122   2.818 -0.8368 -0.1178 -0.2403
14169SOL    HW143350   6.005   1.141   2.727 -2.2418  0.2048  0.1614
14169SOL    HW243351   6.094   1.053   2.812 -2.3208 -1.5053 -1.4586
14170SOL     OW43352   3.935   6.932   4.868 -0.0505 -0.1928  0.0581
14170SOL    HW143353   3.875   6.911   4.939  0.5459  0.0195  0.6286
14170SOL    HW243354   3.911   7.021   4.841  0.3311  0.0816  0.6191
14171SOL     OW43355   3.026   6.389   1.641  0.1011 -0.3337 -0.4528
14171SOL    HW143356   3.065   6.332   1.707 -1.0119 -2.7038 -1.6854
14171SOL    HW243357   2.934   6.361   1.637 -0.6246  1.9032 -0.8385
14172SOL     OW43358   7.164   3.587   7.149  0.0221  0.4009 -0.2540
14172SOL    HW143359   7.180   3.651   7.080  1.3357 -1.3639 -1.6651
14172SOL    HW243360   7.237   3.598   7.210 -0.9565  1.7244  0.7433
14173SOL     OW43361   5.707   7.725   5.523  0.1262 -0.1989 -0.3108
14173SOL    HW143362   5.696   7.750   5.615  0.1417 -1.4039  0.0247
14173SOL    HW243363   5.628   7.758   5.481  0.1574  0.4418  0.1071
14174SOL     OW43364   5.349   2.647   6.510 -0.1537 -0.2424  0.5387
14174SOL    HW143365   5.340   2.623   6.418 -0.4160  1.7581 -0.0032
14174SOL    HW243366   5.298   2.581   6.557  0.3705 -1.5676 -0.6917
14175SOL     OW43367   6.703   5.984   8.206  0.1900  0.1362  0.2863
14175SOL    HW143368   6.698   6.048   8.276 -1.9187  0.5490 -0.1695
14175SOL    HW243369   6.719   5.901   8.250  0.4877  0.6109  1.0984
14176SOL     OW43370   0.575   4.577   6.134 -0.2618  0.5417  0.0400
14176SOL    HW143371   0.638   4.525   6.084 -1.7128 -0.1110 -1.1791
14176SOL    HW243372   0.580   4.542   6.223  1.5887  0.9915  0.1473
14177SOL     OW43373   7.191   0.581   4.896  0.1125 -0.2967  0.0529
14177SOL    HW143374   7.252   0.650   4.922  0.0112  0.4835 -1.6377
14177SOL    HW243375   7.111   0.599   4.946  0.6134 -0.1547  0.8146
14178SOL     OW43376   7.412   7.367   6.419  0.4559 -0.5198 -0.9713
14178SOL    HW143377   7.438   7.337   6.332 -0.8262 -0.8182 -1.2699
14178SOL    HW243378   7.320   7.390   6.410  0.1129 -1.2212  0.4774
14179SOL     OW43379   4.503   3.273   7.249  0.1604 -0.1693 -0.4115
14179SOL    HW143380   4.478   3.198   7.195  0.4820 -0.5766 -0.0056
14179SOL    HW243381   4.567   3.237   7.311  1.9137  0.8709 -1.5248
14180SOL     OW43382   3.978   7.649   2.696 -0.0794  0.3622  0.0587
14180SOL    HW143383   3.992   7.722   2.756 -0.3790 -1.3459  2.3307
14180SOL    HW243384   4.064   7.610   2.685 -0.0802  0.4826 -0.4050
14181SOL     OW43385   5.701   4.476   1.312  0.3645  0.4985  0.1974
14181SOL    HW143386   5.626   4.417   1.325  0.1924  0.8513  0.8452
14181SOL    HW243387   5.768   4.420   1.273  0.7185 -0.5264  2.1341
14182SOL     OW43388   2.745   5.179   0.434  0.4122 -0.1462  0.4366
14182SOL    HW143389   2.679   5.183   0.365 -0.6005 -0.0098  1.3900
14182SOL    HW243390   2.740   5.265   0.476  0.5398 -0.4639  1.1080
14183SOL     OW43391   7.034   7.532   7.215  0.0312 -0.0061 -0.4925
14183SOL    HW143392   7.018   7.608   7.159  0.5251  1.0194  0.6831
14183SOL    HW243393   6.978   7.548   7.292  1.1851 -0.0957  0.3905
14184SOL     OW43394   4.557   5.186   5.051  0.1589  0.3883 -0.0866
14184SOL    HW143395   4.538   5.265   5.102  0.3707 -0.1787  0.9077
14184SOL    HW243396   4.490   5.124   5.079 -2.5730  1.3106 -3.7122
14185SOL     OW43397   2.752   5.531   1.029  0.3858  0.3105  0.3153
14185SOL    HW143398   2.713   5.618   1.036 -0.6611 -0.2096  1.3015
14185SOL    HW243399   2.837   5.540   1.073  0.5709  0.9703 -0.1472
14186SOL     OW43400   0.859   1.019   1.408 -0.5736 -0.0008  0.0677
14186SOL    HW143401   0.870   0.937   1.359  1.5407  1.6010 -2.3940
14186SOL    HW243402   0.788   1.064   1.362 -1.6501 -0.3389  1.3457
14187SOL     OW43403   6.652   7.168   7.051  0.2353 -0.3086  0.4355
14187SOL    HW143404   6.695   7.215   6.980  0.3255 -0.9874  0.0268
14187SOL    HW243405   6.570   7.216   7.066 -1.0381 -1.5579 -1.8744
14188SOL     OW43406   0.902   7.809   2.233  0.0383 -0.2506  0.1881
14188SOL    HW143407   0.851   7.737   2.195  0.8749 -1.5146  1.3411
14188SOL    HW243408   0.939   7.855   2.158 -1.3259 -0.4157 -0.6032
14189SOL     OW43409   6.652   0.992   5.710  0.5273 -0.0354  0.0939
14189SOL    HW143410   6.657   1.080   5.673 -2.8114 -0.4200 -1.6274
14189SOL    HW243411   6.616   1.005   5.798  1.8810  0.3997  0.6062
14190SOL     OW43412   2.214   6.676   3.008 -0.1745  0.3605 -0.0283
14190SOL    HW143413   2.185   6.601   2.956 -0.0346  0.2715  0.0208
14190SOL    HW243414   2.289   6.711   2.959 -1.1351  1.3639 -0.8351
14191SOL     OW43415   0.660   7.922   4.364 -0.5828  0.5798  0.1219
14191SOL    HW143416   0.692   7.833   4.379 -2.0578 -0.6857 -3.0787
14191SOL    HW243417   0.572   7.923   4.403 -1.8873 -0.5937 -2.5355
14192SOL     OW43418   4.667   4.617   7.616 -0.6749 -0.4708 -0.2463
14192SOL    HW143419   4.699   4.568   7.691 -1.5286 -0.2680  0.2715
14192SOL    HW243420   4.627   4.550   7.559 -1.6967 -0.4253  0.3830
14193SOL     OW43421   5.052   2.874   8.178  0.5825 -0.1620  0.0136
14193SOL    HW143422   5.093   2.945   8.129  0.0455  0.4926  0.4882
14193SOL    HW243423   5.009   2.917   8.251  0.5507 -1.0202  0.5212
14194SOL     OW43424   4.860   2.437   1.050  0.2416 -0.1448 -0.2424
14194SOL    HW143425   4.899   2.369   0.994 -1.4082  0.1364 -1.8118
14194SOL    HW243426   4.773   2.404   1.071  0.6335 -0.0002  1.8176
14195SOL     OW43427   6.446   1.082   2.587 -0.4228  0.3473  0.2375
14195SOL    HW143428   6.404   1.162   2.617  0.3119  0.6306  0.5508
14195SOL    HW243429   6.393   1.011   2.623 -2.0199  0.6598 -1.3561
14196SOL     OW43430   3.770   7.002   2.226  0.2996 -0.2770 -0.0303
14196SOL    HW143431   3.699   7.044   2.178  0.4899  1.3649  1.0373
14196SOL    HW243432   3.802   6.934   2.167 -1.6789 -0.6007 -0.8132
14197SOL     OW43433   6.758   6.714   4.311  0.3641  0.8423  0.1439
14197SOL    HW143434   6.707   6.754   4.241 -0.0610  1.8313  0.9864
14197SOL    HW243435   6.704   6.724   4.389  0.7464 -0.4074  0.5906
14198SOL     OW43436   4.319   6.933   7.640 -0.4020 -0.2537  0.0376
14198SOL    HW143437   4.302   7.024   7.616 -0.5425 -0.5189 -0.9066
14198SOL    HW243438   4.235   6.889   7.627  0.0503 -0.8296 -1.0829
14199SOL     OW43439   8.011   1.305   5.678  0.7072 -0.5101  0.3537
14199SOL    HW143440   8.105   1.323   5.673  0.5501  0.6706  1.2485
14199SOL    HW243441   7.983   1.300   5.587  1.6394 -0.9093  0.0727
14200SOL     OW43442   7.119   0.489   0.728 -0.4979  0.3429 -0.3643
14200SOL    HW143443   7.129   0.501   0.822  0.9652 -2.7477 -0.0246
14200SOL    HW243444   7.038   0.536   0.707 -0.8140  1.2123  2.3827
14201SOL     OW43445   7.231   1.354   3.585 -0.2897  0.4281 -0.1446
14201SOL    HW143446   7.304   1.393   3.632 -0.4035 -0.1815  0.5484
14201SOL    HW243447   7.263   1.344   3.495  1.3254 -1.9176  0.5985
14202SOL     OW43448   5.220   8.139   3.946  0.3092  0.3574 -0.3845
14202SOL    HW143449   5.304   8.092   3.953  0.0481  0.0905  1.2531
14202SOL    HW243450   5.186   8.114   3.860 -0.1405 -3.0854  0.6449
14203SOL     OW43451   2.647   6.867   4.619 -0.4546 -0.1522 -0.6123
14203SOL    HW143452   2.558   6.872   4.653 -0.5118  1.8009 -0.9189
14203SOL    HW243453   2.692   6.943   4.657  0.4446  0.1588 -2.1833
14204SOL     OW43454   4.316   5.354   0.267 -0.5021  0.3333 -0.1428
14204SOL    HW143455   4.281   5.320   0.184 -1.6658 -0.2265  0.5674
14204SOL    HW243456   4.241   5.393   0.311  0.5376  2.7084 -0.3242
14205SOL     OW43457   3.989   2.351   3.612 -0.4257 -0.1589  0.3234
14205SOL    HW143458   3.955   2.278   3.665 -0.4842 -0.1504  0.2975
14205SOL    HW243459   4.084   2.346   3.623 -0.1594 -2.0545 -2.0044
14206SOL     OW43460   4.223   7.069   6.457  0.7856 -0.6372  0.0388
14206SOL    HW143461   4.235   7.088   6.364  0.6720  1.3612  0.3982
14206SOL    HW243462   4.169   6.989   6.458  0.6361 -0.5922 -1.6054
14207SOL     OW43463   5.692   2.340   4.702  0.1638 -1.2415 -0.2872
14207SOL    HW143464   5.783   2.356   4.676 -0.1276 -2.4220 -2.2915
14207SOL    HW243465   5.658   2.282   4.634 -2.2750 -0.3422  0.0599
14208SOL     OW43466   1.642   1.338   6.284  0.5021 -0.2903 -0.1548
14208SOL    HW143467   1.724   1.353   6.330  0.5609  0.9738 -0.6400
14208SOL    HW243468   1.616   1.249   6.309  0.6296  0.2678  2.1263
14209SOL     OW43469   5.120   6.057   0.520 -0.3914 -0.5515 -0.4222
14209SOL    HW143470   5.075   5.991   0.572 -1.6840  0.8792  0.3380
14209SOL    HW243471   5.117   6.136   0.573  1.1810  0.1336 -1.2841
14210SOL     OW43472   6.359   3.717   4.099 -0.0448  0.1844  0.7680
14210SOL    HW143473   6.358   3.623   4.082 -0.6449  0.4067 -0.5712
14210SOL    HW243474   6.268   3.740   4.114  0.0106  0.6417  0.4532
14211SOL     OW43475   0.081   5.087   2.526  0.7190 -0.6710  0.0576
14211SOL    HW143476   0.164   5.068   2.481  0.5319  1.0123 -1.0798
14211SOL    HW243477   0.090   5.177   2.556 -0.3199 -0.8099  0.8276
14212SOL     OW43478   1.570   7.851   6.048  0.0010 -0.2574  0.1148
14212SOL    HW143479   1.642   7.877   6.106  0.4312 -0.8067 -0.1656
14212SOL    HW243480   1.543   7.765   6.080 -0.4865 -0.0767  0.1817
14213SOL     OW43481   7.223   2.648   7.092  0.5527 -0.0229  0.3397
14213SOL    HW143482   7.134   2.641   7.057 -0.5274 -0.3765  2.9492
14213SOL    HW243483   7.251   2.557   7.104  0.4910  0.0864  1.3319
14214SOL     OW43484   7.783   2.524   3.871  0.3679 -0.2984  0.2039
14214SOL    HW143485   7.737   2.443   3.893  0.9259 -0.2215  1.7903
14214SOL    HW243486   7.791   2.522   3.775 -0.0177 -1.8972  0.1762
14215SOL     OW43487   3.505   0.048   5.553 -0.6958  0.1997  0.4060
14215SOL    HW143488   3.546   0.006   5.629  0.0733 -0.4011 -0.3203
14215SOL    HW243489   3.441  -0.016   5.522  0.5342 -0.5184 -0.7521
14216SOL     OW43490   3.304   1.373   0.638 -0.2809  0.4221  0.3771
14216SOL    HW143491   3.373   1.339   0.582 -2.3114 -0.8069 -1.5355
14216SOL    HW243492   3.314   1.468   0.635 -0.5118  0.4171 -2.4050
14217SOL     OW43493   4.164   5.817   6.057 -0.8173  0.4211  0.0802
14217SOL    HW143494   4.084   5.868   6.068 -0.2260  1.1605  1.1312
14217SOL    HW243495   4.226   5.877   6.016 -0.4684  0.2057  0.2834
14218SOL     OW43496   4.337   3.614   6.247  0.3141  0.2454  0.6274
14218SOL    HW143497   4.273   3.676   6.211  0.2332  0.6801  1.4813
14218SOL    HW243498   4.359   3.557   6.174 -0.2378  0.7689  0.0358
14219SOL     OW43499   3.636   1.373   3.567  0.1427  0.0460  0.4443
14219SOL    HW143500   3.563   1.322   3.533 -0.2074  0.8990 -0.0945
14219SOL    HW243501   3.698   1.379   3.494 -0.7232  2.0982 -0.2008
14220SOL     OW43502   3.458   0.395   6.739 -0.2605 -0.0146  0.2463
14220SOL    HW143503   3.537   0.343   6.748 -0.9518 -1.1968 -0.2927
14220SOL    HW243504   3.485   0.484   6.762  2.1068  0.3943 -3.3590
14221SOL     OW43505   8.190   4.281   6.206 -0.0188  0.2176  0.5407
14221SOL    HW143506   8.230   4.275   6.119 -1.8721 -0.0929 -0.3447
14221SOL    HW243507   8.237   4.353   6.249  2.1660 -0.7876  0.0089
14222SOL     OW43508   4.939   0.421   2.547  0.6846  0.0917  0.1922
14222SOL    HW143509   4.917   0.337   2.588 -0.2034  1.2431  2.2438
14222SOL    HW243510   4.855   0.457   2.520  1.0173  0.4800 -0.3428
14223SOL     OW43511   4.184   6.938   1.854  0.0654  0.0819 -0.0536
14223SOL    HW143512   4.262   6.972   1.811  0.0992  0.1802  0.0856
14223SOL    HW243513   4.191   6.968   1.945 -0.8403  1.3320 -0.3629
14224SOL     OW43514   7.572   6.656   4.946 -0.0261 -0.2461  0.7700
14224SOL    HW143515   7.605   6.605   4.872  0.8248  0.0217  0.9515
14224SOL    HW243516   7.482   6.625   4.958 -0.0680 -0.5250 -0.1625
14225SOL     OW43517   6.647   5.260   3.454  0.1077  0.3800  0.3660
14225SOL    HW143518   6.601   5.215   3.526 -0.3835  0.2625 -0.0151
14225SOL    HW243519   6.641   5.353   3.476 -2.1417  0.5516 -0.6969
14226SOL     OW43520   3.563   7.392   5.041  0.4143 -0.8319 -0.8545
14226SOL    HW143521   3.521   7.434   4.966 -0.9398 -0.5470  0.0268
14226SOL    HW243522   3.525   7.304   5.043  0.4861 -0.8566 -0.5401
14227SOL     OW43523   0.772   3.486   2.016  0.2405 -0.3550 -0.2861
14227SOL    HW143524   0.865   3.474   1.998  0.1694 -1.1549 -0.1573
14227SOL    HW243525   0.747   3.564   1.965  1.4626  1.2215  1.4038
14228SOL     OW43526   7.291   2.061   8.090  0.1529  0.1037 -0.2304
14228SOL    HW143527   7.308   2.155   8.100  0.0561  0.1844 -0.7938
14228SOL    HW243528   7.240   2.038   8.168  0.9080  0.3293  0.3443
14229SOL     OW43529   0.202   5.127   5.804  0.1601  0.5391  0.2181
14229SOL    HW143530   0.217   5.222   5.805 -0.2024  0.6062 -0.2022
14229SOL    HW243531   0.127   5.116   5.746 -0.4579  0.0898  1.0762
14230SOL     OW43532   3.790   8.152   2.966 -0.1371  0.0930  0.3763
14230SOL    HW143533   3.785   8.070   2.918  1.2041  1.4195 -2.2351
14230SOL    HW243534   3.744   8.216   2.911  2.0284  1.8302  0.4397
14231SOL     OW43535   1.279   7.048   7.643  0.1120  0.0836  0.1675
14231SOL    HW143536   1.198   7.094   7.668  0.1491  0.7683 -0.9012
14231SOL    HW243537   1.265   7.023   7.552  1.5186  1.1833 -0.3822
14232SOL     OW43538   0.182   6.460   2.970 -0.2725  0.1744  0.2396
14232SOL    HW143539   0.137   6.544   2.958  1.3698  0.9806 -0.6351
14232SOL    HW243540   0.186   6.423   2.881  1.2000  0.3653  0.2117
14233SOL     OW43541   3.013   3.863   3.524  0.1961 -0.1162  0.1006
14233SOL    HW143542   2.923   3.895   3.512  0.3441  0.6348  0.8645
14233SOL    HW243543   3.008   3.770   3.505 -1.2961 -0.6173  2.5156
14234SOL     OW43544   7.264   3.337   0.196 -0.3714 -0.0864 -0.4159
14234SOL    HW143545   7.195   3.273   0.212 -0.3197 -0.2806 -0.9554
14234SOL    HW243546   7.346   3.287   0.201 -0.3052  0.0230 -0.3955
14235SOL     OW43547   1.815   1.629   7.488 -0.7167 -0.2753  0.1966
14235SOL    HW143548   1.734   1.653   7.532 -0.3295 -1.3179  1.5397
14235SOL    HW243549   1.787   1.584   7.408 -1.5028 -1.6381  1.2036
14236SOL     OW43550   3.601   3.821   1.015 -0.3574 -0.1918 -0.4709
14236SOL    HW143551   3.581   3.885   0.947 -0.2422 -0.4083 -0.7081
14236SOL    HW243552   3.693   3.798   1.000 -0.0907  0.3698  0.2610
14237SOL     OW43553   5.067   6.773   8.014 -0.3993  0.1345  0.0895
14237SOL    HW143554   5.119   6.699   7.985 -0.5724 -0.0040  0.1287
14237SOL    HW243555   4.978   6.738   8.025 -0.5729  0.4392 -0.2842
14238SOL     OW43556   2.366   5.033   4.871 -0.4133  0.1048 -0.4611
14238SOL    HW143557   2.349   4.997   4.958 -0.9808  0.2535 -0.5022
14238SOL    HW243558   2.382   5.126   4.886  1.3727 -0.1891 -0.3203
14239SOL     OW43559   4.021   4.906   7.699  0.2566  0.2734  0.2191
14239SOL    HW143560   3.934   4.870   7.716  0.0196 -0.1768 -1.7380
14239SOL    HW243561   4.057   4.851   7.630  1.0629  1.9871 -0.7984
14240SOL     OW43562   1.392   3.275   7.514  0.0839  0.2934  0.1497
14240SOL    HW143563   1.310   3.306   7.553  0.7724  2.3893  0.0266
14240SOL    HW243564   1.454   3.272   7.586 -0.1621 -1.8361  0.3588
14241SOL     OW43565   8.018   4.845   2.219  0.1507  0.6102  0.4526
14241SOL    HW143566   8.050   4.765   2.261  0.1143 -0.4456 -1.4193
14241SOL    HW243567   8.080   4.862   2.149 -0.8925  1.1097 -0.3798
14242SOL     OW43568   6.357   3.908   1.655  0.0142  0.0322  0.4370
14242SOL    HW143569   6.298   3.835   1.637  0.4380 -0.1415 -0.2709
14242SOL    HW243570   6.425   3.871   1.711  1.3149 -0.6525 -1.4840
14243SOL     OW43571   6.151   4.250   7.788  0.3612  0.2697  0.6714
14243SOL    HW143572   6.177   4.320   7.728 -0.9043  1.6066  1.6045
14243SOL    HW243573   6.117   4.180   7.731  1.1985  0.5928 -0.2550
14244SOL     OW43574   0.169   2.784   6.444  0.3893  0.2943  0.6781
14244SOL    HW143575   0.171   2.692   6.471  1.8247  0.3202  0.7405
14244SOL    HW243576   0.091   2.819   6.485 -0.4847 -1.0264  0.2042
14245SOL     OW43577   2.942   2.378   5.784  0.0965  0.0470 -0.4233
14245SOL    HW143578   2.978   2.293   5.809 -0.7366  0.1993  1.4776
14245SOL    HW243579   2.864   2.357   5.732 -0.7027 -0.4093  0.9039
14246SOL     OW43580   4.011   6.525   6.439 -0.3805  0.5932  0.2649
14246SOL    HW143581   3.919   6.502   6.456 -0.1332 -0.0618  0.7405
14246SOL    HW243582   4.024   6.504   6.347 -1.2137  2.4300 -0.3277
14247SOL     OW43583   4.314   2.122   7.375  0.1152  0.2765  0.5951
14247SOL    HW143584   4.297   2.028   7.372  1.2193  0.0475  1.1725
14247SOL    HW243585   4.396   2.131   7.423 -0.0804  1.5560  0.7396
14248SOL     OW43586   3.277   6.454   6.291 -0.0430  0.4414  0.3698
14248SOL    HW143587   3.307   6.536   6.330  0.0886  0.1077  0.9868
14248SOL    HW243588   3.314   6.386   6.347 -1.3466 -0.0015  0.7256
14249SOL     OW43589   1.767   4.729   7.453  0.4320  0.0421  0.1001
14249SOL    HW143590   1.733   4.649   7.494  2.0669 -0.1723  1.1218
14249SOL    HW243591   1.743   4.799   7.514  1.2005 -0.0216  0.4848
14250SOL     OW43592   2.272   6.875   4.990  1.0287 -0.0597 -0.9089
14250SOL    HW143593   2.270   6.781   4.968 -1.2061 -0.3386  0.2077
14250SOL    HW243594   2.364   6.899   4.983  1.3760 -1.7448 -3.5792
14251SOL     OW43595   3.295   7.549   5.425 -0.2663 -0.1505  0.0907
14251SOL    HW143596   3.281   7.644   5.421  1.1104  0.2261  2.4941
14251SOL    HW243597   3.381   7.536   5.384  0.3402 -0.0957  1.3047
14252SOL     OW43598   3.681   4.525   7.139 -0.0755  0.5912  0.3468
14252SOL    HW143599   3.634   4.567   7.067 -0.2575  2.3317  1.4185
14252SOL    HW243600   3.612   4.501   7.201  0.1925  0.1452  0.4804
14253SOL     OW43601   5.843   5.505   2.218 -0.2004 -0.0889  0.1664
14253SOL    HW143602   5.928   5.462   2.221 -0.4351 -0.5640  0.1772
14253SOL    HW243603   5.790   5.449   2.161 -0.1380  0.8828 -0.8901
14254SOL     OW43604   1.238   0.475   5.726 -0.2596 -0.3263  0.0445
14254SOL    HW143605   1.155   0.463   5.679  0.0988  0.9979 -0.9712
14254SOL    HW243606   1.262   0.566   5.712  1.9580 -0.9397 -0.6825
14255SOL     OW43607   0.718   2.473   0.441  0.1772 -0.2540  0.0393
14255SOL    HW143608   0.705   2.437   0.353  0.2179 -0.5207  0.1409
14255SOL    HW243609   0.762   2.403   0.489 -0.0593 -0.1990  0.3400
14256SOL     OW43610   5.225   6.901   4.190  0.1875 -0.2918  0.7451
14256SOL    HW143611   5.173   6.853   4.254 -1.3845 -1.3963 -1.2423
14256SOL    HW243612   5.161   6.946   4.135  1.3997 -0.0702 -0.5557
14257SOL     OW43613   3.250   2.329   1.450 -0.3211 -0.1674  0.3058
14257SOL    HW143614   3.172   2.286   1.414 -1.1984  1.4489  0.1961
14257SOL    HW243615   3.235   2.333   1.544 -0.0558 -0.4593  0.3615
14258SOL     OW43616   2.046   7.640   4.941 -0.5648 -0.0183 -0.3177
14258SOL    HW143617   2.008   7.571   4.995 -0.4272 -0.4950 -0.8143
14258SOL    HW243618   2.134   7.652   4.976  0.3233 -1.8503 -1.7436
14259SOL     OW43619   0.910   1.141   0.663 -0.1696  0.3961 -0.2339
14259SOL    HW143620   1.000   1.161   0.691 -0.3633  1.2239 -0.1723
14259SOL    HW243621   0.861   1.220   0.684 -0.7548  0.2411 -0.9886
14260SOL     OW43622   0.355   1.400   5.054  0.0918  0.0319  0.4639
14260SOL    HW143623   0.266   1.365   5.053  0.6490 -1.4536  0.8053
14260SOL    HW243624   0.361   1.451   4.973 -0.3742 -1.7168 -0.7396
14261SOL     OW43625   5.665   0.712   4.571 -0.4874 -0.7023  1.0142
14261SOL    HW143626   5.753   0.751   4.573 -0.6498 -0.1058 -1.1260
14261SOL    HW243627   5.673   0.631   4.622  0.4053  0.9651  3.7603
14262SOL     OW43628   5.837   3.377   4.470  0.0187 -0.4344  0.0740
14262SOL    HW143629   5.792   3.302   4.430  0.8819 -0.6834 -0.4555
14262SOL    HW243630   5.798   3.453   4.426 -0.0160 -0.6354 -0.2500
14263SOL     OW43631   4.801   4.758   3.584  0.0181  0.1307  0.1985
14263SOL    HW143632   4.733   4.820   3.609  0.8206  0.9641  0.3765
14263SOL    HW243633   4.822   4.710   3.664 -0.5828 -0.3652  0.0671
14264SOL     OW43634   7.376   5.109   4.214  0.1325 -0.1437  0.1980
14264SOL    HW143635   7.447   5.064   4.260 -1.6218 -1.8669  1.3764
14264SOL    HW243636   7.319   5.141   4.284 -0.2958  1.1974 -0.7201
14265SOL     OW43637   8.192   6.696   1.477 -0.2557 -0.2288  0.1141
14265SOL    HW143638   8.184   6.703   1.382  0.7399 -0.0615  0.0317
14265SOL    HW243639   8.109   6.731   1.511 -0.2115  0.6503 -0.6596
14266SOL     OW43640   6.803   4.269   3.044  0.6552  0.3653  0.2332
14266SOL    HW143641   6.763   4.356   3.042 -0.7950 -0.2691 -1.4273
14266SOL    HW243642   6.882   4.278   2.991  0.4423  0.6372 -0.0403
14267SOL     OW43643   0.245   0.178   5.956  0.9746 -0.4281  0.1297
14267SOL    HW143644   0.190   0.245   5.916 -1.4451 -2.5650 -0.4354
14267SOL    HW243645   0.255   0.206   6.047  1.8693  1.7285 -0.5902
14268SOL     OW43646   3.228   1.378   4.702 -0.1246 -0.3322 -0.0821
14268SOL    HW143647   3.145   1.351   4.743 -0.4642 -1.3495 -1.3666
14268SOL    HW243648   3.253   1.458   4.749 -1.5493 -0.3131  0.7070
14269SOL     OW43649   0.014   1.693   5.145  0.1671  0.5018 -0.0940
14269SOL    HW143650   0.105   1.721   5.142  0.5744 -0.7460  0.1978
14269SOL    HW243651   0.003   1.636   5.069 -0.0189 -0.3442  0.5567
14270SOL     OW43652   8.137   0.157   5.356 -0.3878  0.2065  0.1730
14270SOL    HW143653   8.059   0.109   5.382  0.1717 -0.5046  0.5706
14270SOL    HW243654   8.188   0.167   5.436 -0.1690  0.8723 -0.0356
14271SOL     OW43655   6.464   4.088   5.653  0.5656  0.3588 -0.4658
14271SOL    HW143656   6.394   4.035   5.614  1.6082 -0.1723 -1.6739
14271SOL    HW243657   6.440   4.178   5.633 -0.5240  0.2995  0.4362
14272SOL     OW43658   4.808   2.581   3.117 -0.0768  0.0256 -0.0213
14272SOL    HW143659   4.780   2.670   3.095 -0.8524  0.1354  1.3088
14272SOL    HW243660   4.780   2.569   3.208 -3.0571 -2.7682 -1.1153
14273SOL     OW43661   5.841   3.842   5.130 -0.3955 -0.9346 -0.3428
14273SOL    HW143662   5.845   3.857   5.225 -1.3496 -0.3390 -0.3848
14273SOL    HW243663   5.931   3.858   5.101 -0.8568  3.3454 -0.1166
14274SOL     OW43664   5.442   2.672   7.439  0.1172  0.0296  0.4632
14274SOL    HW143665   5.502   2.603   7.464  0.6889  0.3150 -0.0810
14274SOL    HW243666   5.499   2.745   7.412 -0.4557  0.0645 -0.7120
14275SOL     OW43667   5.489   4.419   6.421 -0.0259 -0.2119 -0.0761
14275SOL    HW143668   5.558   4.474   6.457 -0.2200  1.2868 -1.8405
14275SOL    HW243669   5.412   4.476   6.419 -0.8750 -1.3124  0.2590
14276SOL     OW43670   7.131   5.000   7.185 -0.1172 -0.0035  0.1397
14276SOL    HW143671   7.185   5.068   7.145 -0.0813 -0.4521 -0.6051
14276SOL    HW243672   7.183   4.920   7.176 -0.6223 -0.3235  0.0090
14277SOL     OW43673   3.438   6.941   1.753  0.0278  0.0711 -0.1403
14277SOL    HW143674   3.481   6.889   1.820 -0.6787  0.7683  0.8877
14277SOL    HW243675   3.390   7.008   1.802 -1.3391 -0.0242 -1.2857
14278SOL     OW43676   4.254   3.514   0.918 -0.0494  0.3006 -0.0822
14278SOL    HW143677   4.231   3.597   0.877  3.0013  0.4882 -1.7839
14278SOL    HW243678   4.250   3.531   1.012 -1.0275  1.8754 -0.3847
14279SOL     OW43679   7.250   4.669   3.700 -0.5005  0.0108  0.9669
14279SOL    HW143680   7.301   4.686   3.779 -1.3737  2.3293  1.1096
14279SOL    HW243681   7.221   4.756   3.671  0.3918 -0.6522 -2.3352
14280SOL     OW43682   4.889   5.100   8.126 -0.1116  0.8816 -0.2415
14280SOL    HW143683   4.829   5.053   8.068 -2.0176  1.0647  1.4889
14280SOL    HW243684   4.931   5.164   8.068 -0.6542 -0.0649 -1.7537
14281SOL     OW43685   6.435   4.233   7.874  0.1333 -0.9718  0.4683
14281SOL    HW143686   6.341   4.232   7.855  0.0472  1.6383  0.4284
14281SOL    HW243687   6.454   4.324   7.897  2.5423 -1.5782  1.1301
14282SOL     OW43688   6.353   0.849   0.155  0.4194  0.3499  0.1555
14282SOL    HW143689   6.399   0.843   0.239  1.4805 -0.2640 -0.4456
14282SOL    HW243690   6.283   0.912   0.170  0.5545  0.1933  1.5187
14283SOL     OW43691   6.087   6.479   0.216  0.4893 -0.3158  0.0181
14283SOL    HW143692   6.032   6.420   0.164  0.6706  0.2879 -0.8860
14283SOL    HW243693   6.153   6.422   0.255  0.7263 -0.7162 -0.9210
14284SOL     OW43694   8.002   1.805   7.192  0.3590 -0.5189 -0.2089
14284SOL    HW143695   8.095   1.809   7.171  1.3023 -0.2521  3.2742
14284SOL    HW243696   7.991   1.869   7.263 -2.5653 -0.3727 -0.6731
14285SOL     OW43697   3.962   5.905   5.428 -0.3609 -0.7528 -0.0840
14285SOL    HW143698   3.929   5.849   5.357  0.4747  0.7467 -1.7284
14285SOL    HW243699   3.984   5.987   5.386 -0.7962  0.5873  2.1378
14286SOL     OW43700   3.011   2.233   1.333  0.1806  0.0097  0.1494
14286SOL    HW143701   2.973   2.246   1.246  1.2710  1.1918 -0.1859
14286SOL    HW243702   2.957   2.286   1.391 -0.2199 -0.3496  0.1109
14287SOL     OW43703   1.210   1.747   2.151  0.3187  0.0482 -0.7169
14287SOL    HW143704   1.158   1.697   2.088 -1.1508  1.7931 -0.9936
14287SOL    HW243705   1.169   1.729   2.236  1.4591 -1.2460 -0.4056
14288SOL     OW43706   2.558   4.488   0.065  0.1923 -0.3012 -0.2382
14288SOL    HW143707   2.537   4.488   0.158  0.6935  3.4866  0.0679
14288SOL    HW243708   2.626   4.421   0.055 -0.1026 -1.0057  2.0426
14289SOL     OW43709   8.099   6.255   7.590 -0.0022  0.3399 -0.2780
14289SOL    HW143710   8.042   6.287   7.520  0.6720  1.0869 -0.5000
14289SOL    HW243711   8.118   6.331   7.644  1.0435  0.1875 -0.3989
14290SOL     OW43712   2.438   6.264   1.661  0.3423  0.3846 -0.2087
14290SOL    HW143713   2.357   6.303   1.627  0.5804  0.6777 -0.4355
14290SOL    HW243714   2.504   6.332   1.652  0.9059 -0.2653 -1.1876
14291SOL     OW43715   7.709   2.971   0.590 -0.7924  0.2283  0.4226
14291SOL    HW143716   7.672   3.019   0.665  1.6798 -0.7135  2.4061
14291SOL    HW243717   7.792   3.015   0.572 -1.0794  0.0740 -1.4525
14292SOL     OW43718   6.425   4.444   4.461 -0.3432 -0.4398 -0.3436
14292SOL    HW143719   6.398   4.428   4.551 -1.7337  1.2002 -0.4199
14292SOL    HW243720   6.488   4.515   4.466 -0.9946  0.1796 -0.6968
14293SOL     OW43721   5.848   0.098   1.767  0.7098 -0.0144  0.3764
14293SOL    HW143722   5.773   0.115   1.711 -0.4981  0.8228  2.1598
14293SOL    HW243723   5.813   0.049   1.841  1.7567  0.9884  1.5881
14294SOL     OW43724   7.423   5.213   0.705  0.5378  0.1016 -0.0619
14294SOL    HW143725   7.347   5.171   0.665  0.2601  1.0215 -0.5317
14294SOL    HW243726   7.407   5.307   0.694  0.9497  0.3490  1.3254
14295SOL     OW43727   1.973   2.334   3.212  0.1109 -0.3854  0.5258
14295SOL    HW143728   2.039   2.343   3.280 -0.1545  0.3326  0.6900
14295SOL    HW243729   1.890   2.348   3.257 -0.0275  0.8097 -0.0579
14296SOL     OW43730   6.479   4.667   5.033 -0.0908 -0.3164 -0.0868
14296SOL    HW143731   6.565   4.706   5.048 -0.4114  1.1919 -1.7923
14296SOL    HW243732   6.418   4.725   5.078 -0.4229  0.2767 -1.2406
14297SOL     OW43733   1.899   6.479   1.358 -0.0473  0.2995 -0.6345
14297SOL    HW143734   1.834   6.465   1.289 -0.4849  0.0447 -0.1837
14297SOL    HW243735   1.891   6.572   1.379  3.3782  1.6325 -4.1390
14298SOL     OW43736   5.229   6.558   6.354 -1.0109 -0.0227 -0.4261
14298SOL    HW143737   5.222   6.653   6.358 -1.0382 -0.0303  3.1212
14298SOL    HW243738   5.301   6.541   6.293  1.8038  2.5486  1.8591
14299SOL     OW43739   2.212   5.730   2.022  0.1730  0.7686  0.8159
14299SOL    HW143740   2.185   5.774   2.103 -1.5750  1.2440  0.0224
14299SOL    HW243741   2.281   5.787   1.986 -0.9649  2.0729  0.6032
14300SOL     OW43742   3.010   6.890   7.986 -0.1875  0.3191 -0.2134
14300SOL    HW143743   3.005   6.976   8.028 -0.6394  0.7752 -1.1450
14300SOL    HW243744   3.074   6.903   7.915  1.0106 -0.5896  0.6649
14301SOL     OW43745   2.263   2.607   6.555  0.0092 -0.2656  0.0040
14301SOL    HW143746   2.311   2.682   6.590  0.0842 -0.4052  0.1988
14301SOL    HW243747   2.171   2.631   6.565  0.0274 -0.3808  0.4610
14302SOL     OW43748   0.128   7.913   7.300 -0.2457 -0.0332  0.0903
14302SOL    HW143749   0.129   7.920   7.396 -2.6795  1.4364  0.0953
14302SOL    HW243750   0.119   7.820   7.283 -2.2402 -0.1482  1.4225
14303SOL     OW43751   2.640   2.928   1.165 -0.2499 -0.1054  0.2715
14303SOL    HW143752   2.675   3.002   1.213 -0.6831  0.6607 -0.5589
14303SOL    HW243753   2.549   2.952   1.146 -0.3594 -0.7862 -0.1280
14304SOL     OW43754   7.385   7.397   1.629  0.3586  0.6359  0.1176
14304SOL    HW143755   7.475   7.365   1.629  0.1021 -0.1155 -0.8324
14304SOL    HW243756   7.394   7.492   1.639  1.1858  0.4501  1.4504
14305SOL     OW43757   3.251   3.566   7.650 -0.5378 -0.1542 -0.0479
14305SOL    HW143758   3.156   3.558   7.664 -0.7540  0.2342 -1.2333
14305SOL    HW243759   3.263   3.551   7.557  0.6542 -0.7919  0.1900
14306SOL     OW43760   1.389   7.066   0.185  0.3684  0.0474 -0.2286
14306SOL    HW143761   1.380   7.138   0.249  0.3206  0.6768 -0.9291
14306SOL    HW243762   1.358   6.989   0.231 -3.3531  1.0950 -0.6926
14307SOL     OW43763   1.436   6.553   0.031  0.8026 -0.3486  0.2537
14307SOL    HW143764   1.409   6.501  -0.044  1.4684 -0.1084 -0.1621
14307SOL    HW243765   1.392   6.513   0.106  1.0663 -1.3136 -0.1008
14308SOL     OW43766   4.847   2.345   7.039  0.1077  0.4093  0.1894
14308SOL    HW143767   4.764   2.298   7.041  0.5330 -0.4127 -0.4249
14308SOL    HW243768   4.831   2.426   7.088 -1.3065  0.7020 -0.6980
14309SOL     OW43769   6.152   2.929   0.249  0.3160  0.5664  0.2572
14309SOL    HW143770   6.068   2.918   0.294  0.0088  1.6900 -0.0126
14309SOL    HW243771   6.143   2.880   0.167 -0.0613  0.6399  0.2545
14310SOL     OW43772   6.453   6.654   6.904 -0.6589 -0.3247 -0.4617
14310SOL    HW143773   6.502   6.700   6.972 -0.4267 -2.2356  0.7389
14310SOL    HW243774   6.416   6.724   6.849 -0.9858  1.2984  1.6974
14311SOL     OW43775   6.776   5.431   3.155 -0.4000 -0.1041 -0.1006
14311SOL    HW143776   6.834   5.383   3.214 -0.4839 -0.3619 -0.2242
14311SOL    HW243777   6.816   5.423   3.069 -2.2101 -3.0946 -0.8356
14312SOL     OW43778   0.043   1.168   7.181  0.2501 -0.3897 -0.3643
14312SOL    HW143779   0.026   1.195   7.271  2.1683 -0.7766  0.1529
14312SOL    HW243780   0.019   1.075   7.179 -2.9553  0.3434 -1.2009
14313SOL     OW43781   5.371   5.902   0.258 -0.6663  0.0789 -0.2791
14313SOL    HW143782   5.344   5.957   0.184  0.5049  2.6586  1.0920
14313SOL    HW243783   5.459   5.872   0.235 -0.9985 -0.6034 -0.6835
14314SOL     OW43784   8.215   4.311   0.944  0.6163 -0.2407 -0.3234
14314SOL    HW143785   8.152   4.296   0.874  0.3398 -0.3140 -0.0634
14314SOL    HW243786   8.293   4.262   0.918  0.3873 -0.5602 -0.4056
14315SOL     OW43787   6.000   7.458   4.890  0.4639  0.0389 -0.3444
14315SOL    HW143788   5.957   7.505   4.819 -0.7734  2.0800  1.6161
14315SOL    HW243789   5.942   7.470   4.965  2.6581 -0.3486  1.5212
14316SOL     OW43790   0.764   7.841   2.963 -0.0959 -0.4327  0.0330
14316SOL    HW143791   0.724   7.816   3.046  0.6088  0.1634  0.5743
14316SOL    HW243792   0.711   7.798   2.896  0.3604 -2.3592  0.8500
14317SOL     OW43793   3.344   0.429   3.101  0.0353  0.2706  0.1025
14317SOL    HW143794   3.402   0.394   3.168  0.0688  0.0383 -0.0447
14317SOL    HW243795   3.286   0.490   3.147  0.6635  0.8141  0.1802
14318SOL     OW43796   3.078   5.040   3.620 -0.2135 -0.7381 -0.1484
14318SOL    HW143797   3.169   5.067   3.610  0.1116 -2.0672 -1.0334
14318SOL    HW243798   3.036   5.113   3.665  0.5362  1.4114 -2.6494
14319SOL     OW43799   1.414   1.835   2.319  0.3151  0.0413  0.5061
14319SOL    HW143800   1.324   1.827   2.350  0.3243 -0.3017  0.4468
14319SOL    HW243801   1.407   1.887   2.239  0.2854  0.8805  1.0383
14320SOL     OW43802   2.681   5.965   6.207 -0.1078 -0.2326  0.1762
14320SOL    HW143803   2.686   6.003   6.295 -2.5510 -0.3472  0.4354
14320SOL    HW243804   2.745   6.014   6.156  0.7249  0.4583  1.7945
14321SOL     OW43805   6.442   5.639   2.095  0.2269  0.1939  0.1138
14321SOL    HW143806   6.488   5.664   2.175 -0.3173 -2.1281  1.2202
14321SOL    HW243807   6.511   5.615   2.034  0.6992  2.8336 -0.5397
14322SOL     OW43808   0.737   2.852   1.711 -0.1312 -0.4213  0.8328
14322SOL    HW143809   0.796   2.870   1.639 -1.3769 -0.8021 -0.3286
14322SOL    HW243810   0.685   2.932   1.720  0.2358 -0.2535  1.5397
14323SOL     OW43811   1.682   6.176   2.246  0.4471  0.2847 -0.0076
14323SOL    HW143812   1.776   6.160   2.255  0.0214 -2.3478  0.5743
14323SOL    HW243813   1.641   6.109   2.301 -1.7858  1.1570 -0.5105
14324SOL     OW43814   6.154   5.716   2.918 -0.2139 -0.0180  0.2640
14324SOL    HW143815   6.237   5.671   2.903  0.7532  0.7254  2.7599
14324SOL    HW243816   6.090   5.668   2.865  2.2649  1.7163 -4.9231
14325SOL     OW43817   0.357   4.667   5.549  0.4947  0.0175  0.1220
14325SOL    HW143818   0.319   4.722   5.617  0.3092 -0.8184  0.7059
14325SOL    HW243819   0.451   4.684   5.554  0.4689  0.0562  0.5017
14326SOL     OW43820   0.211   5.469   3.759 -0.0285 -0.0967  0.0888
14326SOL    HW143821   0.233   5.435   3.672  2.1448  1.1740  0.0797
14326SOL    HW243822   0.257   5.413   3.820  3.1943  2.2677  0.0903
14327SOL     OW43823   6.946   5.732   6.000 -0.6386 -0.6753  0.3903
14327SOL    HW143824   7.025   5.717   5.947  0.4499 -1.0134  2.0485
14327SOL    HW243825   6.938   5.827   6.004 -0.2870 -0.6373  0.2437
14328SOL     OW43826   2.562   4.818   7.726  0.0480 -0.8573  0.4969
14328SOL    HW143827   2.654   4.833   7.705 -0.4106  0.5444 -0.6266
14328SOL    HW243828   2.556   4.723   7.741  1.6888 -0.9413  0.7815
14329SOL     OW43829   7.839   3.863   1.884  0.2670 -0.5050  0.1836
14329SOL    HW143830   7.868   3.802   1.816  0.9923 -0.1862  0.1993
14329SOL    HW243831   7.744   3.856   1.883  0.1715  0.3046 -1.6539
14330SOL     OW43832   2.289   2.986   6.258 -0.2647 -0.1086 -0.1036
14330SOL    HW143833   2.227   2.945   6.318 -0.9338  0.9409 -0.0491
14330SOL    HW243834   2.356   3.023   6.315  0.4539 -1.2860 -0.1651
14331SOL     OW43835   7.100   5.887   4.700  0.3808  0.3070  0.3084
14331SOL    HW143836   7.122   5.958   4.761  3.7591 -0.1969 -0.1402
14331SOL    HW243837   7.135   5.808   4.742  0.5066 -0.4202 -1.1203
14332SOL     OW43838   3.336   6.844   7.176  0.0241 -0.1477 -0.0225
14332SOL    HW143839   3.422   6.880   7.154 -1.0230  1.8827 -1.0930
14332SOL    HW243840   3.285   6.852   7.096 -0.9298 -2.2198  0.3096
14333SOL     OW43841   3.039   5.634   2.115 -0.1310 -0.7218  0.2707
14333SOL    HW143842   2.965   5.669   2.065 -0.1410 -1.0150  0.0782
14333SOL    HW243843   3.079   5.711   2.155  0.2811 -0.4084 -0.7350
14334SOL     OW43844   7.367   2.499   3.476 -0.3048  0.2681 -0.4641
14334SOL    HW143845   7.317   2.457   3.545 -1.0712  1.6239 -0.1573
14334SOL    HW243846   7.311   2.571   3.446  0.5448  0.4702 -1.6301
14335SOL     OW43847   3.778   0.933   3.535 -0.0049 -0.2832  0.4318
14335SOL    HW143848   3.719   0.859   3.523  0.3484 -0.6673  1.0029
14335SOL    HW243849   3.765   0.987   3.457 -0.2442 -0.9608 -0.0092
14336SOL     OW43850   3.937   6.059   4.633 -0.1148  0.3511  0.1947
14336SOL    HW143851   3.872   6.018   4.690 -0.5043  0.8790  0.1378
14336SOL    HW243852   4.004   6.093   4.693  0.6561 -1.1093  0.1917
14337SOL     OW43853   2.476   1.815   7.388 -0.1573 -0.0352  0.8383
14337SOL    HW143854   2.393   1.773   7.366  0.6132 -0.8864 -0.5834
14337SOL    HW243855   2.458   1.863   7.469 -2.6343  1.7195 -0.6501
14338SOL     OW43856   7.025   1.793   7.655 -0.4126 -0.5572  0.0415
14338SOL    HW143857   7.015   1.888   7.664 -1.5480 -0.7127  0.5702
14338SOL    HW243858   7.096   1.782   7.591 -2.3450  0.6738 -2.4387
14339SOL     OW43859   1.669   7.103   3.807  0.5575 -0.2355  0.2744
14339SOL    HW143860   1.739   7.132   3.748  1.0033  0.5420  1.1457
14339SOL    HW243861   1.704   7.119   3.894 -0.0001 -1.5837  0.7652
14340SOL     OW43862   2.465   0.645   5.161  0.5873  1.0771 -0.6931
14340SOL    HW143863   2.555   0.615   5.147  0.6360  1.1194 -0.4768
14340SOL    HW243864   2.436   0.677   5.075  0.0742 -0.8183 -1.2703
14341SOL     OW43865   4.219   5.040   6.670  0.4556  0.1451  0.1726
14341SOL    HW143866   4.275   4.964   6.653 -2.3022 -1.6818 -1.6719
14341SOL    HW243867   4.245   5.071   6.756  5.0956  0.3107 -1.0128
14342SOL     OW43868   2.945   3.326   4.597  0.6338 -0.0066  0.0617
14342SOL    HW143869   2.977   3.280   4.520  0.6092 -2.4188  1.4088
14342SOL    HW243870   2.855   3.295   4.609  0.2343  1.2133  0.4391
14343SOL     OW43871   2.627   4.726   0.018  0.6855  0.2104 -0.2019
14343SOL    HW143872   2.651   4.757   0.105 -0.5080  0.2535  0.1359
14343SOL    HW243873   2.608   4.632   0.030  2.5499 -0.2861 -0.8577
14344SOL     OW43874   7.358   3.696   0.067  1.1105  0.3894  0.0642
14344SOL    HW143875   7.406   3.615   0.049  0.4856  0.2014 -0.8016
14344SOL    HW243876   7.366   3.708   0.162  0.0001 -1.4676  0.4434
14345SOL     OW43877   1.045   7.506   3.619 -0.4066  0.4587 -0.2961
14345SOL    HW143878   1.069   7.471   3.534 -0.5452 -1.7132  0.5050
14345SOL    HW243879   1.129   7.532   3.658 -0.3578  1.6146 -1.1062
14346SOL     OW43880   0.894   2.172   6.291  0.3280  0.0262 -0.2153
14346SOL    HW143881   0.973   2.186   6.238  0.3625 -0.8693 -0.4177
14346SOL    HW243882   0.838   2.116   6.238 -0.2972  0.3594  0.0790
14347SOL     OW43883   6.316   7.373   1.006  0.0484 -0.1726 -0.2274
14347SOL    HW143884   6.230   7.342   0.976 -0.6431  1.3058  0.1623
14347SOL    HW243885   6.328   7.330   1.091 -0.7200  0.2909  0.1267
14348SOL     OW43886   2.012   5.192   2.087  0.4668 -0.3438 -0.0700
14348SOL    HW143887   1.963   5.269   2.056  0.9958 -0.6396 -1.7723
14348SOL    HW243888   1.984   5.122   2.028  0.3534 -1.3450  1.1569
14349SOL     OW43889   2.932   3.344   3.060 -0.7039  0.6851  0.0158
14349SOL    HW143890   2.843   3.323   3.034 -0.9001 -0.1586  1.3019
14349SOL    HW243891   2.934   3.330   3.155  0.5604  1.5308  0.1446
14350SOL     OW43892   1.331   5.196   3.043  0.5922 -0.0787  0.2116
14350SOL    HW143893   1.352   5.285   3.014  0.7349  0.4996  1.9574
14350SOL    HW243894   1.301   5.207   3.134 -1.0349 -1.6321 -0.0830
14351SOL     OW43895   0.263   3.257   6.295  0.0869  0.1174 -0.0355
14351SOL    HW143896   0.309   3.205   6.360  2.0385 -1.2255 -2.3343
14351SOL    HW243897   0.175   3.219   6.291  0.4538 -0.8245  0.6381
14352SOL     OW43898   4.353   4.848   1.720  0.2830 -0.4972 -0.6163
14352SOL    HW143899   4.311   4.895   1.648  0.2818 -1.3194 -1.1570
14352SOL    HW243900   4.410   4.914   1.761 -0.3140  0.1907 -0.8619
14353SOL     OW43901   1.087   4.699   6.527 -0.0426  0.4124  0.2001
14353SOL    HW143902   1.110   4.755   6.453 -0.1516 -1.1298 -1.0526
14353SOL    HW243903   0.993   4.713   6.539  0.1967  1.5833  0.8766
14354SOL     OW43904   0.640   4.688   5.695 -0.6838  0.4092  0.1913
14354SOL    HW143905   0.709   4.703   5.631 -2.2015  1.1609 -1.3270
14354SOL    HW243906   0.673   4.728   5.776  0.3805  1.3136 -0.6729
14355SOL     OW43907   7.659   2.213   7.391 -0.1698 -0.0675 -0.2309
14355SOL    HW143908   7.595   2.243   7.326 -0.1288 -1.1946 -0.8228
14355SOL    HW243909   7.709   2.145   7.346 -0.6129 -1.3852  1.1860
14356SOL     OW43910   0.757   6.094   3.201  0.0128 -0.2354  0.3660
14356SOL    HW143911   0.843   6.088   3.245  0.0145  1.3841  0.6421
14356SOL    HW243912   0.710   6.016   3.231  1.3443 -1.1032  0.2937
14357SOL     OW43913   3.945   7.799   6.725 -0.2421  0.5571  0.0759
14357SOL    HW143914   3.978   7.806   6.635  2.0104 -1.8105  0.5901
14357SOL    HW243915   4.016   7.834   6.779 -0.8385  0.3510  0.9973
14358SOL     OW43916   8.118   6.969   0.731 -0.6849 -0.1028 -0.4988
14358SOL    HW143917   8.044   6.911   0.711 -0.4964 -0.9130  1.0091
14358SOL    HW243918   8.183   6.911   0.770 -1.0631  1.3101  2.4888
14359SOL     OW43919   1.797   4.882   1.291  0.0464 -0.5813  0.4126
14359SOL    HW143920   1.859   4.810   1.303  1.5926  0.8210  1.2503
14359SOL    HW243921   1.808   4.907   1.199  2.6857  1.2435  1.0946
14360SOL     OW43922   3.016   0.473   5.897 -0.1670  0.5580  0.1468
14360SOL    HW143923   2.933   0.512   5.925  0.6128  1.6855  1.0237
14360SOL    HW243924   3.077   0.497   5.967  0.5822 -1.4881  0.2398
14361SOL     OW43925   0.339   3.506   2.459 -0.1780  0.3450 -0.0972
14361SOL    HW143926   0.246   3.511   2.437 -0.4348 -0.5352  0.7716
14361SOL    HW243927   0.380   3.470   2.380 -0.8341 -1.0101  0.1555
14362SOL     OW43928   1.103   7.297   2.867  0.4287  0.1270  0.5108
14362SOL    HW143929   1.161   7.228   2.901 -0.1078 -1.2773 -1.2587
14362SOL    HW243930   1.160   7.374   2.860  1.3012 -0.3861  1.6165
14363SOL     OW43931   2.078   6.519   7.013  0.3155  0.0243  0.2150
14363SOL    HW143932   2.155   6.552   7.059  0.9559 -0.4408 -0.5026
14363SOL    HW243933   2.024   6.480   7.082  0.6102  0.5441  0.7548
14364SOL     OW43934   1.841   2.942   3.168  0.6074  0.0859  0.0730
14364SOL    HW143935   1.881   2.947   3.082  1.2954 -0.0146  0.3773
14364SOL    HW243936   1.786   3.020   3.174  0.4379  0.0143 -0.5080
14365SOL     OW43937   1.249   5.323   1.750 -0.1262 -0.4190 -0.4738
14365SOL    HW143938   1.232   5.333   1.657 -0.3134  0.8101 -0.3259
14365SOL    HW243939   1.170   5.281   1.785 -1.3563  1.7783 -0.4214
14366SOL     OW43940   2.757   2.952   2.321  0.2066 -0.4968  0.0746
14366SOL    HW143941   2.821   3.023   2.312 -0.4807  0.2409  0.8547
14366SOL    HW243942   2.685   2.991   2.370  0.0763 -1.9094  1.0600
14367SOL     OW43943   8.042   6.114   3.723 -0.8557  0.1893  0.4589
14367SOL    HW143944   8.060   6.066   3.804  1.0366 -1.5524 -0.9039
14367SOL    HW243945   7.953   6.089   3.699 -0.4281 -1.5635  0.5598
14368SOL     OW43946   6.590   2.833   5.940  0.1090 -0.1222  0.3144
14368SOL    HW143947   6.573   2.758   5.884  2.0011 -1.2440  1.1324
14368SOL    HW243948   6.617   2.903   5.880 -0.5226 -0.4450 -0.3570
14369SOL     OW43949   7.268   1.735   5.286  0.4421  0.4762  0.1544
14369SOL    HW143950   7.289   1.690   5.369  0.9392  0.5340  0.0659
14369SOL    HW243951   7.173   1.726   5.277  0.3788  0.4868  0.7436
14370SOL     OW43952   0.020   0.004   4.358 -0.0170  0.0127  0.4539
14370SOL    HW143953   0.070  -0.056   4.302 -0.8480 -0.8973  0.6521
14370SOL    HW243954   0.050   0.091   4.332  0.1841 -0.4208 -0.8519
14371SOL     OW43955   2.857   0.260   7.338  0.0882  0.4455  0.1481
14371SOL    HW143956   2.882   0.285   7.249  0.0017  1.5140  0.4078
14371SOL    HW243957   2.863   0.342   7.388 -1.3742  0.2039  0.7762
14372SOL     OW43958   5.913   6.726   4.890 -0.3058 -0.0978 -0.3349
14372SOL    HW143959   5.998   6.692   4.862 -0.2519 -0.0143 -0.2770
14372SOL    HW243960   5.897   6.801   4.832 -0.7379 -0.6219 -0.8996
14373SOL     OW43961   7.401   6.273   1.686 -0.0960 -0.0452  0.4042
14373SOL    HW143962   7.481   6.238   1.727  0.2964  1.3729  0.9221
14373SOL    HW243963   7.419   6.271   1.593  0.5818  0.3194  0.5212
14374SOL     OW43964   7.916   8.140   5.713 -0.1091 -0.5164 -0.1485
14374SOL    HW143965   7.982   8.116   5.778 -0.5346 -0.6675  0.2384
14374SOL    HW243966   7.865   8.210   5.755 -0.3296 -0.5537 -0.3507
14375SOL     OW43967   3.193   3.309   4.124  0.6285 -0.4726 -0.3960
14375SOL    HW143968   3.187   3.250   4.048  0.4420 -1.4590  0.3591
14375SOL    HW243969   3.230   3.254   4.193 -1.3083 -0.2838  0.8845
14376SOL     OW43970   5.283   6.458   0.015  0.6919 -0.2075 -0.2080
14376SOL    HW143971   5.200   6.420   0.042  1.0221 -1.0584 -0.3541
14376SOL    HW243972   5.345   6.431   0.083  1.1040 -0.6575 -0.7547
14377SOL     OW43973   1.196   1.446   1.011  0.2066 -0.1083  0.2724
14377SOL    HW143974   1.187   1.378   1.078  1.7517 -0.9008 -0.2772
14377SOL    HW243975   1.158   1.524   1.051  0.4957 -0.7163  1.8131
14378SOL     OW43976   1.667   7.546   7.870  0.2171  0.7077 -0.5425
14378SOL    HW143977   1.672   7.639   7.848  0.8748  0.6364 -0.6988
14378SOL    HW243978   1.758   7.519   7.885 -0.0503  0.3571  0.6047
14379SOL     OW43979   6.981   1.703   2.123  0.7983 -0.0127 -0.2896
14379SOL    HW143980   6.898   1.751   2.123  1.4900  1.2275 -0.3186
14379SOL    HW243981   7.042   1.761   2.078  1.6733 -0.9451 -0.3401
14380SOL     OW43982   7.547   6.683   0.940  0.0186 -0.1116 -0.2862
14380SOL    HW143983   7.613   6.628   0.897  0.0557 -0.9552  0.8017
14380SOL    HW243984   7.584   6.771   0.939  1.3981 -0.6579  0.7526
14381SOL     OW43985   3.095   6.909   6.401 -0.4643 -0.3308  0.1774
14381SOL    HW143986   3.057   6.857   6.330  1.3374  0.1226 -1.2025
14381SOL    HW243987   3.109   6.996   6.362 -0.0463  0.1300  1.3002
14382SOL     OW43988   0.171   7.013   3.059  0.0581  0.1540  0.0778
14382SOL    HW143989   0.232   6.963   3.114  0.5608 -2.7583 -2.8051
14382SOL    HW243990   0.084   6.991   3.094  0.4220 -0.3422  0.7082
14383SOL     OW43991   4.822   6.731   5.960  0.0081 -0.4485  0.3356
14383SOL    HW143992   4.849   6.740   5.868 -2.0857 -0.8368 -0.3699
14383SOL    HW243993   4.902   6.748   6.010  1.2054 -0.2179 -1.5489
14384SOL     OW43994   5.603   5.376   2.124  0.3235 -0.1641 -0.0304
14384SOL    HW143995   5.580   5.467   2.108  0.8385 -0.1706 -0.8571
14384SOL    HW243996   5.626   5.341   2.038 -0.6056 -1.2969  0.1514
14385SOL     OW43997   5.338   7.264   7.137  0.3765 -0.2544  0.0596
14385SOL    HW143998   5.246   7.241   7.124  0.3280 -0.5891  0.9328
14385SOL    HW243999   5.383   7.180   7.141  0.4307 -0.1686  1.6372
14386SOL     OW44000   5.646   5.175   1.059  0.3170  0.6769  0.1303
14386SOL    HW144001   5.654   5.095   1.007 -0.6658  1.3329 -1.0755
14386SOL    HW244002   5.572   5.159   1.118  2.4896 -0.7500  2.7148
14387SOL     OW44003   7.864   1.192   2.071 -0.0173  0.0109  0.3308
14387SOL    HW144004   7.952   1.220   2.047  0.1262 -1.1023 -0.5091
14387SOL    HW244005   7.842   1.123   2.007 -0.4930 -1.5276  2.0747
14388SOL     OW44006   3.451   7.605   4.873 -0.1334 -0.8516 -0.3667
14388SOL    HW144007   3.369   7.609   4.922  0.1947  0.5965  0.1222
14388SOL    HW244008   3.498   7.685   4.899  1.0199 -1.1871 -1.3458
14389SOL     OW44009   6.707   0.498   5.155  0.0644 -0.7061  0.2570
14389SOL    HW144010   6.793   0.459   5.170  0.5628 -0.0200 -0.6623
14389SOL    HW244011   6.644   0.435   5.191  0.9942 -0.6651  2.0509
14390SOL     OW44012   5.406   6.167   1.120 -0.1564  0.9179 -0.1842
14390SOL    HW144013   5.324   6.120   1.136  0.0702 -0.2637 -2.1426
14390SOL    HW244014   5.470   6.098   1.100  0.4911  1.9641 -1.9307
14391SOL     OW44015   0.013   7.281   2.280  0.1386  0.8272  0.0986
14391SOL    HW144016   0.062   7.334   2.342  0.8988  1.6517 -1.1678
14391SOL    HW244017   0.076   7.263   2.209 -1.2430  1.5961 -1.3842
14392SOL     OW44018   5.905   0.282   6.213 -0.2560  0.1286  0.1923
14392SOL    HW144019   5.974   0.322   6.159 -1.4061  2.6017  0.4139
14392SOL    HW244020   5.947   0.269   6.298 -0.1220  2.1358  0.4925
14393SOL     OW44021   1.987   2.624   7.830 -0.0146  0.3340  0.1297
14393SOL    HW144022   2.053   2.594   7.768 -0.9727 -0.6996 -0.4140
14393SOL    HW244023   1.996   2.566   7.906  1.3654  1.7883  1.1593
14394SOL     OW44024   0.249   0.856   0.417  0.4106 -0.0132 -0.2801
14394SOL    HW144025   0.164   0.828   0.449 -0.7198  2.2594 -1.0257
14394SOL    HW244026   0.252   0.826   0.326  0.3080  0.0600 -0.3081
14395SOL     OW44027   3.714   5.640   4.434  0.3113  0.4023 -0.0058
14395SOL    HW144028   3.786   5.702   4.428  0.9887 -0.3328  0.3856
14395SOL    HW244029   3.708   5.601   4.347  1.6948 -0.9527  0.4659
14396SOL     OW44030   1.903   6.671   5.549  0.4357  0.9507 -0.0867
14396SOL    HW144031   1.884   6.762   5.571  0.1788  0.9069 -0.1170
14396SOL    HW244032   1.817   6.632   5.533  0.6367  1.0969 -1.6420
14397SOL     OW44033   1.242   2.822   3.521  0.2335  0.7165 -0.1133
14397SOL    HW144034   1.329   2.844   3.488  0.7340  0.4730  1.0229
14397SOL    HW244035   1.242   2.851   3.612 -0.6447  0.1057  0.0927
14398SOL     OW44036   0.438   6.690   2.130 -0.0788  0.3821  0.5545
14398SOL    HW144037   0.390   6.673   2.211 -0.3744  0.3618  0.3756
14398SOL    HW244038   0.404   6.773   2.099  0.6099  0.7924  0.8697
14399SOL     OW44039   2.500   2.292   7.944 -0.6147  0.9334 -0.3116
14399SOL    HW144040   2.408   2.309   7.960 -0.2019  2.5793  0.5939
14399SOL    HW244041   2.525   2.228   8.010 -1.2782 -0.1765 -1.1079
14400SOL     OW44042   0.724   0.909   6.628 -0.0935  0.7567 -0.2781
14400SOL    HW144043   0.811   0.944   6.648  0.4454 -0.8103  0.3105
14400SOL    HW244044   0.663   0.971   6.666  0.8076  1.2230  0.4334
14401SOL     OW44045   4.900   1.129   1.615  0.3712  0.0333  0.1382
14401SOL    HW144046   4.926   1.180   1.538  0.3414  0.0077  0.1109
14401SOL    HW244047   4.916   1.038   1.590  1.5906  0.0884  0.6258
14402SOL     OW44048   4.663   0.326   1.765  0.3809 -0.2352 -0.4634
14402SOL    HW144049   4.674   0.391   1.695  0.3303  1.1785  0.7982
14402SOL    HW244050   4.747   0.280   1.767  0.8494  0.5810 -0.6144
14403SOL     OW44051   6.654   0.394   5.891  0.0222 -0.0741 -0.1548
14403SOL    HW144052   6.696   0.313   5.922  0.8799  0.5567  0.3776
14403SOL    HW244053   6.726   0.455   5.879 -0.6154  0.5998 -0.6172
14404SOL     OW44054   5.839   6.758   7.057 -0.7586 -0.0130  1.0785
14404SOL    HW144055   5.756   6.731   7.018 -0.7056 -0.9430  1.5916
14404SOL    HW244056   5.849   6.702   7.134  1.6429 -1.9025 -0.4338
14405SOL     OW44057   0.355   4.604   6.613 -0.4699  0.0830  0.2073
14405SOL    HW144058   0.342   4.509   6.606  1.2313 -0.1860  0.4161
14405SOL    HW244059   0.400   4.628   6.533 -0.0629  0.5615  0.5805
14406SOL     OW44060   1.721   5.226   6.575  0.2903 -0.6401 -0.4171
14406SOL    HW144061   1.711   5.144   6.624  0.8185 -0.5835 -0.2082
14406SOL    HW244062   1.761   5.287   6.638  1.8416 -0.8361 -1.1759
14407SOL     OW44063   4.368   0.110   8.143  0.5923 -0.0785 -0.1004
14407SOL    HW144064   4.425   0.171   8.096 -2.1239  2.7697  0.0006
14407SOL    HW244065   4.324   0.060   8.074 -1.1565  1.9872 -0.5689
14408SOL     OW44066   3.793   0.752   6.365 -0.7646 -0.1916 -0.0584
14408SOL    HW144067   3.874   0.794   6.395 -0.4683 -1.0229  0.3299
14408SOL    HW244068   3.782   0.785   6.276  0.7008 -1.0223 -0.5879
14409SOL     OW44069   0.115   0.096   8.185 -0.2399  0.7830  0.3592
14409SOL    HW144070   0.061   0.057   8.116 -1.4168  1.0407  1.1038
14409SOL    HW244071   0.105   0.190   8.173  0.7576  0.8555 -0.0197
14410SOL     OW44072   6.183   0.438   7.521  0.2183  0.3815  0.3351
14410SOL    HW144073   6.113   0.372   7.522  1.1491 -0.6448  0.0513
14410SOL    HW244074   6.137   0.522   7.519 -1.0053 -0.2469  0.9060
14411SOL     OW44075   6.383   7.894   0.443  0.0813 -0.5305 -0.0951
14411SOL    HW144076   6.322   7.828   0.409 -0.0048 -0.8083  0.5709
14411SOL    HW244077   6.381   7.881   0.538  0.5331  0.0285 -0.0037
14412SOL     OW44078   5.121   7.795   7.181  0.3037 -0.3535  0.0574
14412SOL    HW144079   5.210   7.770   7.207  0.3060 -2.1515 -1.4670
14412SOL    HW244080   5.128   7.811   7.087 -0.2916  3.0442  0.4774
14413SOL     OW44081   0.001   0.541   1.481 -0.5840 -0.0778  0.0005
14413SOL    HW144082  -0.005   0.463   1.427  0.4325 -1.0668  1.2557
14413SOL    HW244083  -0.073   0.595   1.453 -1.0522 -1.2822 -1.1896
14414SOL     OW44084   0.747   1.800   0.791  0.4863 -0.2183 -0.4068
14414SOL    HW144085   0.725   1.806   0.884 -0.0563 -0.7984 -0.4905
14414SOL    HW244086   0.784   1.886   0.769  0.2074  0.0713  0.2397
14415SOL     OW44087   5.506   7.708   5.013 -0.2629  0.7498 -0.2230
14415SOL    HW144088   5.450   7.630   5.015 -0.0278  0.5843  0.0054
14415SOL    HW244089   5.492   7.750   5.098  0.1323  0.5839 -0.0740
14416SOL     OW44090   0.008   0.522   4.315 -0.1990  0.2484 -0.5049
14416SOL    HW144091   0.006   0.614   4.340 -1.0856 -0.0510  0.6482
14416SOL    HW244092   0.006   0.523   4.219 -1.5231  1.4299 -0.5027
14417SOL     OW44093   6.708   0.876   6.814 -0.0317  0.2248 -0.3173
14417SOL    HW144094   6.662   0.834   6.741  2.3417 -1.1551 -1.1445
14417SOL    HW244095   6.787   0.822   6.826  1.3552  2.4176  0.9919
14418SOL     OW44096   6.548   2.292   5.319 -0.0931  0.3777 -0.3495
14418SOL    HW144097   6.482   2.223   5.332 -0.5396  0.8731  0.0428
14418SOL    HW244098   6.595   2.296   5.402 -1.1123  1.6238  0.2017
14419SOL     OW44099   2.840   7.833   7.720 -0.2051 -0.4475  0.4464
14419SOL    HW144100   2.914   7.883   7.755 -0.7902  1.0045 -0.2938
14419SOL    HW244101   2.875   7.792   7.641 -0.4144  1.0759 -0.4799
14420SOL     OW44102   7.515   4.673   7.702  0.4273  0.2138 -0.0063
14420SOL    HW144103   7.490   4.634   7.786  0.8901  0.2841  0.1717
14420SOL    HW244104   7.556   4.756   7.727  0.2163  0.4133 -0.3271
14421SOL     OW44105   5.369   6.623   1.965  0.2066 -0.0108  0.5466
14421SOL    HW144106   5.304   6.682   1.927 -0.3212  0.4468  2.0760
14421SOL    HW244107   5.451   6.648   1.922 -0.5005 -0.2173 -1.0052
14422SOL     OW44108   0.867   4.436   6.966 -0.0970 -0.2633  0.7697
14422SOL    HW144109   0.829   4.486   6.894 -1.4825  2.2609  3.0628
14422SOL    HW244110   0.962   4.445   6.955 -0.1939 -1.3960 -1.5840
14423SOL     OW44111   4.455   4.524   5.485 -0.0474  0.0697  0.2569
14423SOL    HW144112   4.479   4.432   5.489 -2.0199 -0.4876  0.0427
14423SOL    HW244113   4.530   4.570   5.523  0.3651 -1.7199  1.7449
14424SOL     OW44114   4.185   4.067   2.647  0.4699  0.0585  0.2777
14424SOL    HW144115   4.105   4.110   2.676  1.3831  0.1242  2.9334
14424SOL    HW244116   4.232   4.135   2.600  0.3216  0.9577  1.3857
14425SOL     OW44117   5.896   5.719   4.704 -0.5005 -0.5241  0.0390
14425SOL    HW144118   5.959   5.736   4.774 -0.3450 -1.5775  0.1742
14425SOL    HW244119   5.858   5.804   4.684  1.5128  0.2754 -0.5759
14426SOL     OW44120   7.826   3.294   7.874  0.0191 -0.0410  0.0396
14426SOL    HW144121   7.835   3.377   7.826  1.6666  0.4830  1.1653
14426SOL    HW244122   7.744   3.256   7.841  0.5080  0.7963 -2.3568
14427SOL     OW44123   3.485   2.217   1.338  0.5267 -0.2305  0.2121
14427SOL    HW144124   3.438   2.265   1.406  0.9936  0.3895  0.0996
14427SOL    HW244125   3.575   2.214   1.368  0.9491  0.9806 -0.8731
14428SOL     OW44126   0.665   6.868   0.001  0.1346 -0.4579 -0.5907
14428SOL    HW144127   0.595   6.811  -0.031 -0.1179  0.4304 -1.7094
14428SOL    HW244128   0.618   6.946   0.033  0.3977 -1.1888  1.7476
14429SOL     OW44129   2.102   1.524   3.660  0.1012 -0.7917  0.3827
14429SOL    HW144130   2.062   1.567   3.585 -0.0621 -1.1361  0.2709
14429SOL    HW244131   2.187   1.492   3.628  1.0195  0.9766  0.9348
14430SOL     OW44132   4.636   6.885   6.598  0.0725  0.0380 -0.1135
14430SOL    HW144133   4.606   6.795   6.589 -3.0363  0.7129  1.7035
14430SOL    HW244134   4.617   6.925   6.513 -0.7644 -0.4977 -0.1957
14431SOL     OW44135   4.569   4.807   5.313  0.3762 -0.4219  0.2935
14431SOL    HW144136   4.579   4.898   5.343  0.2714 -0.2644 -0.1505
14431SOL    HW244137   4.516   4.766   5.381  2.3646 -0.7737  1.7193
14432SOL     OW44138   6.496   0.559   5.412 -0.4442  0.1184 -0.1262
14432SOL    HW144139   6.527   0.513   5.490  1.8563  0.3458 -0.8366
14432SOL    HW244140   6.559   0.630   5.400 -1.4537  0.8246 -1.5193
14433SOL     OW44141   4.428   0.124   2.569 -0.0026 -0.5863 -0.6002
14433SOL    HW144142   4.423   0.211   2.610 -0.7496 -1.4167  1.2060
14433SOL    HW244143   4.509   0.086   2.603 -0.9309 -1.5160  0.6788
14434SOL     OW44144   2.209   4.658   4.213  0.3387 -0.0629  0.1756
14434SOL    HW144145   2.258   4.582   4.243  0.9730  0.1586 -0.2524
14434SOL    HW244146   2.198   4.644   4.119 -1.5722 -0.7255  0.4727
14435SOL     OW44147   6.703   0.393   7.446 -0.1812 -0.0714 -0.4481
14435SOL    HW144148   6.636   0.459   7.464 -0.4217 -0.7664  1.4459
14435SOL    HW244149   6.667   0.313   7.484  1.7309 -0.4361  0.6928
14436SOL     OW44150   2.472   7.310   0.530  0.0568  0.2699 -0.5194
14436SOL    HW144151   2.567   7.300   0.534  0.3263  1.1918 -2.8774
14436SOL    HW244152   2.437   7.223   0.546  1.1689  0.1906  1.9779
14437SOL     OW44153   3.503   1.489   3.267  0.2487  0.4825 -0.2124
14437SOL    HW144154   3.547   1.569   3.239  0.3885 -0.1347 -1.8543
14437SOL    HW244155   3.462   1.512   3.351  1.5954  1.7947  0.1215
14438SOL     OW44156   8.070   7.342   6.073 -0.0643  0.0502 -0.4893
14438SOL    HW144157   7.997   7.300   6.028  0.0122 -0.5487 -0.0599
14438SOL    HW244158   8.050   7.435   6.068 -1.3868 -0.1500  0.5078
14439SOL     OW44159   1.016   2.229   0.632  0.4148  0.0076  0.2647
14439SOL    HW144160   0.939   2.207   0.580  1.4030 -0.2634 -1.1266
14439SOL    HW244161   1.017   2.325   0.634  0.7817  0.0468 -0.9022
14440SOL     OW44162   4.111   7.475   5.091 -0.0212 -0.8468  0.6430
14440SOL    HW144163   4.020   7.446   5.099 -0.2921 -0.3692 -0.5651
14440SOL    HW244164   4.147   7.422   5.019 -0.7249  2.1186 -2.1094
14441SOL     OW44165   2.798   3.947   2.035 -0.4849 -0.1328 -0.5829
14441SOL    HW144166   2.805   4.011   2.107  2.0182 -0.1250 -0.7494
14441SOL    HW244167   2.827   3.864   2.074  0.1094 -0.3031 -1.3584
14442SOL     OW44168   2.888   6.928   4.083 -0.0439  0.0460  0.0359
14442SOL    HW144169   2.845   7.005   4.045  0.3382 -0.0342 -0.5637
14442SOL    HW244170   2.874   6.937   4.177 -0.2807  0.6818 -0.0562
14443SOL     OW44171   5.656   7.840   6.442 -0.5028  0.5492  0.3786
14443SOL    HW144172   5.730   7.881   6.397 -0.1222 -0.1656  0.3252
14443SOL    HW244173   5.585   7.903   6.435 -0.1395  0.8935 -0.3108
14444SOL     OW44174   7.228   0.886   1.930  0.3227 -0.1567  0.0286
14444SOL    HW144175   7.179   0.949   1.876 -0.9897  0.7233  2.1474
14444SOL    HW244176   7.318   0.895   1.900 -0.3545  0.1699 -2.1123
14445SOL     OW44177   0.786   4.327   3.690 -0.3762  0.0768  0.1257
14445SOL    HW144178   0.879   4.309   3.678 -0.7331 -1.4613 -0.6258
14445SOL    HW244179   0.771   4.410   3.644  0.3412 -0.4567 -1.1250
14446SOL     OW44180   4.382   2.342   2.351 -0.2228  0.1521  0.4826
14446SOL    HW144181   4.315   2.295   2.401 -0.7472 -1.4025 -1.5701
14446SOL    HW244182   4.333   2.407   2.301 -0.5708 -2.1008 -2.3336
14447SOL     OW44183   1.774   5.055   1.525  0.3038 -0.3916 -0.3208
14447SOL    HW144184   1.698   5.113   1.520 -1.3780 -2.4075  0.4944
14447SOL    HW244185   1.780   5.016   1.438 -0.1135 -0.8402 -0.1509
14448SOL     OW44186   4.496   1.276   7.547 -0.0447 -0.0563  0.7388
14448SOL    HW144187   4.574   1.328   7.529 -1.0976  0.9671 -1.1549
14448SOL    HW244188   4.499   1.206   7.481 -0.4164 -0.3752  1.0575
14449SOL     OW44189   4.700   6.535   2.968 -0.4006 -0.3869  0.7305
14449SOL    HW144190   4.767   6.579   3.022 -1.8327 -0.1330  2.4076
14449SOL    HW244191   4.634   6.602   2.953  0.8693  0.2171 -3.2930
14450SOL     OW44192   3.856   2.998   3.213  0.0054 -0.2383  0.2337
14450SOL    HW144193   3.807   3.062   3.265  0.8037  0.2094  0.4497
14450SOL    HW244194   3.789   2.954   3.160 -0.8195 -0.6021  1.5213
14451SOL     OW44195   6.368   0.482   6.010 -0.1338 -0.2060  0.0965
14451SOL    HW144196   6.404   0.446   6.091 -0.6893 -0.7503  0.1099
14451SOL    HW244197   6.434   0.463   5.944  0.2330  0.0618  0.3794
14452SOL     OW44198   6.485   2.384   1.340 -0.3474  0.1162  0.5690
14452SOL    HW144199   6.530   2.443   1.402 -0.5000  0.1679  0.6317
14452SOL    HW244200   6.413   2.437   1.306 -1.3424 -0.4790  1.6794
14453SOL     OW44201   3.774   1.188   4.150  1.1111 -0.0144 -0.4080
14453SOL    HW144202   3.773   1.124   4.221 -0.0472  0.3112 -0.1131
14453SOL    HW244203   3.815   1.266   4.188  1.6027 -0.2407 -0.4682
14454SOL     OW44204   3.743   2.927   4.359  0.8061  0.3109 -0.4254
14454SOL    HW144205   3.745   2.990   4.287 -1.0486  0.6130 -0.2595
14454SOL    HW244206   3.835   2.909   4.378  1.3799  2.3571 -1.0161
14455SOL     OW44207   5.066   0.213   4.962 -0.9613  0.1119  0.2610
14455SOL    HW144208   5.035   0.250   4.879 -0.7079  1.3746  0.7188
14455SOL    HW244209   5.161   0.221   4.958 -0.8583 -0.9100  0.1939
14456SOL     OW44210   4.805   7.566   0.539 -0.1695 -0.0675  1.2947
14456SOL    HW144211   4.821   7.586   0.632  1.5469 -1.5907  1.3841
14456SOL    HW244212   4.888   7.530   0.508 -0.6718  0.5579 -0.9015
14457SOL     OW44213   4.892   7.803   7.319 -0.5783  0.7040 -0.3547
14457SOL    HW144214   4.857   7.715   7.330 -0.8643  1.0273  1.6935
14457SOL    HW244215   4.982   7.790   7.290 -0.8311 -0.2364 -0.7305
14458SOL     OW44216   4.124   1.182   4.165 -0.6615  0.3631  0.0150
14458SOL    HW144217   4.136   1.189   4.259  2.5767  0.1113 -0.2785
14458SOL    HW244218   4.123   1.088   4.147  0.5260  0.3944 -0.3239
14459SOL     OW44219   6.243   6.058   0.961 -0.5476  0.1961  0.3879
14459SOL    HW144220   6.333   6.090   0.970 -0.8383  1.3561 -0.5552
14459SOL    HW244221   6.192   6.136   0.940 -1.7554 -0.4766  0.7204
14460SOL     OW44222   2.065   5.494   8.028  1.0953 -0.8906 -0.4821
14460SOL    HW144223   2.038   5.406   8.055 -0.0188 -0.1273  1.0502
14460SOL    HW244224   2.061   5.492   7.933 -0.9577 -1.9161 -0.4341
14461SOL     OW44225   5.846   1.904   6.184 -0.7219 -0.1126 -0.3669
14461SOL    HW144226   5.793   1.925   6.260 -1.0332 -1.1094 -0.2915
14461SOL    HW244227   5.917   1.968   6.185 -1.4037  0.6519  0.0562
14462SOL     OW44228   7.826   5.517   4.350 -0.4404  0.3412 -0.3077
14462SOL    HW144229   7.856   5.475   4.431  1.5530  0.9428 -0.6918
14462SOL    HW244230   7.789   5.446   4.298 -2.1894  0.0022  1.2532
14463SOL     OW44231   6.601   2.563   4.510  0.2286  0.0013 -0.1460
14463SOL    HW144232   6.563   2.532   4.593  2.0047 -0.8458  0.4143
14463SOL    HW244233   6.572   2.498   4.445  0.5862 -0.5564  0.2419
14464SOL     OW44234   3.354   0.773   5.609  0.1971 -0.4585 -0.3397
14464SOL    HW144235   3.329   0.802   5.521 -2.2529 -1.5883 -0.1277
14464SOL    HW244236   3.277   0.791   5.663  1.0300 -1.2793  1.1996
14465SOL     OW44237   7.501   6.021   5.448  0.6577 -0.2856  0.7188
14465SOL    HW144238   7.585   5.980   5.472  0.6597 -0.4084  0.5054
14465SOL    HW244239   7.462   6.047   5.531  1.2767  0.5057  0.7721
14466SOL     OW44240   2.254   3.459   3.917  0.1961 -0.0277 -0.1317
14466SOL    HW144241   2.308   3.412   3.854 -0.5526  1.4017 -1.9670
14466SOL    HW244242   2.305   3.537   3.939  0.2139 -0.2455  0.6423
14467SOL     OW44243   7.261   4.791   7.542 -0.3365  0.1822 -0.4804
14467SOL    HW144244   7.338   4.740   7.568  0.8202  1.9014 -0.3835
14467SOL    HW244245   7.201   4.726   7.505  0.3294 -1.4974  1.2012
14468SOL     OW44246   4.431   1.001   4.963  0.0359  0.0783  0.2202
14468SOL    HW144247   4.354   0.948   4.985 -0.0096  0.5752  1.3350
14468SOL    HW244248   4.470   1.022   5.048  1.4450 -0.2184 -0.3388
14469SOL     OW44249   1.287   7.762   4.698  0.2833 -0.1762 -1.3871
14469SOL    HW144250   1.208   7.783   4.747  0.7350  0.1230 -0.7673
14469SOL    HW244251   1.295   7.834   4.634  0.4766  0.2219 -0.9247
14470SOL     OW44252   7.317   0.312   3.568  0.4066 -0.3786 -0.4853
14470SOL    HW144253   7.223   0.331   3.567  0.3414 -0.5008  0.9404
14470SOL    HW244254   7.335   0.274   3.482 -1.1654 -1.7824 -0.2332
14471SOL     OW44255   0.642   1.531   5.081  0.2649 -0.4841  0.6894
14471SOL    HW144256   0.574   1.483   5.034 -0.4563  0.3445  0.8591
14471SOL    HW244257   0.663   1.475   5.156  1.2608 -1.7055 -0.4522
14472SOL     OW44258   4.999   6.137   6.795 -0.2656 -0.0571 -0.0628
14472SOL    HW144259   4.966   6.226   6.806 -2.2601 -0.7735  0.2614
14472SOL    HW244260   5.052   6.140   6.716  0.5388  1.6232  0.5110
14473SOL     OW44261   0.694   1.826   2.518  0.1311  0.2869 -0.2548
14473SOL    HW144262   0.636   1.804   2.445  0.4127 -2.3033  0.2075
14473SOL    HW244263   0.660   1.775   2.591  0.8040  1.6220  1.0320
14474SOL     OW44264   0.171   8.061   6.616  0.3813  0.1889 -0.1442
14474SOL    HW144265   0.082   8.096   6.623  0.7332  1.0606  0.0833
14474SOL    HW244266   0.225   8.122   6.667  0.9494 -0.9326  0.6446
14475SOL     OW44267   4.991   2.666   0.687  0.2332 -0.3600  0.2064
14475SOL    HW144268   4.928   2.595   0.700  0.0574 -0.2241  0.0982
14475SOL    HW244269   5.022   2.687   0.775 -0.3070 -0.0290  0.3228
14476SOL     OW44270   7.618   0.664   7.548 -0.3827  0.0735 -0.6013
14476SOL    HW144271   7.550   0.727   7.571  0.5808  2.0119 -2.6275
14476SOL    HW244272   7.584   0.618   7.471 -0.0356 -0.0245 -0.6993
14477SOL     OW44273   7.121   6.246   5.720  0.1727 -0.0836 -0.4905
14477SOL    HW144274   7.081   6.300   5.652 -2.1615  1.4102  1.9187
14477SOL    HW244275   7.047   6.204   5.764  1.3902  0.4605  2.2723
14478SOL     OW44276   6.732   6.369   1.544  1.0362 -0.7407 -0.5843
14478SOL    HW144277   6.671   6.296   1.557 -0.0097  0.2324  0.1617
14478SOL    HW244278   6.675   6.444   1.525  2.0528  0.0116 -0.7076
14479SOL     OW44279   2.368   2.555   6.193  0.1139  0.1067  0.2699
14479SOL    HW144280   2.406   2.471   6.218  0.5451  0.3806  0.5447
14479SOL    HW244281   2.364   2.552   6.098 -0.5853 -0.5322  0.3100
14480SOL     OW44282   3.555   6.885   0.876 -0.3306  0.1381  0.2448
14480SOL    HW144283   3.561   6.894   0.781 -0.1279  0.7987  0.3206
14480SOL    HW244284   3.462   6.866   0.892  0.1362 -3.1461 -0.3272
14481SOL     OW44285   0.098   6.089   2.005 -0.2838 -0.5444 -0.0178
14481SOL    HW144286   0.129   6.049   1.924 -1.3618 -0.4693 -0.4781
14481SOL    HW244287   0.004   6.101   1.992 -0.3478  0.1369  0.9615
14482SOL     OW44288   2.726   2.837   7.204  0.1508  0.0386  0.5884
14482SOL    HW144289   2.753   2.874   7.120 -1.1340 -0.3378 -0.0206
14482SOL    HW244290   2.798   2.858   7.264  0.1541  2.1810 -0.0757
14483SOL     OW44291   0.645   2.141   8.082  0.4496 -0.4244  0.5928
14483SOL    HW144292   0.733   2.179   8.084  0.5021 -0.5461  0.7283
14483SOL    HW244293   0.603   2.175   8.161  0.5391 -0.7397  0.7787
14484SOL     OW44294   8.195   2.101   4.856 -0.0952  0.1768 -0.1338
14484SOL    HW144295   8.210   2.019   4.808 -1.0451  1.1810 -2.3397
14484SOL    HW244296   8.194   2.168   4.788  0.1840  1.9756  1.5536
14485SOL     OW44297   6.524   7.500   8.070 -0.3933  0.2912 -0.2701
14485SOL    HW144298   6.446   7.556   8.078 -1.5509 -1.2601 -0.3438
14485SOL    HW244299   6.500   7.434   8.006  0.7353 -0.6496  0.2437
14486SOL     OW44300   2.364   1.312   3.209 -0.0997 -0.3440  0.3496
14486SOL    HW144301   2.438   1.295   3.267  1.0330 -0.6447 -1.1299
14486SOL    HW244302   2.387   1.394   3.165 -0.6053 -0.4873 -0.1856
14487SOL     OW44303   5.922   1.752   0.536 -0.2605 -0.8788  0.4966
14487SOL    HW144304   5.963   1.803   0.466 -0.9746  0.3619  0.9493
14487SOL    HW244305   5.982   1.680   0.552  0.2114 -0.8468 -0.9767
14488SOL     OW44306   7.195   6.626   0.094  0.0104 -0.1394 -0.0913
14488SOL    HW144307   7.203   6.647   0.188 -1.4093 -0.5454  0.1421
14488SOL    HW244308   7.118   6.675   0.066  0.4020 -0.0652 -1.0456
14489SOL     OW44309   3.285   0.127   3.125  0.9912  0.1157 -0.1197
14489SOL    HW144310   3.272   0.111   3.031  0.6698 -1.2000  0.1266
14489SOL    HW244311   3.380   0.132   3.135  1.0518 -0.2895 -0.4427
14490SOL     OW44312   5.446   4.180   5.134  0.4399 -0.4930 -0.7173
14490SOL    HW144313   5.422   4.148   5.221 -1.9340 -0.3931 -1.2777
14490SOL    HW244314   5.485   4.266   5.150  0.9392 -0.8871  0.2892
14491SOL     OW44315   6.653   1.845   0.213  0.6443  0.0374  0.2621
14491SOL    HW144316   6.722   1.891   0.164  0.6021 -0.5699 -0.3885
14491SOL    HW244317   6.692   1.761   0.236 -0.1790 -0.7197 -0.9693
14492SOL     OW44318   7.449   7.513   6.643  0.0369  0.0500 -0.3604
14492SOL    HW144319   7.376   7.574   6.634  0.4397  0.4546 -0.9225
14492SOL    HW244320   7.447   7.461   6.562  0.8215  0.5678 -0.7235
14493SOL     OW44321   1.509   6.080   4.866 -0.0991 -0.8693  0.1645
14493SOL    HW144322   1.449   6.150   4.893  0.9413  0.1590 -0.0932
14493SOL    HW244323   1.587   6.094   4.920  1.0160 -0.3868 -1.4989
14494SOL     OW44324   0.624   3.902   3.852 -0.5133  0.2648  0.5711
14494SOL    HW144325   0.709   3.883   3.811 -0.6053 -1.3806  1.0872
14494SOL    HW244326   0.643   3.973   3.914  0.6032 -0.4091  1.0281
14495SOL     OW44327   3.937   7.837   4.970  0.0145 -0.3750  0.3144
14495SOL    HW144328   3.857   7.802   4.931  0.2735 -0.0422 -0.5465
14495SOL    HW244329   3.922   7.833   5.064 -1.5880  0.9710  0.1590
14496SOL     OW44330   5.515   4.561   1.576  0.5118  0.0250 -0.0436
14496SOL    HW144331   5.469   4.529   1.498  0.1438 -1.8422  0.8753
14496SOL    HW244332   5.459   4.632   1.609 -0.4982 -0.6423 -0.2643
14497SOL     OW44333   1.210   1.509   7.211 -0.0484 -0.0050  0.8538
14497SOL    HW144334   1.252   1.589   7.241  1.2893 -1.1312  2.1214
14497SOL    HW244335   1.251   1.491   7.126  1.5560 -0.6768  1.7258
14498SOL     OW44336   0.896   7.254   2.035 -0.3376  0.1984 -0.3344
14498SOL    HW144337   0.827   7.246   2.100  0.7800  1.2572  1.0526
14498SOL    HW244338   0.865   7.320   1.974 -2.1060 -1.9341 -1.9211
14499SOL     OW44339   0.789   7.071   5.975  0.0936 -0.0477  0.1995
14499SOL    HW144340   0.784   7.150   6.028 -1.1908 -0.7792  1.2134
14499SOL    HW244341   0.849   7.093   5.904  2.1330  0.8544  2.1074
14500SOL     OW44342   5.392   4.771   2.907  0.4883 -0.1475  0.2725
14500SOL    HW144343   5.431   4.840   2.855  1.5218  1.2868  2.7606
14500SOL    HW244344   5.424   4.690   2.868  2.5918  0.8980 -0.3198
14501SOL     OW44345   4.594   2.058   3.717 -0.2725 -0.4205  0.4145
14501SOL    HW144346   4.631   2.145   3.705  0.7136 -0.5372  2.3388
14501SOL    HW244347   4.505   2.065   3.681  0.4052  0.8176 -1.1507
14502SOL     OW44348   6.449   3.296   4.389  0.5609  0.0610 -0.1536
14502SOL    HW144349   6.434   3.334   4.302  1.0439  1.1090  0.2066
14502SOL    HW244350   6.385   3.340   4.446  0.1974 -0.6747  0.0165
14503SOL     OW44351   7.675   4.001   4.611 -0.0160  0.3265 -0.3627
14503SOL    HW144352   7.600   3.992   4.669 -1.0506 -0.3576 -1.7446
14503SOL    HW244353   7.746   3.955   4.657 -0.8700 -0.4194  0.2443
14504SOL     OW44354   0.942   3.785   2.969  0.1439  0.1001 -0.4084
14504SOL    HW144355   0.884   3.708   2.972  1.1475 -0.6584  0.5052
14504SOL    HW244356   0.905   3.844   3.035  0.5357 -0.5035  0.3788
14505SOL     OW44357   2.963   1.399   1.913  0.1319  0.1197 -0.3138
14505SOL    HW144358   2.899   1.370   1.978  0.6028 -0.4300 -0.0902
14505SOL    HW244359   2.988   1.319   1.866 -0.7014  0.6017 -1.6419
14506SOL     OW44360   5.327   2.381   5.778  0.6829  0.5761 -0.7510
14506SOL    HW144361   5.422   2.373   5.778  0.5553 -1.2470 -0.4695
14506SOL    HW244362   5.294   2.292   5.792 -1.0887  0.9588 -2.0703
14507SOL     OW44363   5.846   1.640   4.205  0.1363 -0.0599  0.0175
14507SOL    HW144364   5.899   1.692   4.265 -0.2833 -1.0184  1.2542
14507SOL    HW244365   5.843   1.553   4.245 -1.1604 -0.3984 -0.7672
14508SOL     OW44366   3.561   4.697   4.367  0.3034 -0.7702 -0.0330
14508SOL    HW144367   3.518   4.776   4.335  1.0869  0.0443  0.8168
14508SOL    HW244368   3.490   4.634   4.378 -0.1785 -0.6159 -1.8883
14509SOL     OW44369   3.794   7.663   4.018  0.3589  0.0626 -0.0854
14509SOL    HW144370   3.879   7.666   3.974  0.3563 -1.6370 -0.2540
14509SOL    HW244371   3.729   7.664   3.948  0.2709 -0.0896 -0.0059
14510SOL     OW44372   0.834   1.258   7.406 -0.4506 -0.1207  1.0578
14510SOL    HW144373   0.786   1.337   7.383  0.4796 -0.1616 -1.3429
14510SOL    HW244374   0.919   1.290   7.437 -0.0402 -0.1235 -0.0002
14511SOL     OW44375   0.443   8.140   2.392  0.4281  0.1983 -0.6153
14511SOL    HW144376   0.534   8.163   2.371  0.1189  0.0960 -2.2508
14511SOL    HW244377   0.414   8.089   2.316 -0.8206 -0.2619  0.1485
14512SOL     OW44378   4.683   5.591   6.528 -0.4727  0.4521 -0.0201
14512SOL    HW144379   4.724   5.520   6.577 -1.3268  1.0462  1.6473
14512SOL    HW244380   4.647   5.549   6.450  1.5057 -0.4082 -0.5155
14513SOL     OW44381   0.856   2.634   4.010 -0.0744 -0.6691  0.0088
14513SOL    HW144382   0.864   2.547   3.971  0.8637 -1.1747  1.2771
14513SOL    HW244383   0.903   2.628   4.093 -2.5611  0.1647  1.5960
14514SOL     OW44384   6.516   5.971   7.810  0.3704  0.4012  0.2540
14514SOL    HW144385   6.584   5.905   7.803 -0.0076 -0.0739  0.9229
14514SOL    HW244386   6.441   5.933   7.764 -0.4124 -0.4314  2.1206
14515SOL     OW44387   5.653   2.171   3.917 -0.0704  0.1555 -0.0470
14515SOL    HW144388   5.567   2.157   3.956  0.0542  0.6638  0.4237
14515SOL    HW244389   5.714   2.126   3.976 -0.0039 -0.1478 -0.3435
14516SOL     OW44390   1.076   6.596   5.224  0.2846  0.2476  0.3406
14516SOL    HW144391   1.085   6.674   5.278  1.9704 -0.0218  0.4994
14516SOL    HW244392   1.065   6.629   5.135 -1.7391  0.6807  0.7107
14517SOL     OW44393   4.104   0.907   4.137  0.1780  0.6512  0.4349
14517SOL    HW144394   4.099   0.813   4.119  0.2433  0.6435  0.4576
14517SOL    HW244395   4.181   0.916   4.193  1.0536  0.8993 -0.7723
14518SOL     OW44396   7.132   0.073   3.243 -0.1816  0.1824  0.3659
14518SOL    HW144397   7.185   0.077   3.322 -1.1111 -0.9025  1.0820
14518SOL    HW244398   7.137   0.161   3.205  0.0864  0.7815  1.7578
14519SOL     OW44399   3.031   6.790   0.462  0.5889  0.9043 -0.1458
14519SOL    HW144400   2.984   6.768   0.542  0.0507 -0.5513 -0.8087
14519SOL    HW244401   2.961   6.809   0.398  1.0058  2.0713 -0.2725
14520SOL     OW44402   6.891   3.148   3.666  0.5384 -0.5092  0.4872
14520SOL    HW144403   6.821   3.106   3.714 -0.5912 -0.0708 -0.7241
14520SOL    HW244404   6.863   3.239   3.657  0.6555 -0.6070 -1.0776
14521SOL     OW44405   4.778   5.226   4.710 -0.0312  0.1591  0.1964
14521SOL    HW144406   4.687   5.241   4.735  0.1362 -0.3687  1.2004
14521SOL    HW244407   4.773   5.162   4.639 -0.4628  0.5535 -0.1363
14522SOL     OW44408   4.098   1.893   4.281  0.4096  0.3586  0.3401
14522SOL    HW144409   4.117   1.984   4.303 -0.4728  0.9188 -1.0941
14522SOL    HW244410   4.140   1.880   4.196 -1.3411  0.1298 -0.5317
14523SOL     OW44411   7.927   4.469   6.419 -0.2867 -0.5095  0.2055
14523SOL    HW144412   7.964   4.491   6.333 -0.7062 -1.8936 -0.3451
14523SOL    HW244413   8.001   4.435   6.469 -0.8290 -4.2720 -1.2348
14524SOL     OW44414   7.383   6.607   3.840 -0.1090 -0.6908 -0.2228
14524SOL    HW144415   7.293   6.636   3.851  0.3216  0.7540 -0.2792
14524SOL    HW244416   7.398   6.547   3.913 -1.0811 -0.8965 -0.1792
14525SOL     OW44417   7.031   5.168   0.300  0.1331 -0.2488 -0.0961
14525SOL    HW144418   6.985   5.172   0.384 -0.4732 -0.9076 -0.3843
14525SOL    HW244419   6.968   5.128   0.240 -0.3128  2.3179 -1.4806
14526SOL     OW44420   0.282   3.497   7.689  0.5049 -0.6128 -0.5088
14526SOL    HW144421   0.256   3.405   7.685  0.7196 -0.6483 -1.2100
14526SOL    HW244422   0.226   3.541   7.625  0.2029 -0.2030  0.0318
14527SOL     OW44423   0.917   3.481   4.766 -0.4665  0.9479 -0.1729
14527SOL    HW144424   0.953   3.485   4.855  1.2143  1.7133 -0.8488
14527SOL    HW244425   0.909   3.573   4.740 -1.8418  0.7629 -0.5103
14528SOL     OW44426   6.380   8.132   3.792 -0.1506  0.2640  0.1458
14528SOL    HW144427   6.315   8.134   3.862 -0.0751  1.5527  0.2040
14528SOL    HW244428   6.330   8.137   3.711 -0.1604  0.6623  0.1736
14529SOL     OW44429   0.912   6.321   2.249  0.6447  0.3474  0.1111
14529SOL    HW144430   1.003   6.298   2.271 -0.0263 -2.5466  0.2645
14529SOL    HW244431   0.861   6.291   2.323 -0.6268 -0.0565 -0.8901
14530SOL     OW44432   5.382   2.756   1.222  0.1015  0.4362 -0.0732
14530SOL    HW144433   5.418   2.759   1.310  0.8541  0.7507 -0.3853
14530SOL    HW244434   5.420   2.832   1.178 -1.1596  0.9495 -0.3364
14531SOL     OW44435   4.648   4.902   1.348 -0.7738  0.0224 -0.4319
14531SOL    HW144436   4.676   4.935   1.434 -0.9350 -0.7817 -0.0628
14531SOL    HW244437   4.704   4.948   1.285  0.0140 -0.0977  0.1656
14532SOL     OW44438   0.901   1.028   7.864  0.1409  0.7546 -0.1233
14532SOL    HW144439   0.832   1.060   7.923 -0.6317  1.1849 -1.2281
14532SOL    HW244440   0.982   1.059   7.903 -0.1484 -0.6510  1.7970
14533SOL     OW44441   1.997   1.348   8.012  0.2955  0.0695 -0.0808
14533SOL    HW144442   2.071   1.349   8.073  0.8793 -1.8736 -0.6804
14533SOL    HW244443   2.033   1.311   7.931 -0.6471  1.9069 -1.4081
14534SOL     OW44444   1.075   0.860   6.586 -0.0680  0.1029 -0.7590
14534SOL    HW144445   1.071   0.948   6.623 -0.1947 -0.5286  0.8180
14534SOL    HW244446   1.120   0.808   6.653  1.8235 -0.6273 -2.5139
14535SOL     OW44447   7.065   5.996   5.987  0.9121 -0.7500  0.4695
14535SOL    HW144448   7.077   5.936   5.914  0.9804 -0.0309 -0.1178
14535SOL    HW244449   7.011   6.067   5.952  1.1316 -0.2866  1.0496
14536SOL     OW44450   0.692   2.838   2.973  0.3426 -0.2848 -0.2796
14536SOL    HW144451   0.729   2.911   2.923 -1.2474 -0.7669 -2.2876
14536SOL    HW244452   0.705   2.863   3.065 -1.0808  3.0565 -0.8535
14537SOL     OW44453   0.193   6.240   1.768 -1.0749 -0.0453 -0.6998
14537SOL    HW144454   0.166   6.316   1.717  0.0646  0.0608 -1.1784
14537SOL    HW244455   0.233   6.277   1.847 -0.3868 -0.1345 -1.0014
14538SOL     OW44456   6.897   0.985   5.587 -0.3237  0.1524  0.5668
14538SOL    HW144457   6.807   0.970   5.614 -0.5031 -2.2400 -1.0292
14538SOL    HW244458   6.948   0.921   5.637 -0.0283 -0.9185 -1.0290
14539SOL     OW44459   6.563   6.964   6.622 -0.2355 -0.5917 -0.3211
14539SOL    HW144460   6.543   6.977   6.715  0.6265 -1.3262 -0.0233
14539SOL    HW244461   6.493   6.907   6.590 -0.4452 -0.4646 -0.0959
14540SOL     OW44462   2.385   3.084   3.890 -0.6204  0.1680  0.1988
14540SOL    HW144463   2.357   3.003   3.847  1.5540  0.3274 -1.6725
14540SOL    HW244464   2.440   3.055   3.963 -0.4600 -0.0511 -0.0092
14541SOL     OW44465   5.525   7.004   5.787  0.8064 -0.1322  0.6249
14541SOL    HW144466   5.544   6.973   5.698 -0.1039 -0.6883  0.6107
14541SOL    HW244467   5.433   7.030   5.784  0.5923 -0.7415  1.5639
14542SOL     OW44468   3.137   0.947   7.308 -0.0318 -0.7855  0.0100
14542SOL    HW144469   3.118   1.035   7.276 -1.7614 -1.2404 -0.3158
14542SOL    HW244470   3.226   0.953   7.343  0.3863  0.7482 -1.2018
14543SOL     OW44471   7.075   2.001   4.866  0.0484  0.4255  0.0929
14543SOL    HW144472   7.086   1.990   4.960 -1.3575  1.8671  0.4694
14543SOL    HW244473   7.103   1.918   4.828  1.3461  0.0822  1.7142
14544SOL     OW44474   5.183   3.804   2.584 -0.2390  0.5613  0.1073
14544SOL    HW144475   5.219   3.859   2.653  0.5062  0.0575  0.1332
14544SOL    HW244476   5.253   3.742   2.564 -0.0603  1.2977 -1.7784
14545SOL     OW44477   0.145   5.800   0.182 -0.1374  0.2935  0.3146
14545SOL    HW144478   0.237   5.774   0.179 -0.6247 -1.7278  0.9506
14545SOL    HW244479   0.135   5.847   0.264 -0.0726 -1.3931  1.3325
14546SOL     OW44480   7.453   0.230   6.080  0.0681  0.0268 -0.4054
14546SOL    HW144481   7.515   0.162   6.106 -0.4668 -1.3944 -2.5544
14546SOL    HW244482   7.497   0.277   6.010 -0.1925  0.9068  0.0049
14547SOL     OW44483   7.810   6.909   3.856 -0.4592 -0.7070 -0.3205
14547SOL    HW144484   7.744   6.951   3.801  1.3811  0.1286 -1.9939
14547SOL    HW244485   7.816   6.820   3.820  0.6381 -0.2061 -1.4341
14548SOL     OW44486   3.985   2.045   6.126 -0.0755  0.0090  0.0438
14548SOL    HW144487   4.020   2.064   6.213  0.2011 -1.8623  0.3869
14548SOL    HW244488   3.964   1.952   6.128  0.0862 -0.1248 -1.9379
14549SOL     OW44489   5.299   6.300   3.233  0.2267 -0.2130 -0.3683
14549SOL    HW144490   5.358   6.237   3.192  0.2643 -0.0017 -0.6460
14549SOL    HW244491   5.291   6.371   3.168  0.2182  0.0853 -0.0460
14550SOL     OW44492   7.463   0.983   3.991  0.1379 -0.4189 -0.0990
14550SOL    HW144493   7.396   1.018   4.050 -0.0917  0.0791 -0.6427
14550SOL    HW244494   7.492   0.902   4.033 -0.3765 -0.3319  0.4426
14551SOL     OW44495   4.159   3.697   5.806  0.0368  0.0261 -0.0180
14551SOL    HW144496   4.168   3.765   5.738  1.0116 -0.3712 -0.3019
14551SOL    HW244497   4.239   3.646   5.799  0.0145 -0.2055  1.2476
14552SOL     OW44498   7.963   7.615   6.324  0.1244  0.4306  0.0765
14552SOL    HW144499   8.001   7.627   6.237 -1.7268  0.2922 -0.8025
14552SOL    HW244500   7.897   7.683   6.331 -1.4905 -1.0891  0.3238
14553SOL     OW44501   3.326   2.050   6.549  0.1792  0.2293 -0.1699
14553SOL    HW144502   3.250   2.006   6.511 -0.7569  2.1413 -0.6358
14553SOL    HW244503   3.316   2.038   6.644  1.3604 -2.6819 -0.2840
14554SOL     OW44504   7.370   0.965   5.512 -0.1853 -0.0784 -0.1641
14554SOL    HW144505   7.394   1.014   5.591 -0.4734 -1.8272  1.0781
14554SOL    HW244506   7.284   0.999   5.488  0.1351  0.8401 -0.0379
14555SOL     OW44507   1.624   1.268   7.766  0.6453  0.5754  0.6338
14555SOL    HW144508   1.629   1.227   7.852  2.6621 -0.4446  0.0792
14555SOL    HW244509   1.650   1.359   7.781 -0.2677  0.7417  1.2778
14556SOL     OW44510   5.271   2.745   2.941  0.3449  0.4535 -1.0601
14556SOL    HW144511   5.293   2.836   2.919 -0.9342  0.7237 -1.3040
14556SOL    HW244512   5.341   2.718   3.001  1.5330  1.1210 -2.0721
14557SOL     OW44513   4.682   8.159   6.097 -0.4208  0.3604 -0.1831
14557SOL    HW144514   4.619   8.198   6.157 -1.7865 -2.3244  0.2941
14557SOL    HW244515   4.756   8.135   6.152 -1.0903 -0.8368  0.2500
14558SOL     OW44516   7.928   7.345   3.362  0.0081  0.3594  0.4182
14558SOL    HW144517   7.956   7.272   3.306 -1.2995  0.4072 -0.3464
14558SOL    HW244518   7.833   7.342   3.360 -0.0790  1.8472  0.6961
14559SOL     OW44519   3.475   1.140   6.668  0.2098 -0.1478 -0.1998
14559SOL    HW144520   3.427   1.058   6.679  0.5760 -0.3258  0.0925
14559SOL    HW244521   3.408   1.204   6.642  0.2326 -1.0378 -2.8037
14560SOL     OW44522   5.413   6.824   6.043 -0.5660  0.4146  0.0234
14560SOL    HW144523   5.386   6.917   6.045  0.2625  0.6456  1.3487
14560SOL    HW244524   5.411   6.797   6.134  1.6591 -0.1479 -0.0458
14561SOL     OW44525   3.209   7.350   0.429 -0.0225  0.1090  0.7321
14561SOL    HW144526   3.220   7.416   0.361  0.9262 -0.5951  0.1668
14561SOL    HW244527   3.128   7.304   0.406  0.5231 -0.4163 -0.1966
14562SOL     OW44528   6.665   3.718   0.555 -0.2990 -0.5528  0.1311
14562SOL    HW144529   6.755   3.711   0.584 -0.1135 -1.0121 -0.5253
14562SOL    HW244530   6.648   3.636   0.509 -1.2297 -0.7099  0.7173
14563SOL     OW44531   7.613   6.849   6.045  0.3011  0.3183 -0.7237
14563SOL    HW144532   7.641   6.920   6.103  1.2776  1.9983 -3.1069
14563SOL    HW244533   7.685   6.838   5.984 -0.8944 -0.9899 -1.9742
14564SOL     OW44534   7.079   5.424   6.042  0.1845  0.0644  0.3033
14564SOL    HW144535   7.124   5.460   5.965  0.4023  0.8711  0.7965
14564SOL    HW244536   7.036   5.499   6.082  0.2833 -0.2967  1.1094
14565SOL     OW44537   7.492   5.276   1.522 -0.9960 -0.0712  0.1143
14565SOL    HW144538   7.477   5.189   1.559 -2.0941  0.2238  0.3768
14565SOL    HW244539   7.440   5.335   1.576  1.0845  1.0143  1.0377
14566SOL     OW44540   3.869   4.590   4.800 -0.2958 -0.0077  0.0917
14566SOL    HW144541   3.897   4.642   4.875  0.3674 -0.5510  0.2285
14566SOL    HW244542   3.829   4.512   4.838 -0.7135  0.0985 -0.1194
14567SOL     OW44543   4.086   2.311   1.578 -0.0464 -0.2122  0.6006
14567SOL    HW144544   4.035   2.268   1.510  0.4864  0.8156 -0.4726
14567SOL    HW244545   4.103   2.242   1.642  0.2185 -1.4347 -0.7369
14568SOL     OW44546   6.169   5.297   3.635  0.0473  0.1605 -0.5093
14568SOL    HW144547   6.214   5.275   3.554  0.6274 -1.9294  0.3174
14568SOL    HW244548   6.226   5.265   3.705  0.2988  3.2238  0.8649
14569SOL     OW44549   6.298   4.394   0.239 -0.1930  0.0688  0.4659
14569SOL    HW144550   6.322   4.408   0.147 -0.4369  0.4113  0.4514
14569SOL    HW244551   6.351   4.319   0.267 -0.2540 -0.1564 -0.0100
14570SOL     OW44552   2.060   5.683   5.017 -0.2974  0.1583  0.2133
14570SOL    HW144553   2.093   5.595   5.036 -0.8386  0.1584  1.1768
14570SOL    HW244554   2.134   5.727   4.974  0.3500 -0.4087  0.7278
14571SOL     OW44555   6.389   2.436   2.719 -0.3460  0.9562 -0.1484
14571SOL    HW144556   6.322   2.369   2.716 -0.2695  0.8358  0.6257
14571SOL    HW244557   6.470   2.390   2.697 -0.2774  0.7641  0.4825
14572SOL     OW44558   1.855   3.013   4.404 -0.1471 -0.3236  0.3252
14572SOL    HW144559   1.869   2.938   4.346 -0.7997 -0.7697  0.7346
14572SOL    HW244560   1.858   3.089   4.346  1.0064 -0.6138 -0.0235
14573SOL     OW44561   4.313   6.673   3.996 -0.0887  0.6084 -0.0772
14573SOL    HW144562   4.238   6.669   4.056 -0.4846  1.5557 -0.4942
14573SOL    HW244563   4.353   6.587   4.003 -1.4933 -0.0827 -0.2095
14574SOL     OW44564   2.341   7.297   2.055  0.0340 -0.2387  0.8891
14574SOL    HW144565   2.411   7.288   1.991 -1.0487 -1.4929 -0.1607
14574SOL    HW244566   2.309   7.208   2.068 -2.2020  0.4534  0.3947
14575SOL     OW44567   1.514   4.349   3.495 -0.3311  0.4883 -0.1716
14575SOL    HW144568   1.543   4.348   3.404 -0.4516  0.9889 -0.2187
14575SOL    HW244569   1.589   4.381   3.544 -0.1670 -0.0649 -0.0547
14576SOL     OW44570   5.869   1.797   1.137 -0.0103 -0.1548 -0.1621
14576SOL    HW144571   5.814   1.755   1.072  1.9646 -1.7055 -0.9192
14576SOL    HW244572   5.835   1.767   1.221 -1.2716  0.2096 -0.5159
14577SOL     OW44573   0.061   1.335   5.572  0.5971 -0.2342  0.5534
14577SOL    HW144574   0.099   1.402   5.516  0.6045 -0.9226 -0.2841
14577SOL    HW244575   0.107   1.345   5.656  0.8574  0.5562  0.3210
14578SOL     OW44576   4.131   5.677   5.186  0.0802 -0.2874 -0.1840
14578SOL    HW144577   4.041   5.698   5.213 -0.1435 -2.5275  1.0249
14578SOL    HW244578   4.129   5.683   5.091 -1.7931 -1.6942 -0.2894
14579SOL     OW44579   6.171   3.316   0.490  0.6100  0.3735 -0.1900
14579SOL    HW144580   6.112   3.386   0.462  1.6181  1.2944 -0.1211
14579SOL    HW244581   6.121   3.236   0.481  0.3119  0.7887 -3.0430
14580SOL     OW44582   6.989   1.735   6.176  0.6192 -0.0507  0.3750
14580SOL    HW144583   6.959   1.774   6.094  0.8415 -0.5496  0.0465
14580SOL    HW244584   7.045   1.662   6.149  0.4791 -0.3916  0.9648
14581SOL     OW44585   1.419   2.558   3.756 -0.1493  0.5303  0.2941
14581SOL    HW144586   1.484   2.614   3.713  0.8383 -1.1330 -0.4736
14581SOL    HW244587   1.432   2.574   3.849  0.3813  1.2856  0.1031
14582SOL     OW44588   4.297   3.456   7.173  0.1232 -0.0701 -0.0656
14582SOL    HW144589   4.318   3.475   7.081  1.6736 -0.7255  0.1206
14582SOL    HW244590   4.369   3.400   7.203 -0.0748  0.5543  1.7061
14583SOL     OW44591   3.944   7.739   0.406 -0.0745  0.2841  0.0903
14583SOL    HW144592   3.928   7.668   0.342  0.3913 -0.2475  0.5529
14583SOL    HW244593   3.897   7.711   0.484 -1.0202  1.1535 -0.1399
14584SOL     OW44594   1.787   2.236   2.870 -0.4961  0.3824  0.1689
14584SOL    HW144595   1.779   2.288   2.791 -0.5368  2.2677  1.3506
14584SOL    HW244596   1.702   2.244   2.914 -0.2467 -0.0448  0.7513
14585SOL     OW44597   2.739   0.687   5.469 -0.2065  0.6966 -0.0702
14585SOL    HW144598   2.650   0.657   5.488 -0.5343  1.8369  0.2863
14585SOL    HW244599   2.783   0.611   5.431 -1.1380 -0.0702  0.3563
14586SOL     OW44600   2.676   0.090   0.728 -0.0369  0.1234 -0.0990
14586SOL    HW144601   2.712   0.078   0.815 -0.8440 -0.9449  0.1000
14586SOL    HW244602   2.634   0.007   0.706  0.1063  0.3782 -1.4912
14587SOL     OW44603   4.397   6.675   3.229 -0.4865  0.3401  0.3626
14587SOL    HW144604   4.347   6.688   3.309 -1.8018  0.7982 -0.4922
14587SOL    HW244605   4.339   6.708   3.159  0.1465 -1.0477 -0.8833
14588SOL     OW44606   6.146   5.085   5.436  0.2656  0.6743 -0.3566
14588SOL    HW144607   6.203   5.162   5.432 -0.3366  1.1214 -0.5485
14588SOL    HW244608   6.075   5.110   5.495  0.9314 -0.3411  0.8988
14589SOL     OW44609   3.640   2.231   7.807 -0.1828 -0.4084 -0.9726
14589SOL    HW144610   3.565   2.257   7.755  0.3538  1.8413 -0.7593
14589SOL    HW244611   3.669   2.149   7.769 -1.5086 -0.2707 -2.3763
14590SOL     OW44612   0.665   7.355   7.703 -0.1149  0.5731  0.1487
14590SOL    HW144613   0.685   7.363   7.796  1.6299 -0.1409 -0.1247
14590SOL    HW244614   0.603   7.282   7.698  0.5129 -0.0143  0.6877
14591SOL     OW44615   2.831   6.662   3.940 -0.4738  0.2731  0.4956
14591SOL    HW144616   2.841   6.707   3.856 -0.2328  1.3721  1.0887
14591SOL    HW244617   2.855   6.728   4.006  0.6576 -0.9403  1.3755
14592SOL     OW44618   5.445   3.137   6.794 -0.4156  0.4139 -0.3032
14592SOL    HW144619   5.366   3.134   6.847  0.3966  0.2039  0.9529
14592SOL    HW244620   5.448   3.227   6.760 -1.3104  0.3468 -0.5873
14593SOL     OW44621   6.506   0.089   0.999 -0.0253  0.8332  0.4548
14593SOL    HW144622   6.518  -0.003   1.021  0.3292  0.8660  0.4015
14593SOL    HW244623   6.414   0.095   0.972  0.0980  0.3920 -0.0648
14594SOL     OW44624   2.011   2.732   5.406  0.4549  0.3706 -0.3406
14594SOL    HW144625   1.927   2.761   5.369  0.5252 -0.5606 -1.2814
14594SOL    HW244626   2.064   2.710   5.329  0.8922 -0.8553  0.2968
14595SOL     OW44627   5.462   3.417   6.417 -0.6871  1.2390 -0.0063
14595SOL    HW144628   5.531   3.396   6.354 -1.5318  2.9411 -1.5834
14595SOL    HW244629   5.507   3.415   6.502  0.2989 -1.9672 -0.4354
14596SOL     OW44630   0.145   2.384   1.941  0.7309  0.0569 -0.1841
14596SOL    HW144631   0.119   2.346   1.857  0.5235 -0.2199  0.0022
14596SOL    HW244632   0.062   2.413   1.980  0.8754  0.6093 -0.2785
14597SOL     OW44633   0.984   5.369   3.376 -0.6902 -0.0821  0.1228
14597SOL    HW144634   1.034   5.404   3.450  0.7529 -1.3891 -0.1807
14597SOL    HW244635   0.914   5.317   3.416 -1.0110  0.6559  0.5487
14598SOL     OW44636   7.851   2.159   1.424  0.6129 -0.0796  0.3935
14598SOL    HW144637   7.941   2.132   1.442  0.5054 -1.0691 -0.4471
14598SOL    HW244638   7.833   2.126   1.336 -0.5442  0.1894  0.5037
14599SOL     OW44639   0.655   6.345   5.172  0.5104  0.0665 -0.3783
14599SOL    HW144640   0.741   6.318   5.141  0.2883 -0.1390 -0.8320
14599SOL    HW244641   0.632   6.420   5.118 -0.5305 -1.2014 -1.8148
14600SOL     OW44642   2.643   1.382   2.628  0.1680  0.2845  0.0528
14600SOL    HW144643   2.620   1.406   2.718  0.8490 -0.2457  0.3776
14600SOL    HW244644   2.654   1.465   2.583  2.3904  0.6369  1.1337
14601SOL     OW44645   6.001   3.542   7.386  0.1369  0.1574  0.1157
14601SOL    HW144646   5.987   3.622   7.335 -0.0994 -0.0772 -0.1891
14601SOL    HW244647   5.914   3.518   7.417 -0.0496 -0.8671 -1.1282
14602SOL     OW44648   1.106   6.927   4.020  0.1723  1.1448 -0.7586
14602SOL    HW144649   1.185   6.876   4.005 -0.1985 -0.9198  3.0051
14602SOL    HW244650   1.052   6.913   3.942  2.6568  1.0719 -2.5727
14603SOL     OW44651   0.150   0.845   0.092 -0.0969  0.3613 -0.4005
14603SOL    HW144652   0.222   0.782   0.099 -1.3771 -1.2450 -1.0632
14603SOL    HW244653   0.157   0.879   0.003  0.7598  1.4236  0.0442
14604SOL     OW44654   5.584   7.896   0.309  0.7175  0.8015 -0.2205
14604SOL    HW144655   5.593   7.982   0.350  0.8278  1.0503 -0.7617
14604SOL    HW244656   5.516   7.852   0.360 -0.9465  2.0161 -1.3016
14605SOL     OW44657   3.577   3.937   4.411 -0.8533 -0.7801 -0.6199
14605SOL    HW144658   3.615   3.866   4.358  0.5420 -1.1106  0.7571
14605SOL    HW244659   3.559   3.897   4.496 -1.6161  0.1252 -0.3440
14606SOL     OW44660   3.052   4.660   7.457 -0.4021 -0.0736  0.0990
14606SOL    HW144661   2.965   4.680   7.422 -0.3818  0.1333  0.1652
14606SOL    HW244662   3.053   4.565   7.466 -0.3282 -0.1471 -0.6644
14607SOL     OW44663   7.577   7.912   7.650 -0.1941  0.4208 -0.9848
14607SOL    HW144664   7.624   7.863   7.718 -1.2723  1.5386  0.6553
14607SOL    HW244665   7.607   7.874   7.568 -0.0396 -2.1317  0.1496
14608SOL     OW44666   4.876   0.034   4.882  0.0429 -0.2105 -0.1455
14608SOL    HW144667   4.957   0.085   4.893 -1.1745  2.1501 -1.3547
14608SOL    HW244668   4.817   0.069   4.948 -0.5620 -0.6959 -0.4185
14609SOL     OW44669   6.962   6.745   6.402 -0.1621 -0.1009 -0.0906
14609SOL    HW144670   6.897   6.766   6.469  1.3224  2.0274  0.7838
14609SOL    HW244671   6.968   6.650   6.403 -1.7623 -0.2359  1.2142
14610SOL     OW44672   2.048   7.173   1.174  0.4079  0.3900 -0.0550
14610SOL    HW144673   1.971   7.135   1.130  1.1484 -0.3232 -0.7753
14610SOL    HW244674   2.104   7.203   1.102  0.0289  2.5644  0.4806
14611SOL     OW44675   2.989   2.676   4.223 -0.0949 -0.0941  0.0064
14611SOL    HW144676   3.046   2.694   4.298  3.4722 -0.9188 -2.2782
14611SOL    HW244677   3.008   2.747   4.161 -0.4217 -1.2083 -1.4265
14612SOL     OW44678   0.905   7.251   5.195  0.0398 -0.1901 -0.0302
14612SOL    HW144679   0.825   7.292   5.163  0.9910  0.3023 -1.9601
14612SOL    HW244680   0.895   7.158   5.172  0.0066 -0.1262 -0.2840
14613SOL     OW44681   2.062   6.596   7.401 -0.2937 -0.5837 -0.5560
14613SOL    HW144682   2.040   6.537   7.329 -1.2959 -1.6032  0.5400
14613SOL    HW244683   2.152   6.573   7.424  0.4824  0.5872 -2.2263
14614SOL     OW44684   5.946   6.276   2.579  0.6069 -0.1004  0.1325
14614SOL    HW144685   5.982   6.313   2.498 -0.0768  0.0126 -0.1255
14614SOL    HW244686   5.862   6.238   2.553  0.8302 -0.9242  0.6044
14615SOL     OW44687   1.113   0.807   2.043 -0.1919 -0.7565 -0.1757
14615SOL    HW144688   1.071   0.728   2.009 -0.6299 -0.7028  0.2243
14615SOL    HW244689   1.200   0.778   2.072  0.1634 -0.8171 -1.2436
14616SOL     OW44690   3.429   7.553   3.666 -0.0304  0.0659 -0.3769
14616SOL    HW144691   3.343   7.572   3.705  0.3761 -0.8539  1.0592
14616SOL    HW244692   3.415   7.562   3.572 -1.9153 -0.7601 -0.2355
14617SOL     OW44693   3.321   1.206   4.923  0.4384  0.0421 -0.0939
14617SOL    HW144694   3.331   1.113   4.903 -1.2941 -0.1924 -0.0237
14617SOL    HW244695   3.300   1.247   4.839 -1.6774 -0.1303  0.2853
14618SOL     OW44696   5.392   0.074   1.495  0.1389 -0.5565 -0.2349
14618SOL    HW144697   5.363   0.008   1.433  0.1674 -0.3574 -0.4591
14618SOL    HW244698   5.395   0.028   1.579 -1.3709 -0.4366 -0.0960
14619SOL     OW44699   6.150   0.709   4.706 -0.0485  0.3241  0.2381
14619SOL    HW144700   6.235   0.695   4.666 -0.2707  0.0773 -0.1510
14619SOL    HW244701   6.108   0.623   4.705 -0.5129  0.5497 -0.0569
14620SOL     OW44702   0.695   7.956   6.927  0.8241  0.4948  0.2768
14620SOL    HW144703   0.669   7.942   6.836  2.9485 -1.0486 -0.1654
14620SOL    HW244704   0.743   8.039   6.926  0.4113  0.7323  0.0967
14621SOL     OW44705   2.760   7.106   1.754 -0.2904 -0.6919  0.4401
14621SOL    HW144706   2.783   7.024   1.797 -2.7671 -1.4032  0.5818
14621SOL    HW244707   2.736   7.080   1.665  0.6013  0.1577 -0.0657
14622SOL     OW44708   4.053   6.549   5.349  0.1285 -0.1825 -0.0714
14622SOL    HW144709   4.096   6.532   5.433 -0.0328  0.5327  0.1663
14622SOL    HW244710   3.995   6.623   5.367 -0.6930 -0.6916 -0.5570
14623SOL     OW44711   3.675   1.787   2.451 -0.0479 -0.0189 -0.0321
14623SOL    HW144712   3.741   1.856   2.455  2.3839 -2.2154  1.7517
14623SOL    HW244713   3.655   1.768   2.543 -1.3913 -1.0203 -0.4932
14624SOL     OW44714   2.547   6.068   3.114  0.0900  0.1344  0.8524
14624SOL    HW144715   2.555   5.981   3.152 -1.6352 -0.9364 -0.9963
14624SOL    HW244716   2.495   6.054   3.035 -3.7650  3.3679  2.4861
14625SOL     OW44717   4.801   7.592   4.507 -0.1722 -0.3760  0.0241
14625SOL    HW144718   4.745   7.575   4.583  0.7086 -2.8820  0.2031
14625SOL    HW244719   4.865   7.657   4.538 -0.3439 -0.7257  1.1545
14626SOL     OW44720   1.846   0.518   1.699 -0.2120  0.6136  0.3681
14626SOL    HW144721   1.762   0.504   1.655 -0.4488  3.3083 -0.2464
14626SOL    HW244722   1.854   0.445   1.760 -2.2893 -0.5092 -0.5996
14627SOL     OW44723   1.770   2.035   5.853  0.0133  0.5348 -0.7408
14627SOL    HW144724   1.810   2.036   5.939 -0.2280 -0.3247 -0.6174
14627SOL    HW244725   1.749   2.127   5.836 -0.0541  0.6974  0.1657
14628SOL     OW44726   7.029   0.222   1.332 -0.2932 -0.1637 -0.5387
14628SOL    HW144727   6.997   0.228   1.422  0.2523  2.1016 -0.4577
14628SOL    HW244728   7.035   0.128   1.316  0.3156 -0.6359  2.0377
14629SOL     OW44729   3.119   6.230   7.978 -0.3934 -0.3333  0.0810
14629SOL    HW144730   3.168   6.153   7.948 -0.7335 -0.3838 -0.3611
14629SOL    HW244731   3.062   6.252   7.904  0.3231  0.8833 -0.1395
14630SOL     OW44732   7.075   7.031   0.098 -0.6292  0.5834  0.2161
14630SOL    HW144733   7.085   7.118   0.058  0.0497  1.1378  1.5182
14630SOL    HW244734   7.148   6.980   0.063  1.9039  1.9988  2.9730
14631SOL     OW44735   2.272   4.999   5.124  0.3942 -0.0565 -0.0741
14631SOL    HW144736   2.284   5.077   5.178  0.3948 -0.4633  0.5233
14631SOL    HW244737   2.179   4.978   5.132  0.1321  0.5864 -1.2251
14632SOL     OW44738   5.968   7.512   1.242  0.0877 -0.4270 -0.4227
14632SOL    HW144739   6.060   7.498   1.263 -0.0104  0.6853  0.8573
14632SOL    HW244740   5.923   7.436   1.281  0.3076 -0.2151  0.2542
14633SOL     OW44741   0.482   6.300   4.361 -0.7726  0.1330  0.1267
14633SOL    HW144742   0.437   6.377   4.326 -0.2502  1.2501  1.7576
14633SOL    HW244743   0.532   6.334   4.436  0.3694 -1.6062  0.2069
14634SOL     OW44744   5.107   4.566   4.931  0.5048  0.3182 -0.1811
14634SOL    HW144745   5.141   4.483   4.964  0.3301  0.3434  0.0647
14634SOL    HW244746   5.184   4.611   4.895  0.5728 -0.0102 -0.4447
14635SOL     OW44747   3.145   2.465   5.019 -0.1383 -0.1968 -0.7316
14635SOL    HW144748   3.140   2.370   5.019  0.3545 -0.2293 -0.5367
14635SOL    HW244749   3.161   2.488   4.927 -1.5289 -0.2113 -0.9960
14636SOL     OW44750   5.019   0.890   7.769  0.8285  0.0751 -0.2593
14636SOL    HW144751   5.094   0.915   7.716  1.6644 -1.8164 -0.0652
14636SOL    HW244752   5.040   0.801   7.799 -1.2654 -0.3137  0.2082
14637SOL     OW44753   5.696   3.300   6.209 -0.7537  0.5725  0.2896
14637SOL    HW144754   5.714   3.307   6.303  1.1690  1.5109 -0.0959
14637SOL    HW244755   5.770   3.344   6.167 -2.1081  1.1392 -1.6509
14638SOL     OW44756   4.042   4.690   4.299  0.4719  0.3748  0.3971
14638SOL    HW144757   4.030   4.644   4.382 -1.3740  0.4717  0.2315
14638SOL    HW244758   4.060   4.780   4.323  0.0177  0.3873  0.7152
14639SOL     OW44759   3.167   3.331   0.636  0.3493 -0.0598  0.2443
14639SOL    HW144760   3.243   3.273   0.629 -0.1027 -0.5382 -0.9185
14639SOL    HW244761   3.204   3.415   0.665  1.3203 -0.2922 -0.2496
14640SOL     OW44762   2.304   5.047   1.918  0.2667 -0.2015 -0.0040
14640SOL    HW144763   2.314   5.117   1.982  0.3453 -1.4774  1.4476
14640SOL    HW244764   2.387   4.999   1.923 -0.1460 -0.9510 -0.2673
14641SOL     OW44765   7.377   2.168   7.660 -0.0313 -0.5795  0.0810
14641SOL    HW144766   7.293   2.213   7.673 -0.7173 -0.9693 -2.4739
14641SOL    HW244767   7.437   2.237   7.630 -0.0387 -0.7030 -0.2135
14642SOL     OW44768   2.867   1.647   0.038 -0.0023  0.2023  0.1553
14642SOL    HW144769   2.878   1.694  -0.045  0.4255  0.2344  0.2267
14642SOL    HW244770   2.883   1.712   0.106 -1.9402  0.5722  0.3071
14643SOL     OW44771   2.151   0.417   6.262  0.2777  0.1941 -0.4554
14643SOL    HW144772   2.189   0.366   6.334  1.4364 -0.7101 -1.6552
14643SOL    HW244773   2.225   0.432   6.202 -0.4577  1.7258 -1.0198
14644SOL     OW44774   3.468   6.085   0.987 -0.2667 -0.5615  0.2706
14644SOL    HW144775   3.517   6.152   1.034 -1.0836  0.2091  0.0627
14644SOL    HW244776   3.376   6.100   1.013 -0.3609 -2.4577  1.2829
14645SOL     OW44777   5.813   6.482   5.519 -0.1806  0.2877  0.0737
14645SOL    HW144778   5.733   6.515   5.559  0.0828 -0.4842  1.2844
14645SOL    HW244779   5.884   6.518   5.573  0.1082 -2.3448  1.6076
14646SOL     OW44780   7.606   4.610   2.209  0.2706 -0.2263 -0.1973
14646SOL    HW144781   7.556   4.692   2.207  0.6594  0.0475  0.7142
14646SOL    HW244782   7.692   4.635   2.241 -0.0478 -1.1963  1.5612
14647SOL     OW44783   1.065   5.763   3.583  0.4095 -0.1938  0.1542
14647SOL    HW144784   1.035   5.721   3.664  0.3264 -0.3572  0.0381
14647SOL    HW244785   1.010   5.726   3.514  1.6401 -1.4003 -0.2371
14648SOL     OW44786   4.607   5.519   1.209  0.1120  0.0392 -0.3897
14648SOL    HW144787   4.636   5.573   1.137 -0.1790  0.5976 -0.0943
14648SOL    HW244788   4.682   5.514   1.268 -0.7850  2.8223  1.1785
14649SOL     OW44789   2.132   6.301   4.854 -0.1465 -0.0449  0.1153
14649SOL    HW144790   2.206   6.352   4.822  0.0901 -1.1545 -1.2141
14649SOL    HW244791   2.068   6.306   4.783  0.2995 -2.4097 -0.5373
14650SOL     OW44792   0.132   0.255   6.818 -0.0756 -0.2380 -0.0643
14650SOL    HW144793   0.225   0.237   6.829 -0.0128 -0.2358 -0.5774
14650SOL    HW244794   0.116   0.243   6.725 -0.5151  0.1214 -0.0378
14651SOL     OW44795   7.149   4.335   0.460 -1.0096  0.1011 -0.4940
14651SOL    HW144796   7.132   4.274   0.388 -0.5780 -0.8125  0.1484
14651SOL    HW244797   7.177   4.278   0.532  2.8559  1.2723 -0.8754
14652SOL     OW44798   6.203   6.991   2.637 -0.5320  0.1807  0.3690
14652SOL    HW144799   6.231   6.995   2.545 -1.5391  0.4399  0.0573
14652SOL    HW244800   6.124   7.045   2.640 -0.5795  0.0679  1.3694
14653SOL     OW44801   4.145   5.289   0.049 -0.1854  0.1016  0.8072
14653SOL    HW144802   4.113   5.211   0.005 -1.2323  0.2606  1.2547
14653SOL    HW244803   4.081   5.305   0.119 -0.6474  2.0096  0.0033
14654SOL     OW44804   6.191   2.671   2.731 -0.0088 -0.3139  0.1011
14654SOL    HW144805   6.178   2.581   2.701  1.5072  0.7606 -4.5532
14654SOL    HW244806   6.283   2.689   2.713 -0.1759  2.1249  1.2851
14655SOL     OW44807   1.579   4.672   5.724  0.3519  0.0525 -0.2016
14655SOL    HW144808   1.661   4.709   5.692  2.1138 -1.1548  2.5858
14655SOL    HW244809   1.544   4.739   5.784  0.7503 -0.5484  0.7144
14656SOL     OW44810   1.889   3.321   6.157 -0.2308  0.1300  0.3685
14656SOL    HW144811   1.820   3.376   6.121  0.1888  0.0277 -0.6445
14656SOL    HW244812   1.936   3.378   6.218  0.1305  0.8684 -0.5844
14657SOL     OW44813   6.643   5.299   1.285  0.2427  0.5993  0.2808
14657SOL    HW144814   6.701   5.222   1.285  0.0031  0.4185  0.3524
14657SOL    HW244815   6.691   5.364   1.234  0.2010  0.2149 -0.2600
14658SOL     OW44816   5.265   6.508   3.567  0.7537  0.0780 -0.4554
14658SOL    HW144817   5.346   6.558   3.563  0.2993  0.7756 -2.2342
14658SOL    HW244818   5.217   6.535   3.488 -1.5073  0.2204  0.8939
14659SOL     OW44819   2.242   7.917   4.297  0.0346  0.9393 -0.1215
14659SOL    HW144820   2.219   7.935   4.388  1.4830 -0.5479  0.6031
14659SOL    HW244821   2.178   7.853   4.268 -0.9069  1.9987 -0.4290
14660SOL     OW44822   1.388   5.732   0.867 -0.6655  0.1241  0.5040
14660SOL    HW144823   1.303   5.736   0.823 -0.8103 -1.2885  0.6033
14660SOL    HW244824   1.367   5.734   0.960 -0.5795 -0.1028  0.5284
14661SOL     OW44825   6.569   6.742   2.936 -0.0555 -0.5029 -0.4333
14661SOL    HW144826   6.620   6.687   2.995  1.5037  2.4134  1.1863
14661SOL    HW244827   6.558   6.690   2.857  2.2377 -2.6592  0.5515
14662SOL     OW44828   3.651   3.855   3.709 -0.2372 -0.0276 -0.2457
14662SOL    HW144829   3.604   3.858   3.793 -0.2756 -1.4271 -0.2036
14662SOL    HW244830   3.598   3.798   3.654  1.9988 -2.7458  0.2208
14663SOL     OW44831   1.836   8.193   3.754 -0.1563  0.1399  0.3362
14663SOL    HW144832   1.815   8.262   3.817  0.1777  0.5846 -0.0328
14663SOL    HW244833   1.754   8.175   3.709 -0.0527  0.9554 -0.2040
14664SOL     OW44834   4.132   2.577   5.084  0.2746 -0.1374  0.0506
14664SOL    HW144835   4.170   2.490   5.096 -0.7646 -0.8755 -1.5953
14664SOL    HW244836   4.171   2.609   5.002 -0.3828  0.3493 -0.0775
14665SOL     OW44837   3.685   6.846   0.324  0.4646  0.2111  0.1314
14665SOL    HW144838   3.712   6.820   0.236 -0.2861  0.4926 -0.1895
14665SOL    HW244839   3.626   6.920   0.309 -1.7298 -1.3295  0.7017
14666SOL     OW44840   0.978   2.341   2.875 -0.2801 -0.3118  0.4884
14666SOL    HW144841   0.910   2.381   2.821  0.6249  0.6798  0.0469
14666SOL    HW244842   0.930   2.282   2.933 -1.3540 -0.7621 -0.8081
14667SOL     OW44843   4.272   5.861   0.596  0.4064 -0.2638 -0.1689
14667SOL    HW144844   4.190   5.886   0.554  1.7733  0.9490 -2.3331
14667SOL    HW244845   4.287   5.771   0.568  0.1564 -0.2603 -0.3158
14668SOL     OW44846   7.614   4.559   7.972  0.3661 -0.0914 -0.3282
14668SOL    HW144847   7.618   4.464   7.987 -0.0417 -0.4023 -2.0207
14668SOL    HW244848   7.524   4.583   7.995  0.4153 -0.1364 -0.0814
14669SOL     OW44849   1.248   8.134   6.134  0.6791 -0.0447 -0.2293
14669SOL    HW144850   1.169   8.186   6.119  0.2766 -0.5100  0.2247
14669SOL    HW244851   1.312   8.196   6.169 -0.1765 -0.0712  1.4748
14670SOL     OW44852   1.333   5.977   0.282  0.1974 -0.1663 -0.5846
14670SOL    HW144853   1.315   6.041   0.212 -0.7923  0.6286  0.3689
14670SOL    HW244854   1.364   5.900   0.235 -1.0142  0.1309 -1.9725
14671SOL     OW44855   4.025   6.728   3.712 -0.4638  0.8684 -0.4354
14671SOL    HW144856   4.045   6.816   3.744 -0.5670  1.0933 -0.9825
14671SOL    HW244857   3.939   6.708   3.750 -0.2923  0.8646 -0.0411
14672SOL     OW44858   6.557   6.118   1.566  0.0221  0.5282 -0.3778
14672SOL    HW144859   6.483   6.111   1.505 -0.7554  0.2770  0.5711
14672SOL    HW244860   6.549   6.042   1.623 -0.2490  1.5789  1.0711
14673SOL     OW44861   3.536   7.968   1.700  0.0965 -0.3753 -0.0873
14673SOL    HW144862   3.561   8.038   1.639  3.1353 -1.2314 -0.0097
14673SOL    HW244863   3.503   8.013   1.777  1.7463  1.0275 -0.1343
14674SOL     OW44864   7.452   5.462   7.212 -0.2778 -0.5314 -0.0342
14674SOL    HW144865   7.456   5.373   7.248 -0.5316  0.1044  1.6558
14674SOL    HW244866   7.438   5.518   7.288  0.5570  1.0397 -0.9900
14675SOL     OW44867   5.460   0.389   1.390  0.1212  0.2114 -0.1696
14675SOL    HW144868   5.547   0.407   1.425  0.2593 -0.3674 -0.2046
14675SOL    HW244869   5.409   0.362   1.466 -0.2806  1.3867  0.0058
14676SOL     OW44870   0.994   6.034   3.312  0.2462  0.0762  0.2507
14676SOL    HW144871   1.059   6.012   3.245 -0.0393 -3.6411  0.9889
14676SOL    HW244872   1.039   6.017   3.395 -1.0528 -0.7214  0.8242
14677SOL     OW44873   0.080   4.736   0.531  0.1592  0.3846  0.0525
14677SOL    HW144874   0.034   4.675   0.588 -2.0427 -0.6229 -2.6014
14677SOL    HW244875   0.168   4.698   0.521 -0.8512 -1.9045 -0.7814
14678SOL     OW44876   4.017   0.317   0.952  0.1379  0.0374  0.6418
14678SOL    HW144877   3.955   0.382   0.917 -0.4965 -2.0932 -2.5903
14678SOL    HW244878   3.961   0.252   0.995  0.1420 -1.2111 -1.1381
14679SOL     OW44879   7.177   7.303   1.088 -0.6393  0.1751 -0.0456
14679SOL    HW144880   7.104   7.301   1.027  0.1816  2.8293 -1.2560
14679SOL    HW244881   7.137   7.319   1.173 -1.5794 -0.6964 -0.3021
14680SOL     OW44882   4.943   1.323   1.407 -0.1331 -0.2200 -0.5558
14680SOL    HW144883   5.000   1.332   1.331 -0.0337 -1.5931 -0.6643
14680SOL    HW244884   4.855   1.340   1.373  0.1550  1.8574 -0.3971
14681SOL     OW44885   6.629   4.335   1.781  0.6523 -0.3002  0.3872
14681SOL    HW144886   6.601   4.422   1.751 -1.3407 -1.0343 -0.0240
14681SOL    HW244887   6.582   4.322   1.863  1.0741 -0.9184  0.5327
14682SOL     OW44888   6.095   3.364   4.533  0.1600 -0.5949  0.1893
14682SOL    HW144889   6.104   3.423   4.458  0.5660 -0.8592  0.0274
14682SOL    HW244890   6.000   3.355   4.545  0.0974  0.3583  0.4327
14683SOL     OW44891   0.717   3.659   5.300  0.4014 -0.5474 -0.3716
14683SOL    HW144892   0.625   3.672   5.277  0.1584 -1.6714 -0.1146
14683SOL    HW244893   0.765   3.669   5.218  0.4341  2.9377 -0.0631
14684SOL     OW44894   0.703   5.171   7.149  0.7388  0.2623 -0.0027
14684SOL    HW144895   0.732   5.194   7.061 -1.3329 -0.2052 -0.8547
14684SOL    HW244896   0.638   5.238   7.171  1.5415  0.6211  1.3724
14685SOL     OW44897   2.016   1.757   7.322 -0.1293  0.6097  0.9242
14685SOL    HW144898   1.954   1.749   7.394  0.0228  1.0609  1.1102
14685SOL    HW244899   2.092   1.706   7.350  1.3462  3.4595  2.6605
14686SOL     OW44900   3.861   2.646   0.852 -0.1124 -0.0369 -0.1701
14686SOL    HW144901   3.766   2.644   0.862 -0.3257 -0.8259 -1.8786
14686SOL    HW244902   3.895   2.622   0.938 -1.4513  0.0830  0.4233
14687SOL     OW44903   4.506   3.664   2.117 -0.2211 -0.3476  0.1902
14687SOL    HW144904   4.514   3.570   2.134 -1.3509 -0.4638  0.1312
14687SOL    HW244905   4.516   3.671   2.022  1.7146 -0.1776  0.3588
14688SOL     OW44906   5.004   1.621   6.777 -0.7400  0.9141 -0.6566
14688SOL    HW144907   5.051   1.553   6.825 -2.5680 -0.1581 -0.3196
14688SOL    HW244908   5.071   1.659   6.719  0.0966 -1.9750 -1.7614
14689SOL     OW44909   4.973   0.036   4.036  0.2632  0.2650 -0.3629
14689SOL    HW144910   4.906  -0.031   4.019  0.6263  0.2065 -1.6611
14689SOL    HW244911   5.055  -0.005   4.008  0.8996  0.2640  1.3874
14690SOL     OW44912   3.122   5.121   2.865  0.3552 -0.3908 -0.2185
14690SOL    HW144913   3.049   5.103   2.925  0.1822  1.6446  0.2270
14690SOL    HW244914   3.080   5.158   2.787  0.8760  0.4562 -0.1034
14691SOL     OW44915   3.641   3.714   7.163 -0.3940 -0.0324 -0.1640
14691SOL    HW144916   3.700   3.686   7.233 -0.4688  0.6813  0.1936
14691SOL    HW244917   3.664   3.659   7.088 -0.2110 -0.7080  0.3748
14692SOL     OW44918   0.724   1.302   5.249  0.0213 -0.2934  0.5200
14692SOL    HW144919   0.670   1.237   5.295  0.3602 -1.0458 -0.1136
14692SOL    HW244920   0.776   1.250   5.188  0.1646  0.6028 -0.1387
14693SOL     OW44921   6.047   3.553   5.356  0.2195  0.1073  0.9307
14693SOL    HW144922   6.061   3.524   5.266  0.1476  1.6573  0.3981
14693SOL    HW244923   5.985   3.489   5.392 -1.0113  0.3640 -0.6220
14694SOL     OW44924   5.331   4.437   4.420 -0.0926 -0.4448  0.0120
14694SOL    HW144925   5.350   4.529   4.439 -1.2742  0.3500 -2.2724
14694SOL    HW244926   5.417   4.398   4.402  0.2540  0.7958 -1.1695
14695SOL     OW44927   5.626   0.693   6.672  0.0839  0.4296 -0.5782
14695SOL    HW144928   5.584   0.702   6.587 -0.1228  1.2310 -0.3941
14695SOL    HW244929   5.679   0.613   6.664  1.7285  1.5999 -2.1659
14696SOL     OW44930   6.724   3.297   4.766 -0.3981 -0.3600  0.0070
14696SOL    HW144931   6.642   3.263   4.731  0.2917 -0.6895 -1.3733
14696SOL    HW244932   6.786   3.288   4.694  0.5816  0.9111  0.6499
14697SOL     OW44933   6.460   6.267   2.358 -0.1005  0.2526 -0.5831
14697SOL    HW144934   6.379   6.258   2.307 -1.2387  2.2260  0.7594
14697SOL    HW244935   6.498   6.351   2.328 -1.8115  2.5158  2.9636
14698SOL     OW44936   0.034   1.172   4.087 -0.4772  0.1605  0.0708
14698SOL    HW144937  -0.016   1.109   4.036  0.2506 -0.2078 -0.1999
14698SOL    HW244938  -0.022   1.193   4.161 -0.6966 -0.8848  0.2139
14699SOL     OW44939   7.579   1.867   2.039 -0.3153 -0.2433  0.0863
14699SOL    HW144940   7.572   1.817   2.120  2.5165 -0.8209  0.0668
14699SOL    HW244941   7.583   1.801   1.970  1.1842  0.0413 -0.1346
14700SOL     OW44942   5.129   3.202   2.402 -0.0612  0.5199  0.1701
14700SOL    HW144943   5.081   3.280   2.374  0.3389  0.5095 -0.5754
14700SOL    HW244944   5.073   3.129   2.375 -0.8784  0.5431  1.6948
14701SOL     OW44945   7.440   7.736   3.408 -0.2201 -0.1622 -0.2852
14701SOL    HW144946   7.478   7.651   3.387 -0.3363 -0.2071 -0.3114
14701SOL    HW244947   7.507   7.779   3.462  0.7602  0.5614 -2.0035
14702SOL     OW44948   7.918   1.593   1.477  0.1765 -0.5711 -0.1258
14702SOL    HW144949   7.911   1.631   1.390  1.9198  0.7375  0.2356
14702SOL    HW244950   7.880   1.659   1.535 -0.7645 -1.3316  0.1512
14703SOL     OW44951   7.831   6.555   7.959 -0.7336  0.0471  0.0608
14703SOL    HW144952   7.772   6.597   8.022 -1.5656 -2.3975  1.0419
14703SOL    HW244953   7.777   6.489   7.916  0.6658 -0.5126 -0.9182
14704SOL     OW44954   6.049   0.702   5.935  0.5870  0.2588  0.6385
14704SOL    HW144955   6.039   0.644   5.859 -1.3669 -1.1701  1.8824
14704SOL    HW244956   6.137   0.738   5.926  1.3781 -1.8244 -0.9624
14705SOL     OW44957   6.505   1.772   4.145 -0.5971  0.8998  0.5886
14705SOL    HW144958   6.492   1.743   4.054  1.2641  2.0218 -0.0816
14705SOL    HW244959   6.440   1.841   4.158  0.2122  1.8866 -0.4696
14706SOL     OW44960   2.431   2.850   6.668 -0.0948 -0.6530 -0.0484
14706SOL    HW144961   2.419   2.897   6.585 -1.5232 -1.9653 -0.6306
14706SOL    HW244962   2.357   2.878   6.722  1.2558  0.8108  1.1446
14707SOL     OW44963   0.927   2.111   4.438  0.1614 -0.1628 -0.3531
14707SOL    HW144964   0.854   2.051   4.449  1.4284 -1.9740 -1.4024
14707SOL    HW244965   0.963   2.123   4.526 -1.2919  0.6801  0.1595
14708SOL     OW44966   2.176   5.232   0.418  0.3194  0.2805 -0.0257
14708SOL    HW144967   2.172   5.309   0.474  3.3122 -0.5907  1.5780
14708SOL    HW244968   2.269   5.213   0.409 -0.2316 -1.9915 -2.0514
14709SOL     OW44969   3.955   4.794   7.282 -0.6891 -0.0339 -0.4159
14709SOL    HW144970   3.993   4.881   7.267 -1.4513  0.4597  0.3927
14709SOL    HW244971   3.985   4.770   7.370  0.3795 -1.0784 -1.0284
14710SOL     OW44972   6.517   7.268   1.986  0.0999 -0.1560 -0.5359
14710SOL    HW144973   6.480   7.342   1.938 -1.2517  0.8663  1.8636
14710SOL    HW244974   6.601   7.301   2.020 -0.7951  0.6022  1.0728
14711SOL     OW44975   2.106   4.357   5.271  0.2317 -0.6231  0.1912
14711SOL    HW144976   2.167   4.422   5.238 -1.4327 -0.4635 -2.9264
14711SOL    HW244977   2.042   4.407   5.322  0.9193 -0.3533  0.7933
14712SOL     OW44978   0.862   2.115   3.677 -0.0591  0.0497 -0.5324
14712SOL    HW144979   0.884   2.022   3.673 -2.1756 -0.8145  3.0928
14712SOL    HW244980   0.770   2.119   3.652  0.0622  1.2270 -0.8593
14713SOL     OW44981   0.647   5.651   0.161  0.3472  0.2537 -0.5662
14713SOL    HW144982   0.679   5.738   0.184 -0.8539  1.1624 -2.1917
14713SOL    HW244983   0.716   5.615   0.105  1.1554 -0.1557  0.6396
14714SOL     OW44984   5.498   7.629   7.588 -0.3091  0.5504  0.2800
14714SOL    HW144985   5.530   7.547   7.550 -0.4151  0.9795 -0.7540
14714SOL    HW244986   5.518   7.620   7.681 -0.0755 -0.5377  0.1486
14715SOL     OW44987   7.517   0.677   1.934 -0.0427  0.2094 -0.3237
14715SOL    HW144988   7.576   0.713   2.000  1.2977  0.8539 -1.7913
14715SOL    HW244989   7.518   0.583   1.948 -0.9508  0.4324  1.4645
14716SOL     OW44990   8.185   0.796   4.267 -0.4685  0.0680  0.1519
14716SOL    HW144991   8.154   0.884   4.284 -1.1551 -0.2190  0.3936
14716SOL    HW244992   8.123   0.760   4.204 -1.1022 -0.7841  1.2448
14717SOL     OW44993   1.301   4.282   0.476  0.1992 -0.3608  0.1345
14717SOL    HW144994   1.354   4.235   0.540 -1.7406  0.0965  2.1974
14717SOL    HW244995   1.223   4.309   0.525 -1.1312  0.4889 -2.3108
14718SOL     OW44996   2.457   4.157   0.879 -0.6131 -0.1781 -0.0954
14718SOL    HW144997   2.535   4.101   0.877  0.3695  1.1309  0.1089
14718SOL    HW244998   2.413   4.133   0.960  0.1683 -0.1925  0.3407
14719SOL     OW44999   3.040   5.332   4.312 -0.1960  0.2484  0.2265
14719SOL    HW145000   2.988   5.411   4.297  0.5000  0.8296  0.7711
14719SOL    HW245001   3.012   5.300   4.397  0.6978  0.8781  0.7782
14720SOL     OW45002   0.967   6.091   0.141  0.1072 -0.0656 -0.1080
14720SOL    HW145003   0.997   6.001   0.134  1.1189  0.2084  0.5102
14720SOL    HW245004   0.917   6.106   0.060 -1.3886 -1.6312  0.4578
14721SOL     OW45005   6.906   7.489   2.237  0.2472 -0.2035 -0.8418
14721SOL    HW145006   6.982   7.485   2.178 -0.1623 -0.7801 -1.3339
14721SOL    HW245007   6.937   7.540   2.311  0.9601  0.0195 -1.2805
14722SOL     OW45008   6.721   3.368   5.046  0.2303 -0.3887 -0.0256
14722SOL    HW145009   6.707   3.333   4.957  0.2122 -0.8366  0.1497
14722SOL    HW245010   6.635   3.400   5.072  0.4064  0.4751 -0.4749
14723SOL     OW45011   1.208   7.109   4.331 -0.0724 -0.1700 -0.0706
14723SOL    HW145012   1.210   7.050   4.406  1.1746 -0.7492 -0.5250
14723SOL    HW245013   1.206   7.197   4.369 -1.7584 -0.4657  0.6165
14724SOL     OW45014   7.721   2.720   4.755 -0.1171  0.7135 -0.7178
14724SOL    HW145015   7.668   2.664   4.699  1.0542 -1.1136 -0.0617
14724SOL    HW245016   7.742   2.666   4.831  2.0102  1.6478 -0.5847
14725SOL     OW45017   2.932   2.992   6.528 -0.4168 -0.4340 -0.2099
14725SOL    HW145018   2.985   2.989   6.608 -1.3806  0.1631  0.4749
14725SOL    HW245019   2.871   2.918   6.537  0.6672 -1.5028 -1.2874
14726SOL     OW45020   6.720   7.116   4.981 -0.1260  0.1366 -1.1000
14726SOL    HW145021   6.806   7.147   4.951 -0.6990  0.8225 -2.0719
14726SOL    HW245022   6.657   7.172   4.936 -1.0731  0.5619  0.6610
14727SOL     OW45023   2.225   7.984   6.116  0.3345 -0.4898  0.6056
14727SOL    HW145024   2.155   7.991   6.051  0.5208  0.3068  0.4853
14727SOL    HW245025   2.218   7.894   6.149 -0.5172 -0.5279  0.3409
14728SOL     OW45026   3.289   6.646   5.252 -0.6282 -0.5567 -0.3825
14728SOL    HW145027   3.322   6.674   5.167  0.7511 -0.2578  0.2263
14728SOL    HW245028   3.295   6.551   5.250 -1.5706 -0.6228 -0.9741
14729SOL     OW45029   0.876   3.130   3.776  0.3377 -0.3412  0.0322
14729SOL    HW145030   0.911   3.218   3.789 -0.5710  0.0720 -0.2635
14729SOL    HW245031   0.809   3.141   3.709  0.8346 -1.4166 -0.6731
14730SOL     OW45032   7.498   7.080   6.733 -0.2749  0.7744 -0.2555
14730SOL    HW145033   7.420   7.058   6.683  0.4772 -1.7827 -0.4405
14730SOL    HW245034   7.567   7.093   6.667  0.7209 -2.6205 -0.0754
14731SOL     OW45035   7.924   6.404   5.454 -0.9509  0.4235  0.1307
14731SOL    HW145036   7.861   6.397   5.383 -1.9281  1.5700  0.8475
14731SOL    HW245037   7.901   6.331   5.513 -0.7076  0.0110 -0.2756
14732SOL     OW45038   4.135   2.313   5.303  0.0085 -0.0735  0.3291
14732SOL    HW145039   4.060   2.254   5.290  0.3125 -0.0072 -2.2099
14732SOL    HW245040   4.099   2.388   5.350 -1.7560  0.2771 -1.4379
14733SOL     OW45041   5.901   2.779   1.418 -0.2467  0.8347 -0.4823
14733SOL    HW145042   5.825   2.739   1.460  0.4389  0.4220  0.4089
14733SOL    HW245043   5.966   2.708   1.414  0.7738  1.6580  0.5567
14734SOL     OW45044   8.127   5.298   5.101 -0.6132  0.1149  0.1878
14734SOL    HW145045   8.188   5.334   5.036  0.3357  0.2211  1.1046
14734SOL    HW245046   8.163   5.211   5.121 -1.1232 -0.0780  0.2786
14735SOL     OW45047   8.109   6.569   5.373  0.4119  0.2267 -0.9578
14735SOL    HW145048   8.174   6.522   5.425  0.8520  0.5789 -1.1741
14735SOL    HW245049   8.025   6.547   5.412  0.8699  2.5707  1.6175
14736SOL     OW45050   5.972   8.043   7.869  0.5810 -0.1349 -0.0749
14736SOL    HW145051   6.041   7.986   7.834  0.9783  0.3885 -0.1523
14736SOL    HW245052   5.959   8.010   7.958  0.0139 -1.0598 -0.4828
14737SOL     OW45053   5.687   4.505   6.578  0.0617 -0.0796  0.6476
14737SOL    HW145054   5.703   4.596   6.604  1.0000  0.1344 -0.5813
14737SOL    HW245055   5.768   4.477   6.535 -1.1695 -0.5622 -1.5233
14738SOL     OW45056   3.279   1.443   1.340  0.4170  0.1899 -0.5711
14738SOL    HW145057   3.207   1.384   1.316 -0.1800  0.4107  0.5963
14738SOL    HW245058   3.352   1.384   1.362  0.3308 -0.0591 -0.9400
14739SOL     OW45059   3.164   2.015   5.735  0.0513 -0.1121  0.0176
14739SOL    HW145060   3.076   2.030   5.702  0.6029 -0.0789 -1.5294
14739SOL    HW245061   3.221   2.036   5.661  1.5273  2.1272  1.6661
14740SOL     OW45062   1.716   6.570   4.438  0.2545  0.3673 -0.1874
14740SOL    HW145063   1.764   6.526   4.368 -1.9547 -0.1778 -1.4747
14740SOL    HW245064   1.647   6.619   4.393 -2.7193 -1.8003  1.5840
14741SOL     OW45065   6.458   7.153   5.835  0.0809  0.1704  0.0266
14741SOL    HW145066   6.378   7.100   5.835  0.1360  0.0855 -0.3132
14741SOL    HW245067   6.444   7.217   5.765 -0.2009  0.9358  0.7686
14742SOL     OW45068   0.119   4.617   3.411 -0.1445 -0.3516  0.2094
14742SOL    HW145069   0.050   4.676   3.442  0.0980 -0.4769  0.9964
14742SOL    HW245070   0.201   4.660   3.435  0.0557 -0.3612 -0.4329
14743SOL     OW45071   7.841   5.568   1.656  0.6503  0.7437 -0.3294
14743SOL    HW145072   7.853   5.474   1.640  3.5481  0.7735  0.9819
14743SOL    HW245073   7.868   5.581   1.747  0.4448  2.8785 -0.5183
14744SOL     OW45074   3.627   2.968   1.106  0.0193 -0.7963 -0.0424
14744SOL    HW145075   3.641   2.960   1.201  0.0344  1.7517  0.2319
14744SOL    HW245076   3.572   3.046   1.097 -0.1581 -1.1212 -2.1414
14745SOL     OW45077   5.525   5.537   7.570 -0.0248  0.2399 -0.2259
14745SOL    HW145078   5.617   5.511   7.565 -0.0387  0.2760 -0.7148
14745SOL    HW245079   5.515   5.603   7.501 -0.0577  1.3297  0.7950
14746SOL     OW45080   0.671   0.173   0.941 -0.0290  0.1801 -0.2596
14746SOL    HW145081   0.756   0.140   0.912 -0.0240 -1.3875  1.3407
14746SOL    HW245082   0.686   0.202   1.031 -1.1961 -0.3015  0.1083
14747SOL     OW45083   8.089   3.010   3.566 -0.1369  0.7713  0.1462
14747SOL    HW145084   8.064   3.101   3.549 -0.7228  0.3062 -1.8114
14747SOL    HW245085   8.011   2.970   3.605 -0.9531  0.4630 -1.6602
14748SOL     OW45086   1.644   0.127   1.504 -0.3081  0.1579  0.0854
14748SOL    HW145087   1.642   0.141   1.599 -0.5186 -0.1479  0.1277
14748SOL    HW245088   1.552   0.127   1.478 -0.2537  0.1564 -0.1091
14749SOL     OW45089   7.100   1.415   7.313  0.1424 -0.2710 -0.6393
14749SOL    HW145090   7.077   1.507   7.320  0.1390 -0.3935  2.2337
14749SOL    HW245091   7.193   1.415   7.292  0.3069  0.3954  0.0663
14750SOL     OW45092   1.871   4.055   0.448  0.1886 -0.0565  0.4028
14750SOL    HW145093   1.955   4.100   0.435 -0.8639  1.4539 -1.9442
14750SOL    HW245094   1.894   3.963   0.456  2.0555  0.0835 -1.9875
14751SOL     OW45095   3.388   7.200   5.004 -0.1173 -0.0322 -0.5690
14751SOL    HW145096   3.371   7.118   4.959 -0.6403 -0.5971  0.6135
14751SOL    HW245097   3.307   7.217   5.053  0.7686  0.0657  0.8909
14752SOL     OW45098   6.484   5.112   3.650  0.3862 -0.4937  0.2448
14752SOL    HW145099   6.413   5.135   3.711  0.1849 -1.7717  0.5155
14752SOL    HW245100   6.546   5.062   3.703  0.6226 -0.8887 -0.3972
14753SOL     OW45101   4.908   0.415   7.743 -0.4157  0.4948 -0.2546
14753SOL    HW145102   4.956   0.497   7.752  1.2782 -0.3115 -1.4690
14753SOL    HW245103   4.829   0.428   7.796  0.7010  2.1866  1.1170
14754SOL     OW45104   3.940   3.983   8.065  0.3327 -0.7063  0.2758
14754SOL    HW145105   4.034   4.003   8.064  0.5495 -1.6979 -0.1372
14754SOL    HW245106   3.912   4.003   8.154  0.9088 -0.2964  0.3721
14755SOL     OW45107   3.112   5.289   0.002  0.5690  0.9144 -0.8955
14755SOL    HW145108   3.135   5.235   0.078 -1.3600  1.3576  0.0749
14755SOL    HW245109   3.192   5.292  -0.050  1.0073 -2.2059 -0.6215
14756SOL     OW45110   6.521   5.469   5.300  0.2957  0.1336 -0.4235
14756SOL    HW145111   6.444   5.495   5.249 -0.6072 -1.1826  0.2245
14756SOL    HW245112   6.578   5.546   5.298  0.0605  0.3240 -2.9469
14757SOL     OW45113   7.308   1.307   5.432  0.1031 -0.1066  0.0245
14757SOL    HW145114   7.335   1.273   5.517  0.8354 -0.3851 -0.3118
14757SOL    HW245115   7.233   1.253   5.408 -2.4648  2.2291  2.0677
14758SOL     OW45116   1.823   6.165   6.286 -0.0230 -0.1572  0.4363
14758SOL    HW145117   1.854   6.250   6.258  2.3704 -0.7613  1.0439
14758SOL    HW245118   1.853   6.105   6.217 -1.8524 -0.5424 -0.0908
14759SOL     OW45119   7.817   6.417   5.027 -0.3189 -0.8692  0.1974
14759SOL    HW145120   7.775   6.456   4.950  0.3379  0.0462  0.2989
14759SOL    HW245121   7.895   6.373   4.992 -0.1854 -0.7117  0.2938
14760SOL     OW45122   7.348   7.255   1.960 -0.9660 -0.7417 -0.1232
14760SOL    HW145123   7.338   7.196   1.885  1.5061 -0.2482 -0.9573
14760SOL    HW245124   7.437   7.291   1.950 -1.6304  1.5675  1.4806
14761SOL     OW45125   7.452   0.972   0.655  0.3036 -0.1760 -0.0937
14761SOL    HW145126   7.388   0.906   0.682 -0.6597  0.3902 -0.9782
14761SOL    HW245127   7.400   1.045   0.622  1.4006  0.0890 -1.3197
14762SOL     OW45128   7.491   6.711   0.575  0.0853 -0.0539  0.1633
14762SOL    HW145129   7.582   6.685   0.591  0.0751  0.0582  0.4100
14762SOL    HW245130   7.498   6.785   0.514  0.0759 -1.1256 -1.1957
14763SOL     OW45131   0.460   1.000   2.286 -0.6889  0.3561  0.3551
14763SOL    HW145132   0.475   0.941   2.213  0.6335 -0.1621  1.0101
14763SOL    HW245133   0.368   0.989   2.308 -0.1359 -2.8081  1.5652
14764SOL     OW45134   6.485   6.246   0.968 -0.1180 -0.4814 -0.0550
14764SOL    HW145135   6.490   6.318   0.907  0.1501  0.6854  1.2858
14764SOL    HW245136   6.576   6.226   0.989 -0.2190 -0.3071  0.5768
14765SOL     OW45137   1.703   1.415   2.485 -0.1456  0.0426  0.2061
14765SOL    HW145138   1.763   1.462   2.543 -0.9133  1.8486 -0.3831
14765SOL    HW245139   1.627   1.395   2.539 -0.2542  0.4414  0.2058
14766SOL     OW45140   2.010   0.618   8.055 -0.7251  0.0723 -0.1968
14766SOL    HW145141   2.060   0.582   7.981 -0.7465 -0.1265 -0.1156
14766SOL    HW245142   1.984   0.706   8.026 -0.5733  0.0666 -0.3512
14767SOL     OW45143   3.124   7.983   6.391 -0.4700 -0.3420 -0.2439
14767SOL    HW145144   3.196   7.997   6.330  0.0048  1.9041  0.7164
14767SOL    HW245145   3.160   8.011   6.476 -1.7160 -1.5219  0.7077
14768SOL     OW45146   1.956   0.709   1.450  0.5642  0.5808 -0.9947
14768SOL    HW145147   1.926   0.621   1.474 -0.1527  0.9097 -0.6372
14768SOL    HW245148   1.984   0.702   1.359 -1.6320  0.4708 -1.7318
14769SOL     OW45149   3.675   0.449   4.092  0.0833  0.1362  0.0373
14769SOL    HW145150   3.616   0.523   4.098 -0.3191 -0.2361  0.8116
14769SOL    HW245151   3.675   0.425   3.999 -1.0030  0.1262  0.0324
14770SOL     OW45152   3.564   3.405   4.482 -0.2687 -0.2672  0.3069
14770SOL    HW145153   3.508   3.472   4.521 -0.6838 -0.6887  0.4296
14770SOL    HW245154   3.506   3.332   4.462 -0.2305  0.2294 -1.8353
14771SOL     OW45155   1.946   2.557   5.633  0.0592 -0.7794  0.5325
14771SOL    HW145156   1.894   2.481   5.608 -1.0123  0.1622 -0.1895
14771SOL    HW245157   1.957   2.607   5.552 -0.7462  0.7037  1.2953
14772SOL     OW45158   0.232   0.834   4.278 -0.0760  0.0116 -0.5056
14772SOL    HW145159   0.241   0.929   4.267 -0.0865  0.1859  0.8780
14772SOL    HW245160   0.138   0.818   4.275 -0.2301  0.3644  1.5399
14773SOL     OW45161   0.291   7.537   0.693 -0.1542  0.3827  0.0742
14773SOL    HW145162   0.361   7.544   0.757 -0.6963  0.5872  0.6603
14773SOL    HW245163   0.333   7.551   0.609  0.1919  2.4974  0.5511
14774SOL     OW45164   2.709   7.120   1.481 -0.0419  0.7205  1.1424
14774SOL    HW145165   2.634   7.177   1.468  1.6528  2.5130 -1.6677
14774SOL    HW245166   2.718   7.072   1.399  1.1135 -0.5060  1.9265
14775SOL     OW45167   3.280   3.580   5.558 -0.7976  0.4672  0.0705
14775SOL    HW145168   3.356   3.529   5.586 -1.0802 -1.0429 -1.7079
14775SOL    HW245169   3.205   3.525   5.578 -1.1290  0.2041 -1.7319
14776SOL     OW45170   4.788   1.085   4.672 -0.2701  0.2409  0.4556
14776SOL    HW145171   4.753   1.112   4.757  0.4899  1.2106  0.4717
14776SOL    HW245172   4.722   1.111   4.609 -1.1864 -1.1552  0.7906
14777SOL     OW45173   4.024   4.229   1.153 -0.1750 -0.1042  0.0774
14777SOL    HW145174   4.118   4.222   1.141  0.0264  1.8496  0.1648
14777SOL    HW245175   3.988   4.149   1.114  1.5126 -1.0132  0.2974
14778SOL     OW45176   6.652   2.925   6.418 -0.1301 -0.0463  0.1665
14778SOL    HW145177   6.634   2.933   6.325 -0.1315 -1.3644  0.0316
14778SOL    HW245178   6.575   2.962   6.461  0.0154  0.8727 -0.3378
14779SOL     OW45179   7.737   1.100   7.225  0.0154 -0.1369  0.2194
14779SOL    HW145180   7.724   1.152   7.146 -0.3467 -1.0222 -0.3050
14779SOL    HW245181   7.821   1.130   7.260  0.0660  0.4178 -0.3676
14780SOL     OW45182   7.683   5.303   5.467 -0.1658 -0.4083  0.2259
14780SOL    HW145183   7.600   5.261   5.447 -0.1538 -0.8900  1.1322
14780SOL    HW245184   7.739   5.231   5.497 -0.2829  0.2804  2.2337
14781SOL     OW45185   7.829   3.664   8.002 -0.1124  0.0954  0.0677
14781SOL    HW145186   7.880   3.594   7.961 -1.7943 -0.0449 -2.0199
14781SOL    HW245187   7.888   3.704   8.066  2.4639 -0.2306 -1.9466
14782SOL     OW45188   3.068   4.930   0.531  0.5111 -0.7442  0.2492
14782SOL    HW145189   3.049   5.022   0.546 -1.5686 -0.7483 -1.7723
14782SOL    HW245190   3.142   4.930   0.471  0.4410 -0.3679  0.1626
14783SOL     OW45191   1.147   4.892   7.393  0.3767  0.2013 -0.0084
14783SOL    HW145192   1.100   4.944   7.458  0.4028  0.3569 -0.1152
14783SOL    HW245193   1.113   4.922   7.309 -0.1941 -0.5218 -0.0417
14784SOL     OW45194   5.830   8.076   4.068  0.2550 -0.1869  0.6281
14784SOL    HW145195   5.800   7.988   4.091 -0.2913 -0.0478  0.4648
14784SOL    HW245196   5.785   8.096   3.986 -1.8343  1.3328  2.0453
14785SOL     OW45197   5.819   0.045   5.012  0.1956 -0.3321 -0.1484
14785SOL    HW145198   5.741   0.048   5.068  2.2094 -0.2129  2.8454
14785SOL    HW245199   5.811   0.122   4.956 -2.0221 -0.5718 -0.2521
14786SOL     OW45200   3.077   6.574   3.678 -0.0964  0.3610  0.2756
14786SOL    HW145201   2.986   6.586   3.705 -0.1137  0.9669 -0.0317
14786SOL    HW245202   3.112   6.663   3.671  1.0371  0.1105  2.1032
14787SOL     OW45203   4.218   2.784   2.961 -0.3421  0.2735 -0.1276
14787SOL    HW145204   4.309   2.787   2.992 -0.0210  0.9222 -1.0526
14787SOL    HW245205   4.192   2.876   2.955 -0.1921  0.2494 -2.1763
14788SOL     OW45206   8.041   1.703   7.660 -0.1542  0.9948 -0.5182
14788SOL    HW145207   7.973   1.765   7.635 -1.7778 -1.4058 -2.5989
14788SOL    HW245208   8.098   1.698   7.583 -0.4903 -0.5505 -0.7020
14789SOL     OW45209   6.245   4.835   7.009  0.0588 -0.0663  0.5262
14789SOL    HW145210   6.203   4.778   7.073  0.9223  0.6058  1.7324
14789SOL    HW245211   6.314   4.879   7.058  0.3011  0.9839 -0.7055
14790SOL     OW45212   6.468   3.863   4.626  0.0628 -0.4506  0.2169
14790SOL    HW145213   6.512   3.946   4.607 -0.5152 -0.3738 -0.8295
14790SOL    HW245214   6.442   3.871   4.718  0.1704  0.4483  0.1794
14791SOL     OW45215   4.920   2.683   3.589 -0.3500  0.2336 -0.2458
14791SOL    HW145216   4.910   2.615   3.656 -0.1698 -1.1931 -1.6095
14791SOL    HW245217   5.012   2.708   3.595 -0.6647  1.1934  1.0000
14792SOL     OW45218   2.650   7.431   0.909 -0.1462 -0.3827  0.0343
14792SOL    HW145219   2.677   7.424   1.000 -0.9057 -1.0971  0.2244
14792SOL    HW245220   2.676   7.347   0.870 -1.5018 -0.8516  0.0823
14793SOL     OW45221   1.500   7.337   4.033  0.1693 -0.5322  0.6198
14793SOL    HW145222   1.434   7.395   4.070 -0.5261  0.1011 -1.5217
14793SOL    HW245223   1.487   7.254   4.079 -2.5558 -0.6069 -0.1278
14794SOL     OW45224   3.901   6.725   6.682 -0.2519  0.7874 -0.1513
14794SOL    HW145225   3.882   6.632   6.691 -0.7905  0.7331 -1.5509
14794SOL    HW245226   3.878   6.763   6.766  0.8676 -0.4706  0.7736
14795SOL     OW45227   5.051   2.913   0.398 -0.3300  0.4086  0.2118
14795SOL    HW145228   5.076   2.828   0.434  1.0426  0.2728 -0.9607
14795SOL    HW245229   5.050   2.972   0.474 -0.0890 -0.4033  0.8585
14796SOL     OW45230   4.286   3.475   7.734 -0.4544  0.0103  0.1650
14796SOL    HW145231   4.213   3.413   7.732  1.2483 -2.1119 -2.0612
14796SOL    HW245232   4.326   3.462   7.820 -0.0635 -2.1980 -0.2934
14797SOL     OW45233   5.768   4.661   0.331  0.3002 -0.1763 -0.4645
14797SOL    HW145234   5.809   4.736   0.287 -0.3314  0.2018 -0.4231
14797SOL    HW245235   5.707   4.625   0.267  0.1660 -0.2873 -0.2773
14798SOL     OW45236   4.399   7.445   0.224  0.2217  0.0686 -0.0262
14798SOL    HW145237   4.375   7.363   0.180 -0.8697 -0.7334  1.9252
14798SOL    HW245238   4.475   7.422   0.278  1.7060  1.1026 -1.5665
14799SOL     OW45239   1.688   7.175   4.231  0.0161  0.0852 -0.1272
14799SOL    HW145240   1.701   7.096   4.178 -0.8397 -0.7072  0.8036
14799SOL    HW245241   1.593   7.186   4.236 -0.0956 -1.2572  3.1476
14800SOL     OW45242   2.954   4.570   6.246 -0.3632 -0.3723  0.0861
14800SOL    HW145243   2.949   4.617   6.330  2.2535  0.1751  0.0384
14800SOL    HW245244   3.047   4.571   6.225 -0.9169 -0.8485 -2.6670
14801SOL     OW45245   7.138   6.275   7.498  0.0291  0.6360  0.6104
14801SOL    HW145246   7.053   6.269   7.543 -0.6326  0.4533 -0.6279
14801SOL    HW245247   7.167   6.184   7.490  0.4036  0.7049  1.1241
14802SOL     OW45248   4.441   6.914   0.359  0.3299 -0.1388 -0.2938
14802SOL    HW145249   4.385   6.902   0.283  0.5652 -0.5006 -0.4131
14802SOL    HW245250   4.413   6.847   0.421 -1.0575  1.2506  0.6717
14803SOL     OW45251   7.253   6.966   7.561 -0.2641 -0.0540 -0.3876
14803SOL    HW145252   7.217   6.977   7.473 -1.1597 -0.0922 -0.0304
14803SOL    HW245253   7.182   6.926   7.611  0.4115 -0.5026  0.2275
14804SOL     OW45254   1.224   0.415   6.621  0.5326 -0.2894 -0.4888
14804SOL    HW145255   1.176   0.426   6.703  0.2978 -0.2229 -0.6346
14804SOL    HW245256   1.187   0.336   6.582  0.5186 -0.2198 -0.6174
14805SOL     OW45257   0.537   0.453   3.637  0.4757 -0.1478 -0.4498
14805SOL    HW145258   0.517   0.453   3.731  1.2249  0.6999 -0.2728
14805SOL    HW245259   0.629   0.428   3.632  0.0957 -1.5109 -1.0656
14806SOL     OW45260   0.213   2.344   5.239  0.4148 -0.4452 -0.1559
14806SOL    HW145261   0.120   2.341   5.259 -0.2654  0.6974 -2.6526
14806SOL    HW245262   0.233   2.257   5.203  0.0806 -0.4121 -0.4249
14807SOL     OW45263   0.813   0.018   0.689 -0.3108  0.1215 -0.0918
14807SOL    HW145264   0.875  -0.039   0.735  0.0669  0.9176  0.3916
14807SOL    HW245265   0.861   0.048   0.612  0.4166  1.7953  0.9561
14808SOL     OW45266   5.499   1.287   7.224  0.3233  0.6068  0.7876
14808SOL    HW145267   5.458   1.206   7.194 -0.9964  0.7963  1.9610
14808SOL    HW245268   5.589   1.263   7.245 -0.0369 -0.5421  1.0558
14809SOL     OW45269   5.828   7.632   0.963 -0.3216 -0.5529 -0.1268
14809SOL    HW145270   5.738   7.599   0.958 -0.1589 -1.2327  1.0389
14809SOL    HW245271   5.845   7.642   1.057  0.2004  1.3441 -0.3818
14810SOL     OW45272   0.891   4.194   5.266 -0.1047 -0.7468  0.0572
14810SOL    HW145273   0.924   4.257   5.202  0.6316 -0.3658  0.8041
14810SOL    HW245274   0.804   4.172   5.234  0.4218 -0.9246 -1.3475
14811SOL     OW45275   5.297   7.539   2.095 -0.2119  0.7247  0.4056
14811SOL    HW145276   5.387   7.531   2.063  0.4898  0.5860  2.2804
14811SOL    HW245277   5.277   7.632   2.089  0.2261  0.8203  0.4255
14812SOL     OW45278   0.876   0.817   3.668 -0.5833 -0.2511  0.0040
14812SOL    HW145279   0.921   0.740   3.704 -0.8898  0.6137  2.3967
14812SOL    HW245280   0.929   0.842   3.592  1.7433 -0.5638  1.4222
14813SOL     OW45281   2.575   0.387   6.763 -0.2091 -0.1291  0.0599
14813SOL    HW145282   2.609   0.468   6.726  0.6930 -0.4812  0.0870
14813SOL    HW245283   2.523   0.414   6.838 -0.1774  0.4360 -0.1195
14814SOL     OW45284   1.635   5.895   8.152  0.3637  0.0937 -0.2509
14814SOL    HW145285   1.627   5.868   8.244  0.7935  0.6315 -0.0478
14814SOL    HW245286   1.649   5.814   8.104  0.7100 -0.1360  0.2341
14815SOL     OW45287   7.041   0.769   2.233  0.5361 -0.6247  0.0532
14815SOL    HW145288   6.967   0.707   2.235 -0.2582  0.3007 -0.1221
14815SOL    HW245289   7.116   0.715   2.208 -0.5502 -1.1370 -2.3225
14816SOL     OW45290   4.638   7.043   5.390 -0.2732  0.5456  0.0725
14816SOL    HW145291   4.619   7.074   5.478  0.5870  0.4431  0.3086
14816SOL    HW245292   4.717   7.091   5.364 -0.4116  0.4375 -0.5620
14817SOL     OW45293   2.237   2.193   2.772  0.3366  0.3083  0.4914
14817SOL    HW145294   2.190   2.202   2.855 -0.3839 -0.7134  0.2162
14817SOL    HW245295   2.277   2.106   2.777  0.0628  0.1293 -0.3488
14818SOL     OW45296   1.634   1.026   0.049  0.4933  0.0070  0.5382
14818SOL    HW145297   1.625   0.937   0.015  0.4835  0.4327 -0.6399
14818SOL    HW245298   1.703   1.065  -0.005 -1.6387  1.7009 -1.1711
14819SOL     OW45299   2.746   5.085   4.756  0.4184 -0.0825  0.3645
14819SOL    HW145300   2.698   5.161   4.724  1.2247  0.6097  0.7611
14819SOL    HW245301   2.701   5.010   4.716 -1.8729  0.4130  1.8139
14820SOL     OW45302   1.178   7.944   5.653 -0.8517 -0.1470 -0.7550
14820SOL    HW145303   1.232   7.962   5.577 -0.0716  0.2588 -0.1155
14820SOL    HW245304   1.209   7.858   5.684 -0.9463 -0.1627 -0.7042
14821SOL     OW45305   5.829   7.290   1.376 -0.0713  0.4875 -0.1246
14821SOL    HW145306   5.842   7.204   1.336  1.8102  1.2832 -1.3527
14821SOL    HW245307   5.854   7.277   1.468  0.3224 -0.2523 -0.3296
14822SOL     OW45308   5.878   2.848   6.663 -0.8173  0.1902 -0.1445
14822SOL    HW145309   5.939   2.819   6.731 -1.0128  1.9944  0.8472
14822SOL    HW245310   5.804   2.884   6.710 -1.0049  1.4108 -1.3118
14823SOL     OW45311   5.390   1.137   2.355  0.3832 -0.1551 -0.2461
14823SOL    HW145312   5.351   1.065   2.305  1.3974 -0.4124 -0.6848
14823SOL    HW245313   5.474   1.103   2.384  1.2723  1.1405 -1.2053
14824SOL     OW45314   3.609   3.100   3.940  0.2498 -0.2696  0.0298
14824SOL    HW145315   3.531   3.045   3.940  0.2245 -0.2861  1.5969
14824SOL    HW245316   3.681   3.041   3.960  0.3813  0.0694  0.5815
14825SOL     OW45317   0.953   3.529   8.141 -0.4680 -0.0130 -0.2602
14825SOL    HW145318   1.026   3.480   8.101 -1.9666 -2.8947  0.2592
14825SOL    HW245319   0.966   3.519   8.235  0.7247  3.1586  0.0120
14826SOL     OW45320   7.701   1.063   2.869  0.0664 -0.0470  0.4668
14826SOL    HW145321   7.675   1.035   2.956  1.8029 -1.6601  0.5480
14826SOL    HW245322   7.790   1.098   2.880  0.9662 -1.7550 -0.8198
14827SOL     OW45323   6.123   0.332   8.216 -0.5910 -0.2067  0.3940
14827SOL    HW145324   6.120   0.273   8.140  0.1557 -0.7670  0.7896
14827SOL    HW245325   6.190   0.295   8.273 -0.2802  0.8897  0.7721
14828SOL     OW45326   1.381   6.948   3.958  0.2949  0.0547 -0.0474
14828SOL    HW145327   1.383   7.028   3.906 -0.7801 -0.4596 -0.9025
14828SOL    HW245328   1.391   6.877   3.895 -0.1047 -0.5432  0.5408
14829SOL     OW45329   8.137   0.573   7.666  0.8556 -0.4256  0.0295
14829SOL    HW145330   8.078   0.500   7.646 -0.4805  0.2284  1.3919
14829SOL    HW245331   8.148   0.619   7.583 -0.3453 -0.7347 -0.3151
14830SOL     OW45332   1.583   4.514   1.209  0.0540  0.1537 -0.7171
14830SOL    HW145333   1.555   4.473   1.126 -1.0904 -1.0247  0.2080
14830SOL    HW245334   1.678   4.523   1.200  0.1102 -1.0777 -1.6989
14831SOL     OW45335   7.684   7.084   0.728  0.2386  0.0468  0.5306
14831SOL    HW145336   7.655   7.149   0.664 -1.3627 -0.8132  0.3213
14831SOL    HW245337   7.724   7.135   0.798  2.0303  1.0165 -1.1000
14832SOL     OW45338   0.742   1.443   5.885  0.2900 -0.6264 -0.1083
14832SOL    HW145339   0.658   1.484   5.864  0.8594 -0.1198 -1.4665
14832SOL    HW245340   0.754   1.460   5.979  0.6595  2.6408 -0.6280
14833SOL     OW45341   4.635   2.337   5.958 -0.3221 -0.2033 -0.2697
14833SOL    HW145342   4.623   2.284   5.879 -1.7984  2.4380 -1.9431
14833SOL    HW245343   4.547   2.343   5.996  0.2263 -0.7358  1.1660
14834SOL     OW45344   6.546   6.670   6.294  0.3355 -0.0858 -0.1523
14834SOL    HW145345   6.584   6.704   6.374 -0.7806  1.1613 -0.1063
14834SOL    HW245346   6.476   6.732   6.272 -0.5073 -1.3120 -1.1625
14835SOL     OW45347   7.336   5.163   7.093  0.1966  0.0724  0.1602
14835SOL    HW145348   7.383   5.169   7.176 -0.9665 -0.8312  0.9284
14835SOL    HW245349   7.368   5.237   7.041  0.8224  0.7513  1.4744
14836SOL     OW45350   0.263   3.480   6.770 -0.0908  0.2618  0.3161
14836SOL    HW145351   0.227   3.393   6.754  1.8444 -0.7798  1.2789
14836SOL    HW245352   0.253   3.493   6.865 -0.6071  1.2402  0.1478
14837SOL     OW45353   8.088   7.625   0.153 -0.1690  0.6797  0.5577
14837SOL    HW145354   8.130   7.646   0.236 -1.1050  3.9238  0.3455
14837SOL    HW245355   7.997   7.653   0.164 -0.8515 -0.7624 -0.9142
14838SOL     OW45356   4.401   5.199   8.160 -0.8037  0.2340  0.0865
14838SOL    HW145357   4.345   5.135   8.204 -0.5677  1.5477  2.4630
14838SOL    HW245358   4.351   5.281   8.164  0.4271  0.9976  0.4906
14839SOL     OW45359   8.125   8.160   6.773 -0.4216 -0.2733 -0.4363
14839SOL    HW145360   8.042   8.131   6.735 -1.2196  0.1467  0.8935
14839SOL    HW245361   8.152   8.088   6.830 -0.1492 -0.2029 -0.4760
14840SOL     OW45362   2.696   7.456   3.982 -0.3376 -0.1824  0.0454
14840SOL    HW145363   2.745   7.490   3.907 -0.9150  0.2980 -0.1218
14840SOL    HW245364   2.634   7.526   4.003 -0.3400 -0.4123  0.8235
14841SOL     OW45365   0.123   5.568   0.573  0.0125  0.1039 -0.0852
14841SOL    HW145366   0.061   5.639   0.559  1.0689  1.2269  0.6670
14841SOL    HW245367   0.069   5.494   0.603 -1.0891  0.6243 -0.7323
14842SOL     OW45368   1.607   6.264   1.089 -0.4921 -0.5368 -0.0405
14842SOL    HW145369   1.622   6.235   1.000 -0.1944 -0.7933  0.0932
14842SOL    HW245370   1.636   6.191   1.144  0.4753  0.0872  0.3006
14843SOL     OW45371   0.374   5.845   0.994  0.2249  0.8456 -0.6401
14843SOL    HW145372   0.301   5.815   0.940  1.2459  1.8003 -2.6830
14843SOL    HW245373   0.449   5.794   0.963  0.6140  0.5029  0.8090
14844SOL     OW45374   1.366   0.159   2.523  0.2924  0.0346  0.2529
14844SOL    HW145375   1.382   0.080   2.471  1.5661  0.4718 -0.0634
14844SOL    HW245376   1.426   0.224   2.486 -0.5958  1.0960  0.6430
14845SOL     OW45377   4.087   7.492   6.357 -0.4007 -0.9942 -0.5303
14845SOL    HW145378   4.067   7.406   6.395 -3.6258 -0.3013 -0.3424
14845SOL    HW245379   4.012   7.546   6.381  1.2966  1.7860 -1.0651
14846SOL     OW45380   2.454   7.195   8.004 -0.1305 -0.3328 -0.4130
14846SOL    HW145381   2.429   7.138   7.932 -0.1498 -1.8157  0.7391
14846SOL    HW245382   2.447   7.284   7.967 -1.1443 -0.9910 -1.9109
14847SOL     OW45383   2.535   1.527   3.461 -0.9208  0.2522 -0.3338
14847SOL    HW145384   2.553   1.595   3.526 -2.2222  0.1653  0.1522
14847SOL    HW245385   2.541   1.572   3.377 -0.5953  0.6960 -0.0748
14848SOL     OW45386   1.336   6.621   3.957  0.2415 -0.1094  0.1764
14848SOL    HW145387   1.244   6.597   3.943 -0.1987  1.2901  0.5007
14848SOL    HW245388   1.344   6.632   4.052  0.1549  1.8594 -0.0001
14849SOL     OW45389   4.486   4.263   5.503  0.4186  0.6262 -0.5249
14849SOL    HW145390   4.496   4.233   5.593  1.0173 -1.5911 -1.2558
14849SOL    HW245391   4.414   4.211   5.468 -0.5240  2.2341 -1.0523
14850SOL     OW45392   1.889   5.010   1.886  0.6015 -0.5074 -0.1801
14850SOL    HW145393   1.945   5.061   1.827  0.2922  0.0036 -0.0446
14850SOL    HW245394   1.810   5.064   1.895 -0.8722 -2.1824 -2.1007
14851SOL     OW45395   1.421   2.557   4.020  0.2386 -0.0721  0.0910
14851SOL    HW145396   1.338   2.510   4.015  0.0701  0.1941  0.4254
14851SOL    HW245397   1.409   2.622   4.088  0.6103  0.1961 -0.0943
14852SOL     OW45398   0.503   7.278   1.933  0.1109  0.4383  0.7342
14852SOL    HW145399   0.528   7.309   1.846  0.0858 -0.6031  0.3365
14852SOL    HW245400   0.511   7.183   1.928  0.4496  0.3745  1.9784
14853SOL     OW45401   5.813   0.097   6.697 -0.4722 -0.3407  0.2485
14853SOL    HW145402   5.779   0.128   6.613 -2.1339  1.0590  1.3725
14853SOL    HW245403   5.739   0.052   6.737  0.6938 -2.1657  0.4557
14854SOL     OW45404   4.161   2.596   2.539 -0.0081  0.1963 -0.5747
14854SOL    HW145405   4.112   2.522   2.573  0.4810 -0.7303 -1.7952
14854SOL    HW245406   4.164   2.659   2.611 -0.9708 -0.7046  0.2744
14855SOL     OW45407   5.410   3.384   3.255  0.1785 -0.2949  0.2712
14855SOL    HW145408   5.363   3.466   3.270 -0.1014 -0.6456  1.4499
14855SOL    HW245409   5.379   3.326   3.324 -0.9525 -1.9980 -1.5724
14856SOL     OW45410   0.536   3.285   4.135 -0.2906 -0.3870 -0.5816
14856SOL    HW145411   0.622   3.325   4.149 -0.1482 -1.0705  0.5821
14856SOL    HW245412   0.554   3.203   4.089 -0.3912 -0.2208 -0.9265
14857SOL     OW45413   6.864   6.894   3.258 -0.2656  0.2256 -0.2838
14857SOL    HW145414   6.770   6.893   3.275 -0.1102  1.2301  0.8339
14857SOL    HW245415   6.895   6.973   3.304  1.5438 -1.5515  1.7840
14858SOL     OW45416   1.646   7.417   4.381 -0.4561  0.2035  0.2582
14858SOL    HW145417   1.718   7.479   4.374 -0.0978 -0.2085  0.2225
14858SOL    HW245418   1.632   7.386   4.291  0.7922 -1.3379  0.5352
14859SOL     OW45419   6.460   6.495   0.290 -0.0407 -0.1308  0.4745
14859SOL    HW145420   6.406   6.547   0.231  0.5359 -0.1558 -0.0818
14859SOL    HW245421   6.429   6.406   0.279  1.4402 -0.4708 -1.3897
14860SOL     OW45422   2.408   1.106   1.882  0.2442  0.4932 -0.9514
14860SOL    HW145423   2.335   1.067   1.835 -0.1913 -1.1649  0.9581
14860SOL    HW245424   2.476   1.039   1.882  0.1134  0.3040  0.9435
14861SOL     OW45425   1.790   7.184   1.726 -0.2667  0.2787 -0.4059
14861SOL    HW145426   1.870   7.166   1.677  0.4086 -1.6611  1.2697
14861SOL    HW245427   1.814   7.254   1.787 -0.0146  0.1418 -0.3468
14862SOL     OW45428   1.531   4.461   6.502 -0.1491  0.0546 -0.4204
14862SOL    HW145429   1.578   4.423   6.428 -0.0920 -0.4023 -0.1508
14862SOL    HW245430   1.516   4.552   6.477  2.0658  0.6064  0.0361
14863SOL     OW45431   1.900   0.350   8.110  0.0459 -0.7961  0.4956
14863SOL    HW145432   1.911   0.444   8.101 -2.4585 -0.5960 -1.4054
14863SOL    HW245433   1.923   0.331   8.201  2.4803  1.2813  0.4081
14864SOL     OW45434   2.465   2.685   7.846  0.2900 -0.0887 -0.2293
14864SOL    HW145435   2.509   2.609   7.809  0.3941  1.0853 -2.6997
14864SOL    HW245436   2.485   2.757   7.786  0.4762  2.0262  2.1580
14865SOL     OW45437   3.619   0.940   3.004  0.2956  0.4318  0.5117
14865SOL    HW145438   3.646   0.879   2.936 -1.5690 -1.9798  1.7517
14865SOL    HW245439   3.586   0.884   3.074 -1.1712  2.8813  1.9226
14866SOL     OW45440   4.869   7.821   0.981  0.3164  0.2418 -0.4815
14866SOL    HW145441   4.959   7.833   1.008  0.1576  1.1051 -0.2915
14866SOL    HW245442   4.836   7.910   0.968 -0.2551 -0.0856 -1.3718
14867SOL     OW45443   2.153   3.808   0.862 -0.2932  0.2677  0.0644
14867SOL    HW145444   2.103   3.795   0.942  0.2525 -0.4836  0.2971
14867SOL    HW245445   2.157   3.721   0.822  1.6699  0.0930  0.5655
14868SOL     OW45446   1.219   0.725   3.831  0.2542 -0.0851 -0.1485
14868SOL    HW145447   1.268   0.786   3.775 -0.5434  0.3179 -0.4259
14868SOL    HW245448   1.139   0.773   3.853 -0.0255 -0.7427  0.2779
14869SOL     OW45449   4.739   4.464   4.995 -0.5634  0.6185 -0.1649
14869SOL    HW145450   4.760   4.554   4.969 -0.8290  0.6111 -0.4103
14869SOL    HW245451   4.740   4.414   4.913  1.7029 -0.0383  0.2170
14870SOL     OW45452   0.859   4.663   4.702 -0.2346 -0.0095  0.4278
14870SOL    HW145453   0.894   4.578   4.730 -1.9246 -1.2719 -1.0503
14870SOL    HW245454   0.778   4.673   4.753 -0.6462  0.1466 -0.2518
14871SOL     OW45455   0.872   6.028   3.734 -0.0945  0.3784 -0.2136
14871SOL    HW145456   0.933   5.982   3.792  1.7852  2.0004 -0.7812
14871SOL    HW245457   0.828   6.092   3.791  1.1179  1.3746 -0.3478
14872SOL     OW45458   2.187   1.545   0.221  0.0862  0.0008 -0.3350
14872SOL    HW145459   2.149   1.630   0.196 -0.1232  0.0924  0.2933
14872SOL    HW245460   2.174   1.540   0.315  0.5511 -0.5117 -0.2983
14873SOL     OW45461   7.004   1.738   3.166 -0.9673 -0.0533  0.2833
14873SOL    HW145462   7.053   1.663   3.132  1.2671  1.4495 -0.0499
14873SOL    HW245463   7.004   1.725   3.261  0.2610 -0.0386  0.3105
14874SOL     OW45464   0.435   6.485   2.735 -0.0524  0.0662 -0.1354
14874SOL    HW145465   0.444   6.562   2.680 -0.0132 -0.8256 -1.4228
14874SOL    HW245466   0.345   6.456   2.723  0.2210 -0.6752 -0.5032
14875SOL     OW45467   0.405   2.279   1.193  0.4756  0.0268  0.1421
14875SOL    HW145468   0.372   2.326   1.116  1.6785 -0.8718 -0.9609
14875SOL    HW245469   0.401   2.343   1.264 -1.0267  0.7656 -0.5478
14876SOL     OW45470   5.799   0.834   3.926  0.1129  0.5248  0.0946
14876SOL    HW145471   5.776   0.914   3.878  1.1025 -0.6361 -2.5008
14876SOL    HW245472   5.715   0.796   3.952 -0.4669  1.1791 -0.7715
14877SOL     OW45473   5.998   6.004   5.560 -0.1088  0.3579 -0.9916
14877SOL    HW145474   5.940   6.051   5.499  0.2288  1.6125 -0.3713
14877SOL    HW245475   5.938   5.962   5.622 -0.3880  1.7153 -0.3062
14878SOL     OW45476   0.447   5.100   2.115  0.5174 -0.5561 -0.5476
14878SOL    HW145477   0.394   5.165   2.070  0.3212  0.9272  1.6340
14878SOL    HW245478   0.535   5.137   2.116  0.7145 -1.0165 -0.5613
14879SOL     OW45479   5.115   6.390   5.128  0.0730 -0.0661 -0.2869
14879SOL    HW145480   5.179   6.358   5.065  0.1073  1.2205 -0.9568
14879SOL    HW245481   5.126   6.486   5.126 -0.4142  0.0483  1.1563
14880SOL     OW45482   6.668   4.825   0.269  0.1585 -0.0328  0.3615
14880SOL    HW145483   6.764   4.825   0.269  0.1996 -1.1409 -0.9521
14880SOL    HW245484   6.644   4.904   0.222  0.3423  1.3209  2.4216
14881SOL     OW45485   1.995   3.727   1.063  0.5311 -0.1266  0.3460
14881SOL    HW145486   1.932   3.708   0.994  1.2985 -0.3382 -0.3008
14881SOL    HW245487   1.941   3.748   1.140 -0.3203 -0.4734 -0.1532
14882SOL     OW45488   2.366   5.127   2.621 -0.4007 -0.2319 -0.4101
14882SOL    HW145489   2.312   5.090   2.552 -0.5716 -1.5279  0.3690
14882SOL    HW245490   2.343   5.076   2.699  1.5913 -0.5337  0.0463
14883SOL     OW45491   2.246   1.794   7.553  0.1813  0.1777 -0.3311
14883SOL    HW145492   2.173   1.855   7.541  0.8592  0.8283 -1.2897
14883SOL    HW245493   2.319   1.849   7.583  0.9582 -0.0519 -1.7451
14884SOL     OW45494   2.380   6.403   7.019  0.3284  0.3226 -0.6456
14884SOL    HW145495   2.318   6.390   6.947  1.1738 -0.8637 -1.1979
14884SOL    HW245496   2.452   6.453   6.979  0.5743  0.0866 -0.4992
14885SOL     OW45497   3.162   4.470   3.800  0.3736  0.0635 -0.1285
14885SOL    HW145498   3.159   4.564   3.785 -1.3657  0.0257 -0.2350
14885SOL    HW245499   3.254   4.451   3.817  0.6943  1.8356  0.2760
14886SOL     OW45500   1.139   4.611   0.716  0.4281 -0.2271 -0.2316
14886SOL    HW145501   1.082   4.648   0.648  0.9186  1.1420  0.0727
14886SOL    HW245502   1.224   4.601   0.673  0.8216  0.9269  0.2194
14887SOL     OW45503   6.247   0.290   5.818  0.2538 -0.1222  0.0129
14887SOL    HW145504   6.269   0.380   5.842 -0.2496  0.3139 -1.1198
14887SOL    HW245505   6.211   0.296   5.730 -0.0568 -1.4014  0.0284
14888SOL     OW45506   7.883   7.778   8.098  0.2312 -0.3938  0.4630
14888SOL    HW145507   7.825   7.765   8.172 -0.4183  2.1419  0.4649
14888SOL    HW245508   7.947   7.842   8.128  1.4265 -1.1162 -0.4265
14889SOL     OW45509   4.821   3.769   3.628 -0.3557 -0.4261 -0.1782
14889SOL    HW145510   4.892   3.705   3.628  0.9828  1.0142 -0.3941
14889SOL    HW245511   4.753   3.729   3.574  0.6169 -1.4784 -0.6642
14890SOL     OW45512   7.989   2.190   6.105 -0.4298  0.9098  0.2049
14890SOL    HW145513   7.971   2.238   6.186  0.0385  2.0167 -0.3137
14890SOL    HW245514   8.047   2.249   6.055 -0.5834  0.1883 -0.8610
14891SOL     OW45515   7.817   6.128   1.971  0.2983  0.0364  0.0142
14891SOL    HW145516   7.819   6.223   1.978  0.5177 -0.0502  1.3742
14891SOL    HW245517   7.898   6.099   2.012  0.3803 -0.7367 -0.6582
14892SOL     OW45518   3.417   7.205   0.224 -0.3418 -0.0642  0.3084
14892SOL    HW145519   3.416   7.114   0.253  0.5410 -0.4485 -0.8081
14892SOL    HW245520   3.383   7.254   0.299 -1.8253 -1.3948  0.5444
14893SOL     OW45521   2.911   2.931   1.557  0.0572 -0.2375  0.4173
14893SOL    HW145522   2.840   2.981   1.597 -0.5561  0.0390 -0.9712
14893SOL    HW245523   2.946   2.989   1.490 -0.0502 -1.2993 -0.5945
14894SOL     OW45524   7.253   1.116   0.535 -0.2545  0.5380 -0.4959
14894SOL    HW145525   7.281   1.195   0.489  1.0608  0.6768  0.4660
14894SOL    HW245526   7.163   1.134   0.563 -0.4119  1.1723 -1.3821
14895SOL     OW45527   4.171   4.400   4.294 -0.5158  0.1182  0.1574
14895SOL    HW145528   4.160   4.367   4.205 -0.6823 -0.6909  0.4751
14895SOL    HW245529   4.112   4.475   4.300 -0.7688 -0.0465 -0.2985
14896SOL     OW45530   1.992   7.447   4.750  0.0661 -0.4617 -0.2480
14896SOL    HW145531   2.022   7.510   4.816 -2.4378 -1.1013  1.6852
14896SOL    HW245532   1.987   7.496   4.669  1.2677  0.9484  0.4956
14897SOL     OW45533   4.851   2.302   5.007  0.0253 -0.0456  0.2185
14897SOL    HW145534   4.886   2.215   5.029 -2.5468 -0.6082  2.6559
14897SOL    HW245535   4.870   2.356   5.084 -2.1844  0.2591  0.6295
14898SOL     OW45536   0.817   6.774   1.127 -0.0688 -0.0502  0.2647
14898SOL    HW145537   0.878   6.762   1.055 -0.6610  0.8114 -0.4017
14898SOL    HW245538   0.862   6.835   1.186 -0.3234  0.7179 -0.3072
14899SOL     OW45539   6.633   5.295   4.408  0.2622  0.0093  0.0361
14899SOL    HW145540   6.648   5.325   4.318 -0.7592  1.0142  0.1713
14899SOL    HW245541   6.708   5.327   4.457 -0.4494  1.8135  0.0317
14900SOL     OW45542   6.180   3.392   2.097  0.5755 -0.2504 -0.1720
14900SOL    HW145543   6.172   3.342   2.015  0.2884  0.0699 -0.3445
14900SOL    HW245544   6.269   3.427   2.095 -0.2062  1.8677 -1.6002
14901SOL     OW45545   3.926   3.595   3.705  0.1851 -0.3875 -0.0601
14901SOL    HW145546   4.003   3.561   3.750 -0.4882 -0.8848  0.7675
14901SOL    HW245547   3.940   3.689   3.702  1.0493 -0.5207 -0.3679
14902SOL     OW45548   6.346   8.028   2.725 -0.4357 -0.5250  0.1854
14902SOL    HW145549   6.261   7.983   2.731 -0.8982  0.3634  0.5309
14902SOL    HW245550   6.409   7.958   2.706 -1.3588 -1.0860 -0.9640
14903SOL     OW45551   5.246   4.618   1.491  0.5274 -0.3844 -0.4124
14903SOL    HW145552   5.183   4.606   1.420 -1.5181  1.3909  0.9517
14903SOL    HW245553   5.201   4.582   1.568  0.6058  1.9102  0.8115
14904SOL     OW45554   4.818   6.869   7.201 -0.4111 -0.3148 -0.0203
14904SOL    HW145555   4.797   6.780   7.229 -1.8254  0.0779  0.2023
14904SOL    HW245556   4.734   6.911   7.186  0.1970  1.2770  0.7645
14905SOL     OW45557   5.438   5.971   5.839 -0.3487  0.4787  0.3554
14905SOL    HW145558   5.403   5.895   5.793 -0.4162  0.2274  0.8199
14905SOL    HW245559   5.425   5.952   5.932  0.5281  0.6206  0.5207
14906SOL     OW45560   2.448   2.933   3.387  0.9621 -0.2532 -0.0726
14906SOL    HW145561   2.521   2.932   3.449  0.3918 -1.4979  0.6258
14906SOL    HW245562   2.373   2.960   3.439  0.6999 -0.1434 -0.5072
14907SOL     OW45563   7.919   0.410   7.673  0.1065 -0.1462 -0.1973
14907SOL    HW145564   7.950   0.358   7.599  0.6403  0.0089 -0.0850
14907SOL    HW245565   7.824   0.402   7.669  0.1154  0.0305 -1.0225
14908SOL     OW45566   2.138   5.892   3.113  0.8210 -0.4057 -0.3355
14908SOL    HW145567   2.191   5.833   3.167  0.3165 -0.9574 -0.4350
14908SOL    HW245568   2.067   5.837   3.081  0.1703  0.3322 -0.1792
14909SOL     OW45569   1.096   1.428   2.858  0.3452 -0.2646 -0.3365
14909SOL    HW145570   1.061   1.357   2.805  0.5205  0.2871 -1.2003
14909SOL    HW245571   1.125   1.494   2.795 -0.4817  0.8961  0.4604
14910SOL     OW45572   4.438   4.869   0.932 -0.3996 -0.2637  0.2410
14910SOL    HW145573   4.382   4.817   0.990 -0.7478  0.3177  0.4255
14910SOL    HW245574   4.433   4.958   0.966  0.2442 -0.1134 -0.0407
14911SOL     OW45575   1.150   7.307   5.979  0.2755  0.3860 -0.0684
14911SOL    HW145576   1.244   7.323   5.986  0.3890  0.3341 -1.1824
14911SOL    HW245577   1.118   7.379   5.924 -0.4218  0.6684  0.6895
14912SOL     OW45578   3.871   1.032   0.311  0.0683 -0.6411 -0.9507
14912SOL    HW145579   3.803   0.988   0.361  0.2784  0.7011  0.5784
14912SOL    HW245580   3.824   1.094   0.255 -0.0663 -0.9977 -1.2351
14913SOL     OW45581   0.643   0.965   3.226  0.6102  1.2653 -0.5825
14913SOL    HW145582   0.611   0.934   3.141  0.0880 -0.4651  0.2059
14913SOL    HW245583   0.588   1.041   3.246 -2.0704 -0.6998  0.0057
14914SOL     OW45584   2.243   6.307   3.485 -0.1585  0.0394 -0.4785
14914SOL    HW145585   2.294   6.269   3.556 -0.6120  0.2092 -0.0553
14914SOL    HW245586   2.286   6.277   3.405 -1.0096 -2.1214 -0.1844
14915SOL     OW45587   6.266   6.848   7.183  0.1023 -0.0922  0.7589
14915SOL    HW145588   6.243   6.787   7.113 -2.8142 -0.6918  2.0723
14915SOL    HW245589   6.346   6.812   7.221  0.7952 -0.6815 -1.1255
14916SOL     OW45590   7.233   0.522   6.932 -0.3366  0.5293 -0.3310
14916SOL    HW145591   7.227   0.554   6.842 -2.0268 -1.7737 -1.1487
14916SOL    HW245592   7.275   0.437   6.924  0.2341  0.6418  1.1899
14917SOL     OW45593   7.097   3.828   4.350 -0.2300  0.5295  0.3104
14917SOL    HW145594   7.065   3.741   4.373 -2.0488  1.2606  0.7230
14917SOL    HW245595   7.028   3.865   4.295  0.6673  1.6055 -0.1427
14918SOL     OW45596   4.117   6.426   1.351  0.0782 -0.1987  0.0493
14918SOL    HW145597   4.058   6.419   1.426  0.4896  2.9633  0.8254
14918SOL    HW245598   4.183   6.359   1.365  0.4252  0.6173  2.8556
14919SOL     OW45599   0.096   0.768   0.686 -0.5714  0.2970  0.0197
14919SOL    HW145600   0.101   0.756   0.781 -1.7990 -0.0598  0.0585
14919SOL    HW245601   0.129   0.686   0.650  1.1671  0.9304  0.0937
14920SOL     OW45602   5.673   6.181   5.110  0.5613  0.2328  0.1364
14920SOL    HW145603   5.690   6.154   5.200  2.6118 -2.9194 -1.0375
14920SOL    HW245604   5.733   6.255   5.096  1.4424 -0.3169  0.8805
14921SOL     OW45605   4.554   7.064   6.092 -0.1395  0.1487 -0.6183
14921SOL    HW145606   4.632   7.119   6.090 -0.8418  1.3950  2.0388
14921SOL    HW245607   4.560   7.012   6.012  2.4214  1.5141 -1.4424
14922SOL     OW45608   2.643   6.731   1.952 -0.1336 -0.3457  0.2052
14922SOL    HW145609   2.687   6.791   2.013 -1.2257 -0.0910  0.7612
14922SOL    HW245610   2.715   6.682   1.911  0.7496  1.0262  0.0652
14923SOL     OW45611   2.848   7.396   2.352  0.7916 -0.6012  0.8088
14923SOL    HW145612   2.938   7.428   2.358  0.1682  1.1381  1.3064
14923SOL    HW245613   2.795   7.474   2.339 -0.7043 -1.5622  0.8837
14924SOL     OW45614   5.332   3.077   6.313 -0.0676  0.8161 -0.0968
14924SOL    HW145615   5.350   3.170   6.325  4.1706  0.1033  0.4732
14924SOL    HW245616   5.327   3.042   6.402  1.1196  0.1426 -0.2698
14925SOL     OW45617   5.415   6.839   6.349  0.1098  0.5197 -0.2197
14925SOL    HW145618   5.375   6.824   6.435  0.3920 -1.1391 -0.3541
14925SOL    HW245619   5.506   6.861   6.369  0.4110 -0.7411 -0.0910
14926SOL     OW45620   5.340   0.552   2.249  0.3798  0.1953  0.4045
14926SOL    HW145621   5.347   0.615   2.320  2.1393  0.1851  0.2976
14926SOL    HW245622   5.268   0.494   2.274 -0.7213  1.7215  0.9032
14927SOL     OW45623   6.206   1.426   7.880 -0.1273  0.1551 -0.0468
14927SOL    HW145624   6.177   1.514   7.855 -3.0731 -0.5497  0.5185
14927SOL    HW245625   6.137   1.368   7.848  1.0248 -1.8205  0.8598
14928SOL     OW45626   1.157   5.716   0.717  0.1461 -0.3975  0.1926
14928SOL    HW145627   1.150   5.775   0.643  2.3482 -1.1262 -0.6682
14928SOL    HW245628   1.076   5.666   0.716 -0.5878  0.7693 -0.6755
14929SOL     OW45629   2.923   2.846   1.038  0.2638 -0.6436 -1.1461
14929SOL    HW145630   2.857   2.823   1.104  0.5948 -0.7973 -0.8681
14929SOL    HW245631   2.923   2.773   0.977  2.3123 -2.1148  0.4918
14930SOL     OW45632   4.535   1.268   2.591  0.1175 -0.3121  0.3114
14930SOL    HW145633   4.487   1.186   2.600  0.6376 -0.4932  1.5931
14930SOL    HW245634   4.581   1.279   2.674  0.9437  0.7182 -0.2518
14931SOL     OW45635   4.749   6.320   5.480 -0.2147 -0.2239  0.1134
14931SOL    HW145636   4.807   6.347   5.409  0.3852  0.6481  0.9145
14931SOL    HW245637   4.674   6.281   5.435  0.1469  0.2981 -0.9981
14932SOL     OW45638   1.202   3.207   7.150 -0.0074 -0.0627 -0.2541
14932SOL    HW145639   1.222   3.131   7.205  1.8395  0.9569  0.5918
14932SOL    HW245640   1.149   3.264   7.206 -0.8951 -0.4427 -0.6884
14933SOL     OW45641   4.528   1.220   6.339  0.1518  0.1229  0.0925
14933SOL    HW145642   4.551   1.304   6.299 -0.9379  1.5035  2.2055
14933SOL    HW245643   4.601   1.200   6.398 -0.1294  0.1744  0.4587
14934SOL     OW45644   3.996   4.074   5.026 -0.0889 -0.0439 -0.1536
14934SOL    HW145645   3.981   4.113   5.113  2.6041  2.3188 -0.6025
14934SOL    HW245646   3.981   4.146   4.965  0.3425 -1.0354 -1.4812
14935SOL     OW45647   0.422   6.141   8.113  0.1794  0.3433  0.9279
14935SOL    HW145648   0.352   6.094   8.160 -0.4905 -1.7544 -1.9122
14935SOL    HW245649   0.377   6.210   8.065  0.6060  1.2585  1.8016
14936SOL     OW45650   0.699   2.005   6.202  0.2712 -0.1909  0.0199
14936SOL    HW145651   0.607   2.028   6.186 -0.2100  0.0134  2.6229
14936SOL    HW245652   0.701   1.910   6.201 -0.8552 -0.4094  3.4505
14937SOL     OW45653   3.171   4.897   7.974  0.1962  0.2103 -0.0447
14937SOL    HW145654   3.169   4.802   7.960  1.6762  0.2138 -0.5493
14937SOL    HW245655   3.240   4.928   7.915 -1.5901  1.8936 -1.3890
14938SOL     OW45656   6.943   3.516   0.950  0.1222  0.1788 -0.6490
14938SOL    HW145657   6.942   3.447   1.016  0.7055  0.3303 -0.4711
14938SOL    HW245658   6.944   3.470   0.867  0.9484 -0.0535 -0.5269
14939SOL     OW45659   4.869   0.493   1.426 -0.0963 -0.2982 -0.1371
14939SOL    HW145660   4.955   0.465   1.394 -0.0443  0.7546 -0.9708
14939SOL    HW245661   4.890   0.553   1.499 -0.2037 -2.2057  1.5525
14940SOL     OW45662   7.347   6.941   0.009  0.6859  0.2998  0.2487
14940SOL    HW145663   7.390   6.901   0.084 -0.7379 -0.7182  0.5830
14940SOL    HW245664   7.342   6.871  -0.056  1.6961  1.1033 -0.7295
14941SOL     OW45665   6.664   5.451   2.641 -0.1944  0.1279  0.1023
14941SOL    HW145666   6.746   5.437   2.594 -0.1733  1.6536 -0.3833
14941SOL    HW245667   6.690   5.491   2.724 -0.4216  0.4293  0.0337
14942SOL     OW45668   2.706   7.163   2.074  0.5061 -0.4115 -0.1338
14942SOL    HW145669   2.667   7.239   2.031 -1.6059 -0.5382  1.4118
14942SOL    HW245670   2.637   7.097   2.072  1.4699 -1.4829  0.6844
14943SOL     OW45671   2.337   5.020   3.811  0.5292 -0.2517 -0.2963
14943SOL    HW145672   2.337   5.110   3.845  1.0214  0.0680 -1.1195
14943SOL    HW245673   2.369   5.029   3.722 -0.3985 -1.1184 -0.7352
14944SOL     OW45674   3.360   7.502   7.835 -0.1171 -0.3773  0.7727
14944SOL    HW145675   3.289   7.457   7.881  0.4419 -2.1765 -0.0110
14944SOL    HW245676   3.320   7.539   7.757 -0.1922 -1.6624  0.1647
14945SOL     OW45677   8.159   4.592   0.955  0.4635  0.4840 -0.0748
14945SOL    HW145678   8.245   4.632   0.961  1.1105 -0.7143 -1.0373
14945SOL    HW245679   8.172   4.501   0.984 -0.4087  0.2015 -0.5268
14946SOL     OW45680   0.148   3.867   0.043  0.8056  0.3454  0.6093
14946SOL    HW145681   0.108   3.794   0.089  2.6592 -0.9394  0.3005
14946SOL    HW245682   0.154   3.937   0.108  0.9514 -0.5160  1.5302
14947SOL     OW45683   3.828   6.446   0.801 -0.7285 -0.3332 -0.5032
14947SOL    HW145684   3.905   6.390   0.790 -0.1368  0.0006  1.3889
14947SOL    HW245685   3.826   6.500   0.722  0.0461 -1.4257 -1.3024
14948SOL     OW45686   5.758   6.195   5.534  0.3440 -0.5371  0.4086
14948SOL    HW145687   5.771   6.290   5.527  0.4230 -0.6144 -0.6403
14948SOL    HW245688   5.674   6.180   5.492  0.5337 -0.9886  0.1947
14949SOL     OW45689   6.198   0.643   2.945 -0.3746  0.3796  0.2041
14949SOL    HW145690   6.104   0.657   2.949 -0.8624 -1.0133 -3.0694
14949SOL    HW245691   6.220   0.605   3.030 -3.2172 -1.5091  0.2225
14950SOL     OW45692   3.182   3.773   4.166 -0.4528  0.0245  0.2608
14950SOL    HW145693   3.228   3.692   4.188  0.7453  0.3386 -0.9918
14950SOL    HW245694   3.092   3.745   4.150 -0.1909 -0.9639  0.4242
14951SOL     OW45695   6.206   4.715   6.210  0.0842  0.2097 -0.2577
14951SOL    HW145696   6.190   4.809   6.219  0.4620  0.2411  0.0735
14951SOL    HW245697   6.152   4.675   6.278  0.8668  0.2702  0.4054
14952SOL     OW45698   6.320   0.748   5.915 -0.1533 -0.3334  0.8027
14952SOL    HW145699   6.345   0.659   5.942 -0.6349 -0.5197  0.6507
14952SOL    HW245700   6.379   0.768   5.842  1.7266  0.4996  2.4567
14953SOL     OW45701   3.893   2.216   5.223  0.0132  0.2963  0.2218
14953SOL    HW145702   3.830   2.169   5.277 -1.1756  1.1546 -0.3592
14953SOL    HW245703   3.882   2.179   5.135  1.4049 -0.5821  0.3972
14954SOL     OW45704   7.366   7.101   4.239 -0.5180 -0.5581  0.2613
14954SOL    HW145705   7.396   7.185   4.203 -1.8768 -0.8276 -1.6524
14954SOL    HW245706   7.275   7.117   4.263 -1.0592 -1.6822 -0.9404
14955SOL     OW45707   4.954   0.161   3.691  0.2109  0.2382 -0.0369
14955SOL    HW145708   4.980   0.221   3.761  1.2928  0.9950 -1.0539
14955SOL    HW245709   5.034   0.146   3.641 -0.5887 -0.1030 -1.2566
14956SOL     OW45710   1.354   6.743   6.033  0.0899  0.3225 -0.0072
14956SOL    HW145711   1.353   6.770   6.125 -0.7631  1.2716 -0.2758
14956SOL    HW245712   1.289   6.799   5.991  0.9410  0.3717 -1.3273
14957SOL     OW45713   2.980   8.063   0.493 -0.3798 -0.2639 -0.3038
14957SOL    HW145714   3.013   7.980   0.459 -0.5339 -0.3090 -0.3405
14957SOL    HW245715   2.988   8.055   0.588 -2.2578 -1.1013 -0.1796
14958SOL     OW45716   3.342   0.896   7.087 -0.0088  0.4435  0.0376
14958SOL    HW145717   3.421   0.949   7.076 -0.2988  1.7898  3.1403
14958SOL    HW245718   3.270   0.957   7.075 -0.4705 -0.0279  0.3426
14959SOL     OW45719   2.478   2.702   0.960  0.1463  0.1167 -0.9182
14959SOL    HW145720   2.470   2.794   0.936 -1.1451 -0.1310 -1.5157
14959SOL    HW245721   2.549   2.700   1.025  0.9686  1.3528 -1.7435
14960SOL     OW45722   6.211   0.730   1.673  0.2445 -0.0070  0.4312
14960SOL    HW145723   6.251   0.803   1.720  0.0488  1.0569 -0.9855
14960SOL    HW245724   6.279   0.663   1.671  1.3588  1.0834 -0.3543
14961SOL     OW45725   3.649   5.630   6.788  0.0472  0.4224  0.4146
14961SOL    HW145726   3.560   5.611   6.815  0.5356 -1.2863  0.9290
14961SOL    HW245727   3.645   5.719   6.753 -1.4028  1.3007  2.5866
14962SOL     OW45728   7.914   4.539   2.880 -0.1207  0.9457  0.3370
14962SOL    HW145729   7.888   4.530   2.788  1.6482  0.2836 -0.1316
14962SOL    HW245730   7.966   4.619   2.883  1.4338 -0.0328  0.3473
14963SOL     OW45731   5.226   7.647   3.870 -0.1214  0.4903 -0.4621
14963SOL    HW145732   5.245   7.712   3.802  0.0966 -0.0116 -0.8907
14963SOL    HW245733   5.245   7.691   3.952  2.1304  0.2827 -0.8133
14964SOL     OW45734   1.056   4.475   3.578  0.4732 -0.0671  0.3876
14964SOL    HW145735   0.995   4.518   3.518 -0.9983 -0.9627  1.2073
14964SOL    HW245736   1.142   4.489   3.538 -0.4203 -0.3408 -1.7649
14965SOL     OW45737   3.397   0.386   5.924 -0.4536 -0.0867  0.6092
14965SOL    HW145738   3.424   0.345   6.007  1.0751  0.1988  0.2801
14965SOL    HW245739   3.396   0.479   5.943  1.7196  0.1400 -0.1346
14966SOL     OW45740   0.342   2.187   2.215 -0.4015 -0.4100  0.3318
14966SOL    HW145741   0.418   2.128   2.216 -0.6102 -0.7322 -0.9066
14966SOL    HW245742   0.350   2.238   2.296  0.5837 -1.1268  0.7083
14967SOL     OW45743   2.373   3.462   7.383  0.3183  0.1893 -0.2415
14967SOL    HW145744   2.388   3.472   7.477 -0.5045  1.0712 -0.1873
14967SOL    HW245745   2.391   3.369   7.366 -0.7337 -0.2893  1.0346
14968SOL     OW45746   0.716   3.665   2.755 -0.4163  0.0011  0.1253
14968SOL    HW145747   0.759   3.590   2.714 -1.7339 -1.0885  0.6515
14968SOL    HW245748   0.715   3.644   2.848 -1.2755  0.4013  0.2223
14969SOL     OW45749   7.216   3.766   1.659  0.3305  0.2628  0.1399
14969SOL    HW145750   7.255   3.814   1.732 -0.2824  0.3040  0.4493
14969SOL    HW245751   7.274   3.692   1.645  0.2273  0.0249  0.9466
14970SOL     OW45752   1.075   0.948   1.833  0.2429 -0.4688  0.0022
14970SOL    HW145753   1.076   0.895   1.912  0.0317 -0.5793 -0.0672
14970SOL    HW245754   1.039   0.889   1.765  2.1447 -0.9860 -0.6066
14971SOL     OW45755   6.244   7.133   2.872 -0.2712 -0.2545  0.0022
14971SOL    HW145756   6.254   7.086   2.790 -0.4419 -1.8672  0.8542
14971SOL    HW245757   6.263   7.067   2.940 -1.5123  0.6371  1.2797
14972SOL     OW45758   3.254   8.081   2.634  0.4198  0.3533  0.0139
14972SOL    HW145759   3.159   8.081   2.622  0.3941 -1.5290 -0.0531
14972SOL    HW245760   3.286   8.018   2.569  1.7811  1.3680 -0.3421
14973SOL     OW45761   0.112   4.370   4.431 -0.2818 -0.2015 -0.0917
14973SOL    HW145762   0.193   4.334   4.395 -0.4878 -2.6041  1.6129
14973SOL    HW245763   0.142   4.436   4.493  0.5230 -1.9004  1.4200
14974SOL     OW45764   6.543   3.697   4.893 -0.2199  0.4554  0.3118
14974SOL    HW145765   6.611   3.727   4.953  1.0475  1.4471 -1.5248
14974SOL    HW245766   6.540   3.602   4.906  0.0623  0.6329  1.8512
14975SOL     OW45767   4.615   0.495   4.447  0.0776  0.0030  0.3067
14975SOL    HW145768   4.664   0.499   4.365 -1.7274  1.0750 -0.8002
14975SOL    HW245769   4.665   0.550   4.507 -0.0603  1.6322 -0.9862
14976SOL     OW45770   4.925   0.115   6.443  0.1250 -0.0524  0.1397
14976SOL    HW145771   4.975   0.039   6.472 -0.4093 -0.4168  0.1227
14976SOL    HW245772   4.838   0.081   6.425 -0.3833  0.7285  1.0007
14977SOL     OW45773   2.311   0.412   2.491 -0.0309  0.3131  0.1198
14977SOL    HW145774   2.315   0.473   2.418  0.1456  0.5119  0.2923
14977SOL    HW245775   2.399   0.414   2.528 -0.4677  1.2659  1.1798
14978SOL     OW45776   5.750   2.813   0.765  0.1624 -0.8608  0.2279
14978SOL    HW145777   5.698   2.743   0.806 -0.1826 -0.6820  0.0950
14978SOL    HW245778   5.820   2.830   0.828 -1.6667  1.0485  1.8916
14979SOL     OW45779   8.051   1.632   3.346  0.5287 -0.0517  0.0566
14979SOL    HW145780   8.069   1.610   3.255  0.0627  0.9848 -0.3021
14979SOL    HW245781   7.969   1.587   3.366 -1.2183  2.3875 -1.1285
14980SOL     OW45782   0.023   1.883   4.708  0.1064 -0.8667 -0.4306
14980SOL    HW145783   0.023   1.949   4.639 -0.1181 -2.5267 -2.1198
14980SOL    HW245784  -0.068   1.878   4.738  0.2357 -0.0254  0.1492
14981SOL     OW45785   8.180   0.079   1.846  0.2620 -0.0099 -0.0610
14981SOL    HW145786   8.184  -0.002   1.897  1.5339  0.0039 -0.0984
14981SOL    HW245787   8.204   0.147   1.908 -0.1706  0.2647 -0.1899
14982SOL     OW45788   4.356   1.788   8.036 -0.0228  0.0923 -0.1439
14982SOL    HW145789   4.323   1.775   7.947 -0.2612  1.0950 -0.2118
14982SOL    HW245790   4.443   1.749   8.035 -0.3626 -0.6812 -0.5625
14983SOL     OW45791   6.701   5.406   0.643  0.0127  0.7393  0.1163
14983SOL    HW145792   6.640   5.445   0.581 -0.1888  0.4184  0.1135
14983SOL    HW245793   6.777   5.382   0.590  0.0591  0.9472  0.0854
14984SOL     OW45794   6.528   1.490   4.773 -0.5671  0.0754 -0.0235
14984SOL    HW145795   6.478   1.546   4.713 -0.0409 -0.4755 -1.0095
14984SOL    HW245796   6.570   1.426   4.716 -0.8830 -1.1214  1.0506
14985SOL     OW45797   6.116   4.102   4.605 -0.3512  0.0777  0.6954
14985SOL    HW145798   6.036   4.108   4.552 -1.1545  0.8978  1.9611
14985SOL    HW245799   6.085   4.093   4.695  0.9954 -0.7867  1.1140
14986SOL     OW45800   0.659   1.310   2.068  0.2200 -0.7951 -0.6194
14986SOL    HW145801   0.621   1.353   2.145  0.0635  1.2367 -1.7666
14986SOL    HW245802   0.632   1.218   2.076  0.4157 -0.7204  1.8522
14987SOL     OW45803   5.880   1.508   4.639 -0.5301  0.4476 -0.1995
14987SOL    HW145804   5.872   1.446   4.711 -1.2302  1.4491  0.6080
14987SOL    HW245805   5.888   1.593   4.682 -2.6098  1.2522 -1.2970
14988SOL     OW45806   3.050   2.614   3.476 -0.0619 -0.1649  0.3993
14988SOL    HW145807   3.062   2.679   3.406  0.4373 -1.0019 -0.3144
14988SOL    HW245808   3.022   2.666   3.552 -0.3689  0.7947 -0.3439
14989SOL     OW45809   3.798   4.005   0.089  0.0294  0.0547  0.2496
14989SOL    HW145810   3.857   4.021   0.162  2.2287 -1.0311 -1.1809
14989SOL    HW245811   3.788   3.910   0.085 -0.0326  0.0870 -0.8630
14990SOL     OW45812   3.764   7.769   7.585  0.0058 -0.1940 -0.1333
14990SOL    HW145813   3.684   7.721   7.607 -1.3578  0.6844 -2.7795
14990SOL    HW245814   3.799   7.725   7.508  0.4558  1.1825 -0.7474
14991SOL     OW45815   4.790   7.091   4.162  0.1821  0.3374  0.4023
14991SOL    HW145816   4.700   7.061   4.148  0.5388 -0.1323 -1.1543
14991SOL    HW245817   4.818   7.047   4.242 -0.2065 -1.3919 -0.3709
14992SOL     OW45818   2.711   0.593   5.098 -0.2821 -0.3469  0.6091
14992SOL    HW145819   2.737   0.602   5.006  0.8997  0.5726  1.0029
14992SOL    HW245820   2.791   0.613   5.148 -1.3590  1.0221  1.8643
14993SOL     OW45821   5.492   6.372   0.892 -0.7349 -0.1725  0.3601
14993SOL    HW145822   5.532   6.374   0.979 -0.3570 -0.3092  0.1901
14993SOL    HW245823   5.445   6.289   0.890  1.4734 -1.4950 -0.5361
14994SOL     OW45824   0.748   7.596   0.630  0.1883 -0.2007  0.1200
14994SOL    HW145825   0.715   7.556   0.710 -2.4674 -1.7906 -1.6271
14994SOL    HW245826   0.671   7.634   0.588  1.7730  2.1113 -0.9397
14995SOL     OW45827   8.029   1.605   0.424  0.1719 -0.4442  0.7334
14995SOL    HW145828   8.047   1.698   0.434 -2.5919  0.3894 -1.0837
14995SOL    HW245829   8.078   1.579   0.347 -0.6590  0.0535  0.0193
14996SOL     OW45830   5.791   5.478   7.553 -0.5744 -0.0924  0.0951
14996SOL    HW145831   5.791   5.400   7.498 -0.9653 -0.5364  0.7049
14996SOL    HW245832   5.802   5.445   7.642 -0.6354  0.5553  0.3512
14997SOL     OW45833   7.098   6.758   6.817 -0.0096 -0.3972  0.2129
14997SOL    HW145834   7.014   6.714   6.800  0.2502 -0.8406  0.0846
14997SOL    HW245835   7.073   6.848   6.839 -0.4082  0.1085 -2.0483
14998SOL     OW45836   3.089   1.882   5.384  0.6964 -0.5645  0.5930
14998SOL    HW145837   3.116   1.969   5.413 -0.3653  0.3336 -0.9508
14998SOL    HW245838   3.142   1.822   5.436  2.0715  1.0080  1.1069
14999SOL     OW45839   4.965   4.610   0.884 -0.6191 -0.2441  0.2956
14999SOL    HW145840   4.960   4.635   0.976  0.2645  0.1103  0.2597
14999SOL    HW245841   4.899   4.542   0.874 -1.1429  0.1396  1.0466
15000SOL     OW45842   0.085   4.540   5.976 -0.5744  0.1536 -0.0006
15000SOL    HW145843   0.172   4.520   5.942 -1.1588 -0.3917 -1.2600
15000SOL    HW245844   0.059   4.621   5.932  0.3270  1.8576  2.3837
15001SOL     OW45845   8.161   0.212   4.097 -0.2965  0.2804 -0.4180
15001SOL    HW145846   8.146   0.148   4.028 -0.6002  0.6588 -0.7053
15001SOL    HW245847   8.235   0.265   4.066 -0.7185  0.7340 -0.6605
15002SOL     OW45848   5.911   7.462   2.937  0.2716  0.3380  0.7448
15002SOL    HW145849   5.974   7.400   2.974  0.0501 -0.7751 -0.6362
15002SOL    HW245850   5.838   7.463   3.000  1.0111  0.4801  1.6070
15003SOL     OW45851   2.891   5.641   6.287  0.1821  0.6997  0.1530
15003SOL    HW145852   2.844   5.613   6.208  0.2472  0.3620  0.2351
15003SOL    HW245853   2.960   5.698   6.254  1.3314 -0.8499 -0.2090
15004SOL     OW45854   5.501   6.127   5.510 -0.6199 -0.1005 -0.5290
15004SOL    HW145855   5.458   6.193   5.564 -2.0385  0.7670 -2.5554
15004SOL    HW245856   5.428   6.072   5.478  0.3109 -1.3851 -0.5190
15005SOL     OW45857   4.493   7.196   0.660 -0.5142 -0.3471  0.0598
15005SOL    HW145858   4.542   7.180   0.579 -2.3247 -0.0108 -1.1832
15005SOL    HW245859   4.453   7.111   0.681 -0.4090 -0.3271  0.3427
15006SOL     OW45860   3.338   5.224   0.870  0.0377  0.3264  0.1358
15006SOL    HW145861   3.373   5.135   0.868  0.3548  0.4534 -1.0694
15006SOL    HW245862   3.312   5.241   0.779  0.7355  1.7463  0.1745
15007SOL     OW45863   6.320   0.007   4.503  0.0037  0.4811  1.1024
15007SOL    HW145864   6.236  -0.011   4.461 -0.4691  1.9388  1.3435
15007SOL    HW245865   6.311  -0.027   4.592  0.0907 -0.3583  0.8010
15008SOL     OW45866   0.023   4.971   3.159  0.2475 -0.3037 -0.2623
15008SOL    HW145867   0.036   5.062   3.184 -4.5039  0.8583 -1.1479
15008SOL    HW245868   0.052   4.967   3.068  3.4342 -0.6960  0.6288
15009SOL     OW45869   8.097   2.926   5.426 -0.5404  0.6122 -0.0378
15009SOL    HW145870   8.125   2.857   5.366 -0.3766 -0.7495  1.5375
15009SOL    HW245871   8.065   2.995   5.369  0.3880 -0.2716 -1.7147
15010SOL     OW45872   7.401   2.461   1.544  0.1629 -0.7894  0.1368
15010SOL    HW145873   7.387   2.446   1.638  1.9146  1.4083  0.8121
15010SOL    HW245874   7.322   2.507   1.515  0.6632  0.7860  1.1585
15011SOL     OW45875   1.137   4.416   4.182  0.4181 -0.1156 -0.4867
15011SOL    HW145876   1.185   4.453   4.107  0.4431  0.5787 -0.1370
15011SOL    HW245877   1.152   4.478   4.253  1.1527 -1.2227  0.3666
15012SOL     OW45878   6.671   7.889   0.788  0.1572 -0.3344  0.0236
15012SOL    HW145879   6.687   7.893   0.693 -1.1857 -0.6569 -0.2328
15012SOL    HW245880   6.756   7.865   0.825  0.8156  0.2129 -1.0521
15013SOL     OW45881   3.003   6.640   7.808  0.1214  0.1339  0.2678
15013SOL    HW145882   3.082   6.682   7.841  0.6619 -0.1848 -0.5768
15013SOL    HW245883   2.934   6.667   7.868  0.6779  1.2683  0.4129
15014SOL     OW45884   5.913   3.638   0.573 -0.1075  0.2695  0.1450
15014SOL    HW145885   5.943   3.723   0.542  3.3942 -1.0317 -0.5487
15014SOL    HW245886   5.953   3.629   0.659  0.9663 -1.2517 -0.4672
15015SOL     OW45887   5.677   4.832   2.060 -0.4329 -0.1755  0.7435
15015SOL    HW145888   5.743   4.902   2.061 -1.2069  0.5649  1.1151
15015SOL    HW245889   5.673   4.801   2.150 -0.7059 -0.1149  0.7524
15016SOL     OW45890   5.328   4.166   7.241  0.1110  0.0204 -0.4806
15016SOL    HW145891   5.276   4.218   7.303 -0.2996 -1.3325  0.3480
15016SOL    HW245892   5.365   4.231   7.181 -1.1626  1.1795 -0.0720
15017SOL     OW45893   2.241   0.208   4.955 -0.5538 -0.2835  0.2702
15017SOL    HW145894   2.172   0.270   4.979  0.6401  0.6561  1.3590
15017SOL    HW245895   2.307   0.216   5.023  0.4658 -1.4717 -0.5182
15018SOL     OW45896   3.515   5.885   3.469  0.7800 -0.2885  0.3027
15018SOL    HW145897   3.444   5.901   3.531  1.9624  1.0137  1.3996
15018SOL    HW245898   3.534   5.971   3.431 -0.1646 -1.1184 -2.2165
15019SOL     OW45899   4.822   4.826   4.688  0.3677  0.0207 -0.1099
15019SOL    HW145900   4.898   4.792   4.641  1.1354  1.2976  0.1493
15019SOL    HW245901   4.856   4.846   4.776 -0.9014 -1.7875  0.8500
15020SOL     OW45902   1.044   0.459   1.725  1.0099 -0.7173  0.6445
15020SOL    HW145903   1.002   0.377   1.702  0.3759 -0.3808  0.5855
15020SOL    HW245904   1.060   0.502   1.640 -0.3779  0.0543  0.7411
15021SOL     OW45905   6.105   4.762   2.570 -0.0069  0.2451 -0.0159
15021SOL    HW145906   6.150   4.681   2.544 -1.5067 -0.6145 -0.0560
15021SOL    HW245907   6.044   4.734   2.639 -1.7509  1.0024 -1.1991
15022SOL     OW45908   3.685   7.015   5.047  0.2251 -0.2149 -0.1729
15022SOL    HW145909   3.671   7.081   4.980 -0.6197 -0.5811 -0.3640
15022SOL    HW245910   3.741   7.058   5.112 -0.5481  0.7818 -0.1500
15023SOL     OW45911   1.243   2.950   2.268 -0.2340 -0.7395 -0.4013
15023SOL    HW145912   1.328   2.930   2.230 -0.1176  1.1326 -1.2483
15023SOL    HW245913   1.179   2.915   2.206 -0.0537 -0.6409 -0.6431
15024SOL     OW45914   5.083   2.877   5.314  0.2182  0.4419  0.0328
15024SOL    HW145915   5.172   2.844   5.298  0.1125  0.3580 -0.3975
15024SOL    HW245916   5.053   2.909   5.229 -0.5054 -0.3691 -0.0394
15025SOL     OW45917   0.891   1.170   5.505 -0.0239 -0.2041 -0.2123
15025SOL    HW145918   0.903   1.123   5.588  1.1995  0.3738 -0.0392
15025SOL    HW245919   0.829   1.239   5.524  0.6364  0.2401  0.3698
15026SOL     OW45920   1.431   1.828   3.195 -0.4013 -0.0538  0.6217
15026SOL    HW145921   1.368   1.793   3.133 -0.3879  0.2409  0.4384
15026SOL    HW245922   1.494   1.757   3.208  0.4322  0.3681 -0.8530
15027SOL     OW45923   2.648   5.566   1.466  0.3317 -0.2320  0.3971
15027SOL    HW145924   2.693   5.646   1.439  3.2779 -1.9132 -0.0635
15027SOL    HW245925   2.565   5.568   1.418  0.6289  2.1464 -0.1501
15028SOL     OW45926   3.842   8.036   8.061 -0.0646  0.4595  0.4087
15028SOL    HW145927   3.807   7.996   7.980 -0.6847  0.1923  0.7992
15028SOL    HW245928   3.768   8.086   8.096  0.3839  1.0628  0.5049
15029SOL     OW45929   6.735   6.256   6.166  0.8854  0.3801 -0.3125
15029SOL    HW145930   6.693   6.280   6.249 -1.1406  0.7620 -1.3748
15029SOL    HW245931   6.765   6.340   6.130  1.5792  0.2386 -0.0806
15030SOL     OW45932   7.254   4.703   6.031  0.5139  0.1824 -0.5766
15030SOL    HW145933   7.313   4.627   6.031  0.4544  0.1083  0.5473
15030SOL    HW245934   7.292   4.762   6.096 -0.1686  0.5223 -0.4798
15031SOL     OW45935   7.306   6.182   5.302 -0.0606 -0.2066 -0.5672
15031SOL    HW145936   7.239   6.156   5.365 -0.4961 -2.4469 -1.8573
15031SOL    HW245937   7.388   6.151   5.340 -0.0327  0.4286 -0.0928
15032SOL     OW45938   6.490   1.310   4.316  0.1461 -0.5077  0.0602
15032SOL    HW145939   6.434   1.380   4.284 -0.2255 -0.0995  1.5638
15032SOL    HW245940   6.431   1.236   4.328 -0.0153 -0.1934  1.2701
15033SOL     OW45941   3.402   0.368   0.328  0.2231  0.4075  0.1988
15033SOL    HW145942   3.376   0.321   0.408 -0.0111 -1.0155 -0.6693
15033SOL    HW245943   3.496   0.382   0.339  0.3551 -0.5239  0.3754
15034SOL     OW45944   1.610   4.884   2.522  0.9126  0.4964 -0.4779
15034SOL    HW145945   1.653   4.812   2.569 -0.4105 -0.0087 -0.0211
15034SOL    HW245946   1.524   4.892   2.562 -0.0917  0.3847 -2.4538
15035SOL     OW45947   5.081   1.084   4.292 -0.2710 -0.4161  0.5064
15035SOL    HW145948   5.160   1.032   4.282  0.2771  0.0256  2.1643
15035SOL    HW245949   5.072   1.132   4.210  1.0746 -0.6226  0.2295
15036SOL     OW45950   4.530   2.187   2.132  0.5820 -0.1856  0.0339
15036SOL    HW145951   4.542   2.102   2.176 -0.0040 -0.8994 -1.1268
15036SOL    HW245952   4.502   2.246   2.202  2.6184 -0.5060  1.1927
15037SOL     OW45953   7.561   7.110   3.301 -0.4747  0.3865  0.9408
15037SOL    HW145954   7.568   7.155   3.217 -1.1970  1.9169  1.6606
15037SOL    HW245955   7.577   7.178   3.367 -0.3594 -0.6797  2.0571
15038SOL     OW45956   4.215   1.780   5.678 -0.5564  0.0069  1.0185
15038SOL    HW145957   4.270   1.828   5.615 -1.2465 -1.3038 -0.6523
15038SOL    HW245958   4.278   1.741   5.738  0.2034  0.3337  0.4590
15039SOL     OW45959   0.757   7.914   1.048 -0.5080 -0.1326 -0.5133
15039SOL    HW145960   0.816   7.914   0.973  0.0268 -1.5643 -0.1340
15039SOL    HW245961   0.786   7.987   1.102  0.0947 -0.0405 -0.9498
15040SOL     OW45962   1.225   4.752   0.927  0.2672  0.0794 -0.4015
15040SOL    HW145963   1.235   4.699   1.005 -0.4434  1.9047  1.0114
15040SOL    HW245964   1.203   4.690   0.858  1.7920 -1.6842  0.6267
15041SOL     OW45965   2.212   1.745   2.444 -0.1201 -0.0212 -0.2403
15041SOL    HW145966   2.151   1.742   2.518  0.2745  0.2998  0.1038
15041SOL    HW245967   2.177   1.814   2.387  2.1994  3.3528  2.0347
15042SOL     OW45968   4.217   2.543   2.277  0.3006  0.2924  0.1448
15042SOL    HW145969   4.213   2.591   2.359  0.9015  0.5761  0.0122
15042SOL    HW245970   4.127   2.512   2.262  0.4428 -0.9257  1.5883
15043SOL     OW45971   2.790   2.855   7.774  0.2619  0.6850 -0.0610
15043SOL    HW145972   2.707   2.835   7.729 -1.3539  1.3284  2.4489
15043SOL    HW245973   2.828   2.769   7.791 -0.3770  0.3290 -0.3654
15044SOL     OW45974   4.951   5.765   0.822  0.7935 -0.0352 -0.3092
15044SOL    HW145975   4.882   5.732   0.879  0.2953 -0.2167 -1.0090
15044SOL    HW245976   4.997   5.831   0.875 -0.2973  0.5359 -0.0538
15045SOL     OW45977   7.311   4.496   7.241  0.1891 -0.2019  0.2417
15045SOL    HW145978   7.233   4.441   7.254  0.3059 -0.5939 -0.6983
15045SOL    HW245979   7.382   4.434   7.223  0.2596  0.2499 -1.1551
15046SOL     OW45980   1.552   7.660   1.951 -0.2669  0.3131  0.0110
15046SOL    HW145981   1.600   7.705   1.881 -0.2047  0.8502  0.3834
15046SOL    HW245982   1.474   7.625   1.909  0.7997 -1.2505 -0.7780
15047SOL     OW45983   4.740   5.658   1.005 -0.6892  0.6836 -0.0027
15047SOL    HW145984   4.671   5.710   0.965 -0.3460  0.9458 -0.2621
15047SOL    HW245985   4.802   5.722   1.039  0.4843  0.4731 -1.6220
15048SOL     OW45986   2.280   5.182   3.378 -0.8113 -0.0568 -0.2147
15048SOL    HW145987   2.206   5.244   3.383 -1.0620 -0.2191 -1.5326
15048SOL    HW245988   2.242   5.104   3.339 -0.1092 -0.4413 -0.1276
15049SOL     OW45989   4.889   2.132   7.961  0.0975 -0.2324  0.0312
15049SOL    HW145990   4.817   2.191   7.983  0.9283  0.6572  0.4145
15049SOL    HW245991   4.935   2.175   7.890  0.8897 -0.2663  0.5110
15050SOL     OW45992   3.751   2.926   3.572  0.0267 -0.4213 -0.2365
15050SOL    HW145993   3.807   2.968   3.638 -0.8673 -0.1419  0.3625
15050SOL    HW245994   3.811   2.871   3.521  0.6000 -1.5079  1.4961
15051SOL     OW45995   0.549   2.715   5.877 -0.4955 -0.8176 -0.0600
15051SOL    HW145996   0.456   2.713   5.901 -0.8998 -0.7610 -1.4742
15051SOL    HW245997   0.582   2.798   5.911 -1.0417 -0.7028  0.1976
15052SOL     OW45998   0.476   3.970   2.860  0.2664 -0.3058  0.0473
15052SOL    HW145999   0.506   3.942   2.773 -0.3936  0.2156 -0.3648
15052SOL    HW246000   0.472   4.066   2.854 -1.0567 -0.3274  0.1944
15053SOL     OW46001   4.386   3.698   5.103  0.2217 -0.1411 -0.3075
15053SOL    HW146002   4.424   3.689   5.016 -1.1489 -0.1086 -0.9288
15053SOL    HW246003   4.300   3.736   5.088 -1.0369 -2.3287  0.8108
15054SOL     OW46004   7.445   3.973   2.762 -0.3570 -0.3629 -0.0456
15054SOL    HW146005   7.362   4.010   2.732 -1.2105 -2.4344 -0.4493
15054SOL    HW246006   7.422   3.927   2.843  0.4552 -0.7262 -0.0157
15055SOL     OW46007   1.889   3.961   0.941  0.4357 -0.5488 -0.1839
15055SOL    HW146008   1.963   4.018   0.920  0.6560 -0.5226  0.6173
15055SOL    HW246009   1.860   3.927   0.856  0.5612  0.4247 -0.6259
15056SOL     OW46010   5.702   4.792   6.610 -0.2043  0.3904 -0.4372
15056SOL    HW146011   5.685   4.796   6.516  0.6873 -0.4346 -0.6558
15056SOL    HW246012   5.639   4.853   6.649 -0.7825  0.5189 -1.5364
15057SOL     OW46013   4.497   2.584   0.742 -0.1979  0.3288 -0.0041
15057SOL    HW146014   4.445   2.510   0.711  1.6770 -1.6182  1.2090
15057SOL    HW246015   4.582   2.573   0.699 -0.0109  2.0753 -0.1587
15058SOL     OW46016   8.007   0.029   8.177 -0.0543  0.0292  0.1207
15058SOL    HW146017   8.073   0.011   8.110 -0.3278 -1.9610  0.3441
15058SOL    HW246018   7.924   0.005   8.136 -0.2953 -0.5191  0.9061
15059SOL     OW46019   4.112   5.962   4.867 -0.4249 -0.4598  0.2475
15059SOL    HW146020   4.203   5.993   4.859 -0.8107  0.4224 -1.0638
15059SOL    HW246021   4.120   5.867   4.878  0.6418 -0.4726 -0.4890
15060SOL     OW46022   5.743   2.703   7.051 -0.3438  0.6982  0.0344
15060SOL    HW146023   5.754   2.783   7.001  0.2937  1.4805  1.3844
15060SOL    HW246024   5.756   2.729   7.142  1.3716 -1.1949  0.4028
15061SOL     OW46025   3.715   5.964   2.828  0.1301  0.0374 -0.2952
15061SOL    HW146026   3.749   6.039   2.780  0.9672 -0.0220  0.1983
15061SOL    HW246027   3.658   5.919   2.765  2.0040 -0.6181 -1.5809
15062SOL     OW46028   6.754   3.221   6.271 -0.2453 -0.4326 -0.0647
15062SOL    HW146029   6.782   3.215   6.180 -0.2115 -1.1489 -0.0144
15062SOL    HW246030   6.678   3.164   6.277  0.4736 -1.3688  0.6160
15063SOL     OW46031   2.493   6.855   2.901 -0.3625  0.5158 -0.6307
15063SOL    HW146032   2.542   6.773   2.900  0.2227  0.7221  2.3185
15063SOL    HW246033   2.542   6.913   2.842 -1.0333 -1.2642 -3.1267
15064SOL     OW46034   3.906   3.878   3.679  0.4140 -0.3410 -0.8885
15064SOL    HW146035   3.906   3.910   3.589 -0.7944  2.5996  0.0261
15064SOL    HW246036   3.813   3.875   3.703  0.7282  3.3473  1.5350
15065SOL     OW46037   7.400   4.804   2.194 -0.0770 -0.1691  0.2665
15065SOL    HW146038   7.440   4.869   2.138 -2.9034  0.0202 -1.7170
15065SOL    HW246039   7.362   4.854   2.266  0.2477  0.0341  0.2970
15066SOL     OW46040   5.869   7.917   7.001  0.0352 -0.7414 -0.9322
15066SOL    HW146041   5.863   7.894   6.908 -0.1050 -0.4229 -1.0048
15066SOL    HW246042   5.847   7.836   7.047  1.2412 -1.2145 -1.1621
15067SOL     OW46043   2.526   8.033   1.611 -0.1487 -0.1882  0.1858
15067SOL    HW146044   2.446   8.084   1.619 -0.0654 -0.2768  1.9384
15067SOL    HW246045   2.596   8.092   1.639  0.0917 -0.8527  1.0478
15068SOL     OW46046   2.437   0.988   4.498  0.0712 -0.3697 -0.1617
15068SOL    HW146047   2.378   1.012   4.569 -0.7466  0.0727 -0.9668
15068SOL    HW246048   2.474   1.071   4.467  1.8835 -0.7031  0.9358
15069SOL     OW46049   6.938   5.160   5.608  0.1499  0.1787 -0.4220
15069SOL    HW146050   6.996   5.227   5.571  0.3534  2.3229  3.2383
15069SOL    HW246051   6.995   5.110   5.667 -1.0429  0.1813  0.7686
15070SOL     OW46052   7.462   5.169   5.372 -0.1901  0.2658 -0.5374
15070SOL    HW146053   7.464   5.187   5.278 -1.0625  1.2628 -0.3732
15070SOL    HW246054   7.482   5.075   5.378 -0.3584  0.1350 -1.7315
15071SOL     OW46055   5.425   7.224   0.192 -0.2307 -0.0394 -0.3254
15071SOL    HW146056   5.358   7.156   0.183 -0.7952  0.5090 -0.4162
15071SOL    HW246057   5.507   7.180   0.172 -0.6499 -0.5644 -0.9519
15072SOL     OW46058   1.185   7.589   0.965 -0.5858 -0.6086 -0.1007
15072SOL    HW146059   1.108   7.573   1.020 -0.0757  1.4064  1.2785
15072SOL    HW246060   1.208   7.680   0.981  2.4551 -1.3028 -0.0019
15073SOL     OW46061   5.586   6.559   3.330  0.3617  0.2020 -0.1776
15073SOL    HW146062   5.624   6.473   3.310  0.6968 -0.2668  2.2107
15073SOL    HW246063   5.621   6.616   3.262  0.7708 -1.3738 -1.3666
15074SOL     OW46064   5.436   4.943   2.060  0.0402  0.0324  0.4105
15074SOL    HW146065   5.522   4.912   2.088 -0.2633 -1.4482 -0.2234
15074SOL    HW246066   5.454   5.011   1.996  0.7190  0.6348  1.2139
15075SOL     OW46067   7.178   0.099   7.387 -0.0450 -0.0792 -0.0819
15075SOL    HW146068   7.189   0.010   7.354 -0.5282  0.0606 -0.6288
15075SOL    HW246069   7.222   0.098   7.472  0.2519 -0.7437 -0.2351
15076SOL     OW46070   4.946   6.113   7.382  0.0854 -0.2924  0.1082
15076SOL    HW146071   4.903   6.029   7.372 -2.0331  0.4219  2.2800
15076SOL    HW246072   4.893   6.174   7.330 -1.3726  0.4893  2.3545
15077SOL     OW46073   8.036   1.889   2.867  0.0913  0.1339  0.2714
15077SOL    HW146074   7.970   1.916   2.803 -0.5192 -1.0157  0.3819
15077SOL    HW246075   8.120   1.906   2.824 -0.1342  3.8664  1.0284
15078SOL     OW46076   4.901   5.185   3.668  0.7368  0.5202  0.1518
15078SOL    HW146077   4.806   5.194   3.671  0.8772  2.1529  0.9228
15078SOL    HW246078   4.917   5.119   3.601 -0.8728  1.4288 -1.2046
15079SOL     OW46079   5.581   4.035   7.960  0.0127  0.3986  0.2992
15079SOL    HW146080   5.625   4.107   8.006 -1.3671  0.8495  0.9681
15079SOL    HW246081   5.594   4.054   7.867 -0.3184  1.5045  0.4711
15080SOL     OW46082   1.114   2.320   5.790  1.3454 -0.2594 -0.4058
15080SOL    HW146083   1.141   2.412   5.787 -1.2910  0.6185 -0.0722
15080SOL    HW246084   1.120   2.291   5.698  2.0864  0.2614 -0.5317
15081SOL     OW46085   4.712   1.435   7.473  0.6196  0.5974  0.4361
15081SOL    HW146086   4.796   1.447   7.517  1.5175  0.1947 -1.0955
15081SOL    HW246087   4.669   1.520   7.480  2.5155  1.8282 -1.4089
15082SOL     OW46088   4.911   4.504   6.055 -0.3654  0.0070 -0.3626
15082SOL    HW146089   4.861   4.423   6.063 -0.3302  0.0714  0.6445
15082SOL    HW246090   4.870   4.564   6.117  1.0475  0.0007  0.6276
15083SOL     OW46091   3.238   3.533   4.318 -0.0594 -0.1292 -0.2989
15083SOL    HW146092   3.228   3.587   4.396  1.4024 -0.6027  0.2571
15083SOL    HW246093   3.277   3.452   4.350 -0.7397 -0.8956 -1.3438
15084SOL     OW46094   2.360   5.970   3.827 -0.3211 -0.3882 -0.1446
15084SOL    HW146095   2.294   5.999   3.891  0.1181  2.2616 -0.7897
15084SOL    HW246096   2.443   6.003   3.861 -0.0493  0.8982 -1.9131
15085SOL     OW46097   1.407   5.592   1.687 -0.0932  0.0162 -0.0143
15085SOL    HW146098   1.356   5.514   1.708  0.0274 -0.4514 -1.3985
15085SOL    HW246099   1.497   5.561   1.678 -0.2647  0.0285 -2.0431
15086SOL     OW46100   6.991   7.174   1.365 -0.3998  0.8028  0.5268
15086SOL    HW146101   6.915   7.221   1.398 -1.0159 -0.2431  0.6536
15086SOL    HW246102   7.047   7.161   1.442  0.4140  2.4506  0.2495
15087SOL     OW46103   2.587   6.852   7.310  0.3671 -0.2386 -0.0581
15087SOL    HW146104   2.548   6.789   7.249  2.7926 -0.4714 -1.5221
15087SOL    HW246105   2.655   6.896   7.258  0.4651  1.7755  1.6601
15088SOL     OW46106   4.594   4.900   6.236  0.0431  1.0010  0.1656
15088SOL    HW146107   4.503   4.924   6.253 -0.9612 -3.2720  2.1661
15088SOL    HW246108   4.595   4.868   6.146 -0.5282  0.8066  0.2286
15089SOL     OW46109   6.514   2.868   2.232 -0.1014 -0.1991  0.3070
15089SOL    HW146110   6.545   2.886   2.321 -0.6146  1.3835  0.1908
15089SOL    HW246111   6.464   2.945   2.208  2.4306  0.7744 -2.4704
15090SOL     OW46112   3.268   7.869   7.480 -0.2458  0.1828 -0.3997
15090SOL    HW146113   3.278   7.898   7.389  0.5186 -0.8259 -0.6561
15090SOL    HW246114   3.252   7.950   7.529  0.3694  0.8688 -1.2911
15091SOL     OW46115   0.537   1.810   5.866  0.4469  0.1992  0.3026
15091SOL    HW146116   0.523   1.722   5.831 -0.1764  0.2639  0.3894
15091SOL    HW246117   0.573   1.795   5.953 -2.1116 -0.0336  1.4010
15092SOL     OW46118   0.464   6.643   1.347 -0.6357  0.9044  0.0683
15092SOL    HW146119   0.554   6.616   1.331 -0.7079 -0.0602  1.1793
15092SOL    HW246120   0.421   6.637   1.261 -0.0954 -0.3965 -0.1233
15093SOL     OW46121   6.869   6.791   1.975 -0.2128  0.4142 -0.5010
15093SOL    HW146122   6.878   6.839   2.058  2.2074  0.1958 -0.5486
15093SOL    HW246123   6.957   6.794   1.936 -0.9880 -0.5689 -2.4678
15094SOL     OW46124   6.455   4.131   3.422  0.3476 -0.3475  0.0748
15094SOL    HW146125   6.440   4.214   3.378  0.0697  0.5473  1.7570
15094SOL    HW246126   6.374   4.113   3.470  1.2957 -0.1872  1.8545
15095SOL     OW46127   3.048   0.337   7.160 -0.2495 -0.0272  0.2140
15095SOL    HW146128   3.096   0.353   7.079 -0.5511 -0.6550 -0.0939
15095SOL    HW246129   3.029   0.425   7.194  0.1389  0.2388 -0.2344
15096SOL     OW46130   1.192   6.886   3.312  0.5765 -0.0421  0.4672
15096SOL    HW146131   1.154   6.867   3.398  1.8793 -0.0032  1.0754
15096SOL    HW246132   1.189   6.802   3.266  0.0904 -0.1179  0.6318
15097SOL     OW46133   2.855   1.877   5.206  0.2416 -0.6278  0.4654
15097SOL    HW146134   2.940   1.866   5.249  0.4647  0.4841  0.3548
15097SOL    HW246135   2.876   1.926   5.126 -0.2986 -1.7747 -0.4046
15098SOL     OW46136   3.791   7.622   2.385  0.2347 -0.2028 -0.1317
15098SOL    HW146137   3.760   7.576   2.463 -1.4408 -0.4289 -0.8627
15098SOL    HW246138   3.799   7.713   2.411 -0.1511 -0.3064  0.3680
15099SOL     OW46139   5.879   3.266   4.816  0.3672 -0.2506 -0.5243
15099SOL    HW146140   5.853   3.356   4.834  1.9219  0.2527 -0.6104
15099SOL    HW246141   5.806   3.229   4.767 -1.2636  0.2611  1.3985
15100SOL     OW46142   3.760   1.598   2.084  0.5864  0.2697  0.1079
15100SOL    HW146143   3.802   1.555   2.009  0.4322  0.7442 -0.2566
15100SOL    HW246144   3.672   1.559   2.087  1.0482 -0.7595  0.9014
15101SOL     OW46145   2.257   1.098   3.961 -0.4680  0.0720  0.2044
15101SOL    HW146146   2.265   1.161   3.889 -0.1134 -0.0999  0.0900
15101SOL    HW246147   2.192   1.035   3.931 -2.4010  1.5250  1.1691
15102SOL     OW46148   3.627   0.485   0.687  0.0529 -0.5496 -0.1618
15102SOL    HW146149   3.577   0.552   0.735  2.3777  0.4072  1.1049
15102SOL    HW246150   3.581   0.403   0.706 -1.4428  0.3564  0.3105
15103SOL     OW46151   2.007   1.753   7.855  0.0716  0.2704 -0.2352
15103SOL    HW146152   2.082   1.810   7.838  1.5484 -1.7477 -0.9545
15103SOL    HW246153   2.023   1.719   7.943 -0.6590  0.7440  0.0874
15104SOL     OW46154   3.884   0.840   3.131 -0.5608 -0.0918 -0.2579
15104SOL    HW146155   3.803   0.860   3.084 -0.7478  0.0739  0.1272
15104SOL    HW246156   3.938   0.918   3.120 -0.9945  0.3513  0.6167
15105SOL     OW46157   4.295   7.036   4.753 -0.0025  0.6729  0.0694
15105SOL    HW146158   4.225   7.090   4.718  0.4793  0.8047 -0.7172
15105SOL    HW246159   4.250   6.960   4.790 -0.5253  0.4066 -1.0604
15106SOL     OW46160   4.602   1.528   2.913 -0.7410 -0.4257  0.0490
15106SOL    HW146161   4.546   1.539   2.836 -0.9822 -0.5565  0.2035
15106SOL    HW246162   4.629   1.618   2.936 -1.3326 -0.3091  0.2999
15107SOL     OW46163   2.109   5.894   5.388  0.0691  0.4122 -0.6139
15107SOL    HW146164   2.178   5.836   5.355 -1.4062 -1.7109 -0.1818
15107SOL    HW246165   2.155   5.959   5.440  1.8593 -0.0276 -1.5649
15108SOL     OW46166   8.040   5.779   2.115 -0.5349 -0.0454  0.5616
15108SOL    HW146167   8.037   5.802   2.022 -1.6672  1.5462  0.9565
15108SOL    HW246168   8.134   5.777   2.136 -0.2953  0.3328 -0.4235
15109SOL     OW46169   2.196   1.527   7.374 -0.0014 -0.1818  0.0883
15109SOL    HW146170   2.269   1.532   7.435  0.0468  0.2521 -0.0035
15109SOL    HW246171   2.165   1.436   7.381  0.1146 -0.1814  0.6188
15110SOL     OW46172   1.073   3.652   1.943  0.0987  0.3202 -0.0695
15110SOL    HW146173   1.057   3.646   1.849  0.2695 -0.7268 -0.0439
15110SOL    HW246174   1.110   3.739   1.955  0.2829  0.3831 -1.0097
15111SOL     OW46175   7.588   8.120   7.983  0.2839  0.1535  0.8402
15111SOL    HW146176   7.672   8.136   7.939 -0.1040  1.1492  0.4283
15111SOL    HW246177   7.603   8.145   8.074  0.6549 -0.4615  0.9589
15112SOL     OW46178   6.688   3.669   6.744 -0.0454  0.2731  0.1691
15112SOL    HW146179   6.743   3.718   6.804 -1.0813  1.2841  0.3242
15112SOL    HW246180   6.670   3.586   6.789  1.1598  0.0149  0.1912
15113SOL     OW46181   0.378   4.222   5.180  0.1517  0.0205  0.3494
15113SOL    HW146182   0.368   4.219   5.275 -0.6957  2.3341  0.3951
15113SOL    HW246183   0.294   4.253   5.147  1.0400  1.1738 -0.9760
15114SOL     OW46184   4.173   2.830   0.889  0.9375  0.0223 -0.0519
15114SOL    HW146185   4.108   2.883   0.934 -2.3481 -3.1621 -0.5543
15114SOL    HW246186   4.224   2.788   0.959 -0.1055 -0.2984  0.5260
15115SOL     OW46187   4.668   2.782   2.788 -0.0858 -0.5988 -0.7555
15115SOL    HW146188   4.731   2.762   2.719  0.3316 -1.5673 -0.1010
15115SOL    HW246189   4.701   2.862   2.829  0.2650 -0.6475 -0.9466
15116SOL     OW46190   8.090   0.790   8.040  0.0668  0.5165  0.2000
15116SOL    HW146191   8.066   0.730   7.969 -0.0309  0.9474 -0.1365
15116SOL    HW246192   8.039   0.761   8.115  0.8085 -0.4779  0.3407
15117SOL     OW46193   0.779   7.214   5.587 -0.0967  0.1300  0.2064
15117SOL    HW146194   0.727   7.257   5.519 -0.5148  0.3724  0.6721
15117SOL    HW246195   0.865   7.203   5.548 -0.4040  0.0274 -0.4616
15118SOL     OW46196   5.853   2.400   1.831  0.3630 -0.1209 -0.3832
15118SOL    HW146197   5.832   2.486   1.868 -0.8884  0.5558 -2.5348
15118SOL    HW246198   5.774   2.349   1.843  0.0139  0.0454 -1.9032
15119SOL     OW46199   2.774   3.670   7.745  0.2613 -0.2169 -0.3326
15119SOL    HW146200   2.742   3.596   7.797  0.8138  0.1795  0.6058
15119SOL    HW246201   2.735   3.658   7.659 -1.7202 -0.2076  0.5214
15120SOL     OW46202   5.504   6.139   3.684 -0.9506 -0.5009 -0.2958
15120SOL    HW146203   5.439   6.099   3.742 -0.0043 -1.6480  0.0072
15120SOL    HW246204   5.454   6.162   3.606 -1.7438 -1.3236 -0.0550
15121SOL     OW46205   3.208   0.995   2.248  0.1016 -0.1262 -0.6615
15121SOL    HW146206   3.168   1.077   2.277 -0.1570 -0.8181  1.0383
15121SOL    HW246207   3.145   0.958   2.186  0.7101  1.4350 -2.3016
15122SOL     OW46208   3.165   7.208   6.406 -0.2942  0.3931  0.0655
15122SOL    HW146209   3.200   7.295   6.387 -1.5758  0.7363 -0.8678
15122SOL    HW246210   3.186   7.193   6.498 -1.3221  2.3153  0.6451
15123SOL     OW46211   6.105   1.140   3.943 -0.2865 -0.9309 -0.1876
15123SOL    HW146212   6.134   1.099   3.861 -1.0127 -0.1823 -0.8474
15123SOL    HW246213   6.185   1.159   3.991  0.3233  0.5616 -1.7022
15124SOL     OW46214   0.544   3.043   1.136 -0.2902  0.2165 -0.9951
15124SOL    HW146215   0.489   3.068   1.209  1.6845 -0.7613  0.9367
15124SOL    HW246216   0.618   3.104   1.139  0.6981 -0.9295 -1.0117
15125SOL     OW46217   2.136   2.849   7.843 -0.1439  0.0686  0.0731
15125SOL    HW146218   2.083   2.915   7.888 -1.0125 -0.5532 -0.0230
15125SOL    HW246219   2.080   2.772   7.839  0.0441 -0.0056 -1.7795
15126SOL     OW46220   2.676   4.408   3.342 -0.1505 -0.0315 -0.0416
15126SOL    HW146221   2.693   4.482   3.283  0.0185 -0.2083 -0.2152
15126SOL    HW246222   2.749   4.409   3.404  1.5286 -1.8568 -1.8453
15127SOL     OW46223   6.346   6.460   6.585 -0.0247  0.0919  0.1904
15127SOL    HW146224   6.312   6.487   6.671 -0.5352  0.0924 -0.0065
15127SOL    HW246225   6.268   6.429   6.538 -0.0256  1.6313 -0.8662
15128SOL     OW46226   0.734   7.930   8.212 -0.0589  0.4245 -0.8115
15128SOL    HW146227   0.777   7.987   8.149 -0.3826 -1.4037 -2.7865
15128SOL    HW246228   0.780   7.846   8.204 -0.4043 -0.0052  1.1028
15129SOL     OW46229   4.216   0.572   1.972 -0.0462 -1.0423 -0.1355
15129SOL    HW146230   4.214   0.610   1.884  0.3227 -1.5481 -0.3690
15129SOL    HW246231   4.250   0.484   1.959  1.4565 -0.6124  0.6920
15130SOL     OW46232   1.870   3.165   4.159 -0.0399 -0.1197  0.0344
15130SOL    HW146233   1.938   3.233   4.162 -1.2774  1.1667 -0.1343
15130SOL    HW246234   1.919   3.083   4.150  1.4795  0.7833 -0.3285
15131SOL     OW46235   4.656   7.695   6.063  0.8421  0.0888 -0.0825
15131SOL    HW146236   4.698   7.614   6.034  0.2821 -0.5866  0.9239
15131SOL    HW246237   4.646   7.747   5.983  2.6903 -0.1253 -0.4968
15132SOL     OW46238   1.987   3.302   5.199 -0.0499  0.2448 -0.5208
15132SOL    HW146239   1.964   3.213   5.173  3.0933 -0.5933 -0.8601
15132SOL    HW246240   2.042   3.335   5.127 -0.4257  2.1472  0.0030
15133SOL     OW46241   4.860   1.159   3.572  0.4655  0.0480 -0.7266
15133SOL    HW146242   4.885   1.246   3.540 -2.3124  1.2165 -0.0603
15133SOL    HW246243   4.817   1.118   3.497 -1.3938  0.7309 -0.0968
15134SOL     OW46244   0.841   4.166   1.048  0.5505  0.3854 -0.4070
15134SOL    HW146245   0.752   4.152   1.017  0.7017  4.5264 -3.5487
15134SOL    HW246246   0.831   4.213   1.131 -0.0860 -0.9337  0.2871
15135SOL     OW46247   0.453   8.095   6.298  0.1450  0.8717  0.4464
15135SOL    HW146248   0.470   8.071   6.389  2.5859  3.6941  0.9015
15135SOL    HW246249   0.539   8.120   6.264 -0.9640  1.4477 -2.1495
15136SOL     OW46250   7.035   4.605   6.130 -0.4276  0.2378 -0.0775
15136SOL    HW146251   7.034   4.686   6.181 -1.6574  0.6515 -0.7180
15136SOL    HW246252   7.111   4.614   6.073  0.1882  0.3622  0.7478
15137SOL     OW46253   0.206   2.165   4.976 -0.1038  0.6527  0.2394
15137SOL    HW146254   0.116   2.134   4.984  0.6838 -1.5806  1.5009
15137SOL    HW246255   0.251   2.124   5.050  1.7739  2.3978  0.1232
15138SOL     OW46256   6.389   4.751   3.201 -0.5272  0.0907 -0.7920
15138SOL    HW146257   6.343   4.716   3.125 -0.3248  0.2667 -0.9967
15138SOL    HW246258   6.325   4.747   3.272 -1.2742  1.4867 -1.3568
15139SOL     OW46259   7.659   0.887   6.638  0.0570  0.2379  0.4222
15139SOL    HW146260   7.569   0.876   6.666  0.3828  0.1998  1.4790
15139SOL    HW246261   7.657   0.870   6.544 -0.9251 -0.3861  0.5424
15140SOL     OW46262   0.147   6.732   4.456 -0.6101  0.2546 -0.4552
15140SOL    HW146263   0.129   6.800   4.391  0.9883 -0.0317 -1.2336
15140SOL    HW246264   0.080   6.745   4.523 -2.7759  0.0964 -2.4705
15141SOL     OW46265   4.965   4.661   0.035 -0.3781 -0.5897 -0.1114
15141SOL    HW146266   5.005   4.651  -0.051  2.1342 -0.5503  0.9613
15141SOL    HW246267   4.874   4.685   0.017  0.8601  3.0215 -2.8152
15142SOL     OW46268   2.763   1.034   6.812 -0.0249 -0.4974  0.6172
15142SOL    HW146269   2.791   0.948   6.781  2.0908  0.9711 -1.9836
15142SOL    HW246270   2.836   1.065   6.865 -0.0628  0.3017  0.2137
15143SOL     OW46271   6.009   8.206   2.552  0.2291  0.7790  0.7481
15143SOL    HW146272   6.006   8.119   2.593 -0.2994  1.0195  1.2452
15143SOL    HW246273   6.062   8.194   2.473  1.2269  0.2814  1.4668
15144SOL     OW46274   3.442   7.873   7.085 -0.7369 -0.2328 -0.0790
15144SOL    HW146275   3.401   7.957   7.106  1.9114  1.1969 -0.2011
15144SOL    HW246276   3.458   7.877   6.990  0.7470 -0.1983  0.1541
15145SOL     OW46277   5.698   7.846   6.750  0.8361 -0.1126 -0.1466
15145SOL    HW146278   5.657   7.931   6.735 -1.0109 -1.1824 -1.5288
15145SOL    HW246279   5.746   7.827   6.670  2.4348  0.1908  0.6824
15146SOL     OW46280   1.680   6.741   4.066 -0.3916 -0.1562 -0.1046
15146SOL    HW146281   1.722   6.659   4.040  0.2722 -0.0974  0.7385
15146SOL    HW246282   1.648   6.779   3.983 -1.3056 -1.5678 -0.4324
15147SOL     OW46283   0.049   0.936   4.575 -0.4491 -0.1601 -0.2281
15147SOL    HW146284  -0.013   0.879   4.531 -0.4847 -0.1857 -0.1456
15147SOL    HW246285   0.020   1.025   4.553 -0.2237 -0.1749 -0.5882
15148SOL     OW46286   4.301   6.044   7.382 -0.0405 -0.4450  0.2769
15148SOL    HW146287   4.303   5.985   7.458 -0.3341 -0.0392  0.5994
15148SOL    HW246288   4.254   6.121   7.412 -0.6015 -0.4890 -0.4672
15149SOL     OW46289   4.546   7.756   4.014  0.4812 -0.3992 -0.1587
15149SOL    HW146290   4.606   7.812   3.966  0.7093 -1.0201 -0.6122
15149SOL    HW246291   4.493   7.816   4.066  1.2361  0.1830 -0.0447
15150SOL     OW46292   4.916   3.083   6.195 -0.1449  0.1282  0.1635
15150SOL    HW146293   4.847   3.147   6.176 -1.0217 -0.8163  0.0912
15150SOL    HW246294   4.876   3.022   6.256  0.6799 -0.3636  0.2233
15151SOL     OW46295   4.923   4.875   2.042 -0.0313  0.2908 -0.5129
15151SOL    HW146296   4.963   4.819   2.108 -2.4317  0.5498  1.3083
15151SOL    HW246297   4.940   4.830   1.959 -0.3874 -2.2454  0.6993
15152SOL     OW46298   2.879   6.463   8.042  0.8227 -0.1497  0.1963
15152SOL    HW146299   2.847   6.541   7.996  2.0938  0.2440 -0.0797
15152SOL    HW246300   2.938   6.421   7.980  0.4033 -1.1575  0.4703
15153SOL     OW46301   4.386   3.201   6.799  0.1749 -0.1008 -0.0407
15153SOL    HW146302   4.431   3.143   6.737 -1.1200 -1.0031 -0.1830
15153SOL    HW246303   4.334   3.259   6.743 -0.6421 -0.6189  0.1580
15154SOL     OW46304   7.498   7.246   7.156 -0.1554 -0.1337  0.5348
15154SOL    HW146305   7.457   7.169   7.116 -0.2529  0.3616 -0.3559
15154SOL    HW246306   7.439   7.318   7.135  2.5293  1.2726 -3.7104
15155SOL     OW46307   7.710   3.399   3.387 -0.0807 -0.0077 -0.4972
15155SOL    HW146308   7.778   3.377   3.451 -1.5539  0.6263  1.4119
15155SOL    HW246309   7.747   3.374   3.303  1.8015 -1.3293  0.6301
15156SOL     OW46310   4.093   0.064   3.393  0.2232  0.4657 -0.0405
15156SOL    HW146311   4.127   0.072   3.482  0.5999 -1.8526  0.0696
15156SOL    HW246312   3.999   0.081   3.402  0.3377  0.7300  0.7148
15157SOL     OW46313   2.570   6.888   6.284  0.3010 -0.5101  0.3098
15157SOL    HW146314   2.477   6.903   6.296  0.2669 -0.3772 -0.1095
15157SOL    HW246315   2.590   6.812   6.339 -0.4214 -1.6771 -0.9887
15158SOL     OW46316   1.540   3.068   4.442  0.5505 -0.4539 -0.4183
15158SOL    HW146317   1.507   3.076   4.352  2.3654  0.0793 -1.0831
15158SOL    HW246318   1.619   3.015   4.434 -0.0434 -1.6331  1.1094
15159SOL     OW46319   2.916   1.918   4.920 -0.0989  0.3055  0.7354
15159SOL    HW146320   2.944   1.971   4.846 -3.7875  5.0962  2.2460
15159SOL    HW246321   2.858   1.852   4.882 -1.4637  2.2758 -0.7577
15160SOL     OW46322   3.348   5.764   5.645 -0.0362  0.8126  0.2794
15160SOL    HW146323   3.386   5.726   5.724 -1.4987 -0.5904  0.3527
15160SOL    HW246324   3.277   5.819   5.676  0.0500  1.0910 -0.0105
15161SOL     OW46325   5.012   1.797   5.776  0.2771 -0.6023  0.0306
15161SOL    HW146326   4.940   1.746   5.811  1.0430 -2.0270 -0.3871
15161SOL    HW246327   5.047   1.744   5.704  0.3852  1.0455 -1.1880
15162SOL     OW46328   3.843   6.815   2.031 -0.5564 -0.0827  0.2790
15162SOL    HW146329   3.813   6.724   2.031 -3.0581  0.6617 -1.3123
15162SOL    HW246330   3.855   6.836   1.938  0.2694  1.1580  0.6439
15163SOL     OW46331   4.764   5.871   1.269  0.3715  0.0749 -0.7291
15163SOL    HW146332   4.830   5.820   1.316  0.9623  1.0035 -0.5107
15163SOL    HW246333   4.687   5.869   1.327  0.5020 -0.2744 -0.5645
15164SOL     OW46334   6.305   4.520   2.513  0.1615 -0.0250  0.0551
15164SOL    HW146335   6.363   4.521   2.437 -0.3318 -0.7737 -0.3399
15164SOL    HW246336   6.262   4.434   2.509  0.1057 -0.0579  1.1565
15165SOL     OW46337   2.862   6.174   3.996 -0.2703 -0.4851 -0.2912
15165SOL    HW146338   2.911   6.094   3.976 -1.0175 -0.8906 -0.5855
15165SOL    HW246339   2.898   6.205   4.079 -0.2394 -1.3574  0.0291
15166SOL     OW46340   5.030   2.765   6.426  0.0626 -0.1268 -0.2764
15166SOL    HW146341   4.979   2.833   6.470 -2.9520 -0.8669 -2.3082
15166SOL    HW246342   5.047   2.801   6.339  1.6008 -0.6272 -0.2165
15167SOL     OW46343   1.601   1.240   8.022  0.1099  0.0211 -0.5031
15167SOL    HW146344   1.597   1.328   8.059 -0.7645  0.7892 -2.2930
15167SOL    HW246345   1.686   1.206   8.050  0.0585  1.0517  1.0093
15168SOL     OW46346   4.256   1.437   7.456  0.1041 -0.2232  0.5283
15168SOL    HW146347   4.334   1.386   7.477  1.1374  1.6689  1.4698
15168SOL    HW246348   4.187   1.398   7.511  0.8442 -0.6368  1.1900
15169SOL     OW46349   4.399   0.887   0.506 -0.1863 -0.2791 -0.3118
15169SOL    HW146350   4.317   0.909   0.550 -0.2086  1.5429 -1.1605
15169SOL    HW246351   4.394   0.793   0.490 -0.5879 -0.8750  2.6628
15170SOL     OW46352   6.387   5.021   0.718  0.1122 -0.0133 -0.1937
15170SOL    HW146353   6.318   4.974   0.764 -0.8213  0.5885 -0.9409
15170SOL    HW246354   6.390   5.107   0.760 -0.2061  0.2661 -0.7303
15171SOL     OW46355   0.084   4.937   0.344 -0.1093  0.8733  0.4257
15171SOL    HW146356   0.073   4.877   0.418  0.0745  1.1568  0.6818
15171SOL    HW246357  -0.001   4.935   0.299 -0.4331  1.1918  1.0133
15172SOL     OW46358   5.136   5.178   3.768 -0.0946 -0.5519  0.2003
15172SOL    HW146359   5.168   5.115   3.704  0.4164 -2.0545  1.8681
15172SOL    HW246360   5.041   5.163   3.770  0.0297 -1.3131  0.6227
15173SOL     OW46361   6.069   4.411   6.008  0.2710 -0.4371 -0.6578
15173SOL    HW146362   6.047   4.503   6.022  0.9627 -0.3428 -0.1082
15173SOL    HW246363   6.069   4.373   6.096  0.4699 -0.8441 -0.8340
15174SOL     OW46364   5.579   2.449   3.443  0.0027 -0.0172  0.3103
15174SOL    HW146365   5.551   2.535   3.473 -0.2341 -0.4131  1.3017
15174SOL    HW246366   5.592   2.399   3.524 -0.5819 -1.1315 -0.2483
15175SOL     OW46367   7.630   3.611   7.534 -0.0209 -0.1198 -0.6917
15175SOL    HW146368   7.682   3.567   7.601 -1.3128  0.2306  0.5943
15175SOL    HW246369   7.594   3.540   7.481  0.4451 -0.4398 -0.5876
15176SOL     OW46370   6.839   0.526   4.737  0.0490 -0.1603  0.0542
15176SOL    HW146371   6.899   0.453   4.725 -1.1724 -1.5309  1.6872
15176SOL    HW246372   6.855   0.584   4.662  1.4700 -1.7995 -0.9723
15177SOL     OW46373   7.407   3.749   7.028  0.1196 -0.2065 -0.4372
15177SOL    HW146374   7.410   3.808   6.952  0.7685 -0.5914 -0.7160
15177SOL    HW246375   7.402   3.662   6.990 -0.8602 -0.3447 -0.0224
15178SOL     OW46376   5.002   0.726   3.796  0.2955 -0.2304  0.2912
15178SOL    HW146377   4.985   0.820   3.805 -0.1435 -0.3389  0.6239
15178SOL    HW246378   4.988   0.690   3.883 -0.9147 -0.8156 -0.1156
15179SOL     OW46379   4.759   5.862   6.588  0.3261  0.3977  0.4475
15179SOL    HW146380   4.729   5.772   6.579  0.9673  0.2619 -0.5646
15179SOL    HW246381   4.759   5.879   6.682 -3.3803  0.5960  0.5742
15180SOL     OW46382   2.133   1.959   1.076  0.0443  0.0582  0.2922
15180SOL    HW146383   2.199   2.028   1.069  0.2605 -0.2077 -0.3576
15180SOL    HW246384   2.065   1.984   1.013 -1.7516  1.6666  2.6591
15181SOL     OW46385   3.587   1.592   5.891  0.2946 -0.4941 -0.4232
15181SOL    HW146386   3.653   1.658   5.913  1.1459 -1.5633  0.2837
15181SOL    HW246387   3.630   1.536   5.826  0.4312 -1.7372  0.7076
15182SOL     OW46388   0.742   7.825   7.519  0.2414  0.6695 -0.1190
15182SOL    HW146389   0.817   7.865   7.562 -0.0285  0.7591  0.2778
15182SOL    HW246390   0.750   7.850   7.427  2.6981 -2.3063 -0.8618
15183SOL     OW46391   4.209   6.286   6.472 -0.4482 -0.0415  0.1866
15183SOL    HW146392   4.143   6.260   6.538 -0.0991  0.5671  0.7885
15183SOL    HW246393   4.167   6.356   6.423 -0.6047 -0.3057 -0.0594
15184SOL     OW46394   1.583   0.708   6.391  0.0229  0.1527 -0.8338
15184SOL    HW146395   1.602   0.632   6.446 -0.5448 -0.2784 -1.2241
15184SOL    HW246396   1.670   0.738   6.363  0.2609 -0.2889 -0.5938
15185SOL     OW46397   2.568   3.882   4.435  0.2702 -0.0218  0.4923
15185SOL    HW146398   2.483   3.910   4.469  0.1338  0.2370 -0.0650
15185SOL    HW246399   2.585   3.939   4.360  0.5947 -0.5573  0.1507
15186SOL     OW46400   2.885   4.803   8.127  0.1401  0.0189 -0.2502
15186SOL    HW146401   2.917   4.891   8.106 -0.1000  0.6412  1.7957
15186SOL    HW246402   2.791   4.816   8.142  0.2698 -0.4090  0.9513
15187SOL     OW46403   1.353   1.966   4.280  0.0323  0.1235  0.5432
15187SOL    HW146404   1.371   2.058   4.261 -2.2252  0.5315  0.0347
15187SOL    HW246405   1.258   1.957   4.269  0.1014 -2.1457  1.1443
15188SOL     OW46406   7.316   5.268   2.857  0.0070  0.0586 -0.3289
15188SOL    HW146407   7.273   5.353   2.846  0.6253  0.4861  0.4951
15188SOL    HW246408   7.292   5.241   2.945 -0.1228 -0.5996 -0.5595
15189SOL     OW46409   3.447   5.948   3.916  0.0320  0.3311 -0.1780
15189SOL    HW146410   3.390   6.025   3.919 -0.2919  0.1272 -0.7890
15189SOL    HW246411   3.429   5.910   3.830  1.4593  0.5379 -0.5867
15190SOL     OW46412   4.688   2.260   4.733 -0.5892  0.4928  0.4930
15190SOL    HW146413   4.727   2.339   4.770 -0.9687  1.7141 -1.5893
15190SOL    HW246414   4.594   2.269   4.752 -0.6793  0.7254 -0.0565
15191SOL     OW46415   7.633   0.919   2.382  0.5006 -0.2251 -0.0133
15191SOL    HW146416   7.578   0.844   2.358  0.1860 -0.0655  0.1935
15191SOL    HW246417   7.632   0.918   2.478  0.1281  0.3049 -0.0059
15192SOL     OW46418   2.662   0.998   5.010  0.0800 -0.1542 -0.3413
15192SOL    HW146419   2.685   0.973   5.099  0.7903 -1.0940 -0.7708
15192SOL    HW246420   2.617   1.082   5.019 -2.3305 -1.4926  1.1558
15193SOL     OW46421   0.602   2.071   2.235  0.2534  0.4155 -0.3543
15193SOL    HW146422   0.659   2.010   2.188  0.0810 -0.7524  0.9073
15193SOL    HW246423   0.654   2.151   2.240  1.4882 -0.3805  0.0761
15194SOL     OW46424   3.413   5.307   6.880 -0.1727 -0.2557 -0.6457
15194SOL    HW146425   3.353   5.243   6.841 -0.2054  0.3837 -1.6885
15194SOL    HW246426   3.423   5.279   6.971 -1.6479 -0.6742 -0.5895
15195SOL     OW46427   4.253   2.964   1.612 -0.4380 -0.5792 -0.1044
15195SOL    HW146428   4.240   3.051   1.651  2.2264  0.0479 -0.3955
15195SOL    HW246429   4.224   2.974   1.521 -1.5662 -0.4474  0.2628
15196SOL     OW46430   3.333   7.768   8.130 -0.1244 -0.0788  0.0723
15196SOL    HW146431   3.245   7.735   8.147 -0.0099  0.1539  1.2130
15196SOL    HW246432   3.339   7.774   8.035 -1.8231  1.1364 -0.0051
15197SOL     OW46433   5.312   0.236   2.526 -0.3208 -0.0493  0.3138
15197SOL    HW146434   5.258   0.266   2.454 -0.3002  0.3815  0.4742
15197SOL    HW246435   5.329   0.143   2.507 -0.3990  0.0358 -0.1745
15198SOL     OW46436   7.883   3.673   3.514  0.9075  0.5306  0.0587
15198SOL    HW146437   7.898   3.680   3.419  0.2542  0.0001 -0.0900
15198SOL    HW246438   7.807   3.730   3.530 -1.0921 -1.8698 -0.2999
15199SOL     OW46439   5.415   4.724   7.876  0.4684  0.0697  0.5138
15199SOL    HW146440   5.439   4.710   7.968  1.1314  1.1738  0.5257
15199SOL    HW246441   5.366   4.645   7.852  0.3578 -0.2760  1.7854
15200SOL     OW46442   6.102   5.473   6.514 -0.1901  0.5809 -0.3016
15200SOL    HW146443   6.128   5.490   6.605  0.2000 -1.5772  0.0622
15200SOL    HW246444   6.012   5.502   6.508 -0.8724 -1.0196  1.3942
15201SOL     OW46445   5.564   7.489   7.819 -0.2567  0.8547 -0.2020
15201SOL    HW146446   5.580   7.395   7.811  0.8783  0.9016  1.0169
15201SOL    HW246447   5.608   7.514   7.901 -2.4022  2.0559  0.6651
15202SOL     OW46448   7.756   5.806   4.913 -0.0338 -0.3505  0.2080
15202SOL    HW146449   7.837   5.830   4.868  0.2657  0.1181  0.9619
15202SOL    HW246450   7.712   5.889   4.929  0.0568 -0.4578  1.0991
15203SOL     OW46451   0.926   6.700   3.320  0.0475  0.2382  0.1643
15203SOL    HW146452   0.832   6.682   3.329 -0.0575  0.8269  0.2754
15203SOL    HW246453   0.936   6.791   3.347  0.6752  0.1417  0.2817
15204SOL     OW46454   6.127   8.052   7.007  0.7087 -0.1410  0.0475
15204SOL    HW146455   6.118   8.134   7.056 -0.0342  1.6200 -2.7704
15204SOL    HW246456   6.037   8.022   6.995  1.0320 -2.1245  2.0990
15205SOL     OW46457   3.421   1.633   7.205  0.1784 -0.5501 -0.4648
15205SOL    HW146458   3.509   1.597   7.216  0.9586  0.9804 -1.4120
15205SOL    HW246459   3.380   1.622   7.290  2.4347  1.6559  1.0275
15206SOL     OW46460   4.520   4.190   3.852 -0.5425  0.1961 -0.1653
15206SOL    HW146461   4.593   4.192   3.914 -0.3895  1.4599 -0.3668
15206SOL    HW246462   4.547   4.248   3.781 -0.5367 -1.5319 -1.6523
15207SOL     OW46463   3.780   1.473   1.821  0.2360 -0.3185 -0.1119
15207SOL    HW146464   3.810   1.402   1.765 -0.0585 -1.2453  0.8686
15207SOL    HW246465   3.705   1.436   1.868 -0.6914  1.0431 -0.4750
15208SOL     OW46466   3.903   0.849   4.946  0.5717  0.2346 -0.1439
15208SOL    HW146467   3.976   0.793   4.918 -1.3090 -2.6026  0.1586
15208SOL    HW246468   3.825   0.797   4.927 -1.2833  2.1484  1.6785
15209SOL     OW46469   4.599   0.138   4.803  0.0482  0.0289  0.0393
15209SOL    HW146470   4.506   0.121   4.819  0.1575  0.6883  1.6739
15209SOL    HW246471   4.641   0.053   4.813 -0.3550 -0.2635 -0.6423
15210SOL     OW46472   6.068   0.075   4.791  0.2015 -0.1662  0.5930
15210SOL    HW146473   6.094   0.157   4.834  0.5469 -0.0515  0.1734
15210SOL    HW246474   6.145   0.019   4.799  0.0686 -0.3437  0.6197
15211SOL     OW46475   2.558   4.831   7.237  0.0737  0.0014  0.0169
15211SOL    HW146476   2.591   4.894   7.173 -1.2917  0.0949 -0.6528
15211SOL    HW246477   2.490   4.783   7.189  1.2839 -2.2311  0.3936
15212SOL     OW46478   6.383   4.764   4.151  0.0843 -0.5433 -0.1814
15212SOL    HW146479   6.323   4.712   4.205  0.7317  1.0466  2.2259
15212SOL    HW246480   6.336   4.847   4.137  0.2164 -0.6802 -1.5311
15213SOL     OW46481   6.336   7.403   4.275 -1.0168  0.0562 -0.2387
15213SOL    HW146482   6.297   7.455   4.205 -0.8810  0.8990  0.2828
15213SOL    HW246483   6.317   7.313   4.253 -0.1716  0.2386 -1.8522
15214SOL     OW46484   0.126   0.510   5.051  0.5075  0.1364  0.0385
15214SOL    HW146485   0.180   0.494   4.973 -0.2914  0.6810 -0.6301
15214SOL    HW246486   0.049   0.556   5.019  0.8127  1.6296  1.3508
15215SOL     OW46487   1.263   6.233   7.349  0.0237  0.1005  0.4300
15215SOL    HW146488   1.321   6.206   7.278  0.4887  0.6328  0.6025
15215SOL    HW246489   1.322   6.271   7.415 -0.7233  3.1532 -0.5283
15216SOL     OW46490   3.587   2.357   4.129  0.0101  0.2986 -0.5219
15216SOL    HW146491   3.502   2.390   4.097 -1.2012  1.3304  3.2655
15216SOL    HW246492   3.627   2.432   4.172  1.6337 -0.8595  0.0553
15217SOL     OW46493   2.463   6.913   4.299 -0.2040  0.2115  0.2631
15217SOL    HW146494   2.514   6.864   4.235 -1.4895 -0.3576 -0.3747
15217SOL    HW246495   2.414   6.976   4.248 -1.5546 -0.5164  0.5940
15218SOL     OW46496   7.924   7.185   1.330 -0.4776  0.7007 -0.1425
15218SOL    HW146497   7.921   7.198   1.425  0.7761  0.7137 -0.0878
15218SOL    HW246498   7.904   7.271   1.294 -1.0503  0.6759  0.1057
15219SOL     OW46499   1.581   4.769   6.873  0.3055 -0.7037 -0.1820
15219SOL    HW146500   1.578   4.818   6.956 -1.5615 -1.0749  0.0118
15219SOL    HW246501   1.556   4.680   6.897 -2.7841 -0.2995 -1.4091
15220SOL     OW46502   6.323   7.860   6.951 -0.1975 -0.4754  0.8211
15220SOL    HW146503   6.260   7.923   6.988  0.0719  0.6102 -0.4785
15220SOL    HW246504   6.273   7.812   6.885  0.4345  0.9021 -0.7519
15221SOL     OW46505   2.832   2.251   5.202 -0.2911  0.0390 -0.0561
15221SOL    HW146506   2.746   2.218   5.176 -0.1899  0.4078 -0.8947
15221SOL    HW246507   2.813   2.328   5.256 -0.5090  1.3276 -1.8627
15222SOL     OW46508   7.828   4.490   3.178  0.0855  0.5001  0.2069
15222SOL    HW146509   7.796   4.508   3.090  1.1138 -0.3646 -0.3554
15222SOL    HW246510   7.916   4.456   3.166  0.5823  1.1727  1.6218
15223SOL     OW46511   7.029   7.193   4.011 -0.0848  0.1312 -0.4323
15223SOL    HW146512   6.993   7.282   4.015 -0.4275  0.2250 -3.3415
15223SOL    HW246513   6.952   7.137   4.000  0.2385 -0.4047 -0.0414
15224SOL     OW46514   3.165   5.711   7.583 -0.0360 -0.5646 -0.8493
15224SOL    HW146515   3.129   5.658   7.513 -0.1219 -0.9493 -0.5139
15224SOL    HW246516   3.197   5.648   7.648 -0.5124 -0.2107 -0.2603
15225SOL     OW46517   6.153   6.086   7.835  0.2796  0.3606  0.4673
15225SOL    HW146518   6.081   6.024   7.847  1.3007 -1.2601 -1.2888
15225SOL    HW246519   6.111   6.166   7.803 -0.7070 -0.8836 -1.5626
15226SOL     OW46520   3.519   0.242   0.760  0.0861  0.3512 -1.0349
15226SOL    HW146521   3.476   0.249   0.846  0.3837  0.3912 -0.8889
15226SOL    HW246522   3.447   0.227   0.699 -0.0397 -0.7208 -0.6467
15227SOL     OW46523   6.734   4.625   2.784  0.0914  0.0877 -0.1415
15227SOL    HW146524   6.659   4.566   2.784  0.3518 -0.2453  0.1513
15227SOL    HW246525   6.702   4.704   2.741 -0.1095 -0.4498 -0.9994
15228SOL     OW46526   6.352   6.845   7.529 -0.0293  0.2559  0.0128
15228SOL    HW146527   6.260   6.832   7.552 -0.1505 -0.3239 -0.7590
15228SOL    HW246528   6.354   6.929   7.483 -0.0461  0.6148  0.6448
15229SOL     OW46529   3.367   0.442   5.320 -0.3253 -0.2621  0.2275
15229SOL    HW146530   3.367   0.436   5.416  0.8099  1.0782  0.3390
15229SOL    HW246531   3.359   0.536   5.302  2.9087 -0.0865 -0.8867
15230SOL     OW46532   5.642   2.893   6.245 -0.4544 -0.5182 -0.1821
15230SOL    HW146533   5.706   2.952   6.284 -1.3489  0.5030 -0.1927
15230SOL    HW246534   5.572   2.951   6.213 -2.3197 -1.6586  1.5453
15231SOL     OW46535   1.316   6.443   5.233  0.1011  0.6185  0.3427
15231SOL    HW146536   1.235   6.493   5.248  0.5255  0.7867  2.3688
15231SOL    HW246537   1.320   6.432   5.138 -3.0178 -0.5926  0.2367
15232SOL     OW46538   2.346   0.770   2.934  0.3005 -0.0088  0.2932
15232SOL    HW146539   2.337   0.864   2.951  1.1599  0.9540 -3.6245
15232SOL    HW246540   2.439   0.751   2.951  0.3958  0.1418 -0.0554
15233SOL     OW46541   8.025   2.014   2.146  0.2621  0.2248 -0.1441
15233SOL    HW146542   8.114   2.049   2.155  0.4996 -0.1995 -0.8046
15233SOL    HW246543   8.026   1.966   2.063 -0.3299 -0.5350  0.2773
15234SOL     OW46544   4.724   3.327   8.077 -0.2371 -0.4243  0.1652
15234SOL    HW146545   4.674   3.252   8.109  1.9879 -2.1425 -0.1207
15234SOL    HW246546   4.786   3.290   8.014  0.6791  1.7209 -0.2893
15235SOL     OW46547   1.182   2.555   0.305 -0.2807  0.0418  0.4020
15235SOL    HW146548   1.138   2.620   0.250  0.0556 -1.1456 -1.3734
15235SOL    HW246549   1.217   2.491   0.242  3.4411  0.5594  1.6928
15236SOL     OW46550   1.714   5.033   5.517 -0.0284  0.3670 -0.3948
15236SOL    HW146551   1.619   5.045   5.511 -0.0341  0.6446  0.1485
15236SOL    HW246552   1.746   5.051   5.429 -0.4553  0.5361 -0.5207
15237SOL     OW46553   4.957   6.971   2.734  0.5984 -1.5581  0.7186
15237SOL    HW146554   4.871   7.008   2.754  0.6723 -0.5952 -0.6093
15237SOL    HW246555   5.010   7.047   2.708  1.0982 -2.4159 -0.9252
15238SOL     OW46556   0.906   1.687   2.324  0.0713  0.2524  0.1188
15238SOL    HW146557   0.927   1.765   2.375  1.3955  0.2822 -0.4468
15238SOL    HW246558   0.862   1.720   2.246  1.5732  0.5621 -0.6366
15239SOL     OW46559   5.713   0.966   6.638 -0.0651 -0.4129  0.3759
15239SOL    HW146560   5.706   0.910   6.561 -2.1759 -0.0258  0.2242
15239SOL    HW246561   5.651   0.929   6.701 -0.0412  0.5902  1.0242
15240SOL     OW46562   6.561   8.033   6.999 -0.2691 -0.2090  0.8877
15240SOL    HW146563   6.483   7.988   6.968  0.2119  0.0834 -0.8986
15240SOL    HW246564   6.558   8.119   6.956 -0.2638  0.8126  2.8260
15241SOL     OW46565   3.767   4.057   7.585  0.2655  0.2553 -0.0955
15241SOL    HW146566   3.852   4.038   7.624  1.0239 -0.0700 -1.7976
15241SOL    HW246567   3.765   4.153   7.577  0.3616  0.2802  0.1918
15242SOL     OW46568   0.595   0.871   0.084  0.8633 -0.0544 -0.5819
15242SOL    HW146569   0.524   0.832   0.033  0.9210 -0.6169 -0.2401
15242SOL    HW246570   0.633   0.798   0.133  1.0958  0.3999 -0.0710
15243SOL     OW46571   4.980   5.630   4.038 -0.3299  1.0595 -0.5382
15243SOL    HW146572   4.952   5.557   3.982  0.5233 -0.5562  1.0207
15243SOL    HW246573   5.022   5.587   4.113 -1.8649  3.0786  1.6027
15244SOL     OW46574   2.708   0.441   6.196 -0.2145 -0.6777 -0.2541
15244SOL    HW146575   2.738   0.362   6.150  0.4389 -0.9872  0.6847
15244SOL    HW246576   2.737   0.429   6.286 -0.3084  0.5428 -0.0488
15245SOL     OW46577   7.393   0.981   7.184  0.5546 -0.0871 -0.4610
15245SOL    HW146578   7.392   0.890   7.156  1.5285 -0.0194 -0.7373
15245SOL    HW246579   7.444   0.981   7.265  2.0218  0.4484 -1.3594
15246SOL     OW46580   0.149   6.316   0.046  0.0007  0.3522 -0.1137
15246SOL    HW146581   0.193   6.233   0.029  0.5287  0.2767  1.4868
15246SOL    HW246582   0.061   6.304   0.012 -0.7246 -1.7899  2.2126
15247SOL     OW46583   6.007   7.430   2.683  0.2405 -0.3588  0.3786
15247SOL    HW146584   5.973   7.499   2.626  1.9630 -0.2966 -0.6299
15247SOL    HW246585   5.988   7.460   2.772  0.1758  0.9792 -0.0703
15248SOL     OW46586   1.468   5.421   5.319  0.5916  0.3297  0.2727
15248SOL    HW146587   1.379   5.410   5.352  1.0841 -0.7770  1.2925
15248SOL    HW246588   1.504   5.495   5.368  0.1878  0.8961 -0.2715
15249SOL     OW46589   7.669   5.343   6.289 -0.0921 -0.1358 -0.1090
15249SOL    HW146590   7.678   5.389   6.206 -0.5251  0.2252  0.0388
15249SOL    HW246591   7.655   5.251   6.265  1.2462 -0.2852 -0.3992
15250SOL     OW46592   0.029   2.017   4.458  0.7557  0.4562 -0.1781
15250SOL    HW146593  -0.041   2.062   4.506  0.3956 -0.0175 -0.2539
15250SOL    HW246594  -0.007   2.003   4.371  0.4919 -0.8196  0.1174
15251SOL     OW46595   7.397   3.228   1.144  0.0229  0.4196 -0.5101
15251SOL    HW146596   7.399   3.248   1.238  0.7245  0.3232 -0.4974
15251SOL    HW246597   7.390   3.313   1.102 -1.8680  0.3846 -0.3482
15252SOL     OW46598   1.619   8.113   5.560  0.4575  0.0896  0.1690
15252SOL    HW146599   1.604   8.206   5.574  1.1576  0.3037 -0.4216
15252SOL    HW246600   1.599   8.072   5.644 -1.3006  0.5774  0.0206
15253SOL     OW46601   6.714   4.630   6.027  0.1677  0.8216  0.6012
15253SOL    HW146602   6.706   4.585   6.110  1.2903  0.2442  0.4188
15253SOL    HW246603   6.680   4.568   5.962 -0.8041  1.3110  0.6214
15254SOL     OW46604   0.102   2.265   6.481  0.6705  0.5183  0.0330
15254SOL    HW146605   0.130   2.265   6.389 -0.6306  1.2631 -0.3896
15254SOL    HW246606   0.028   2.205   6.483  0.9589  0.1765  0.6970
15255SOL     OW46607   8.118   5.557   7.283 -0.7291 -0.1292 -0.0680
15255SOL    HW146608   8.212   5.561   7.270 -0.7129 -0.4191 -0.0527
15255SOL    HW246609   8.081   5.592   7.201 -0.6147 -0.7546 -0.3916
15256SOL     OW46610   4.035   0.921   7.581 -0.5395 -0.0825  0.6748
15256SOL    HW146611   3.954   0.909   7.631 -0.0810 -0.5636  1.3152
15256SOL    HW246612   4.102   0.938   7.648  0.0428 -0.5227  0.2068
15257SOL     OW46613   7.517   0.212   3.813 -0.1223 -0.0212  0.2541
15257SOL    HW146614   7.545   0.246   3.728  1.8842 -0.3364  0.7325
15257SOL    HW246615   7.512   0.117   3.801 -0.0751 -0.0459  0.4218
15258SOL     OW46616   0.801   0.891   2.810  0.0167  0.4298 -0.1282
15258SOL    HW146617   0.872   0.844   2.854 -0.2145 -0.2623 -0.4821
15258SOL    HW246618   0.832   0.902   2.720  0.9355  2.7565  0.4149
15259SOL     OW46619   0.246   6.805   2.794  0.1132  0.1587  0.5472
15259SOL    HW146620   0.266   6.890   2.833 -0.8798 -0.3289  2.2614
15259SOL    HW246621   0.157   6.785   2.824  0.3988 -1.5749  0.3918
15260SOL     OW46622   7.894   3.531   4.833 -0.1051  0.1354  0.0283
15260SOL    HW146623   7.825   3.521   4.768 -1.0013  1.5533  0.7423
15260SOL    HW246624   7.849   3.549   4.915  1.0908  0.9315  0.5450
15261SOL     OW46625   5.587   1.761   0.268  0.2196 -0.0724 -0.0320
15261SOL    HW146626   5.534   1.693   0.310 -0.5127  0.0915 -0.6726
15261SOL    HW246627   5.607   1.726   0.181 -0.3102  0.5962 -0.4339
15262SOL     OW46628   6.207   7.888   6.057 -0.9500  0.0271 -0.4204
15262SOL    HW146629   6.199   7.962   6.117  3.0526 -0.2847  0.7919
15262SOL    HW246630   6.262   7.921   5.986 -1.0596 -1.1248 -1.0678
15263SOL     OW46631   1.484   0.094   2.011  0.4499 -0.0988 -0.2265
15263SOL    HW146632   1.519   0.182   2.031 -1.2720  0.0082  2.9820
15263SOL    HW246633   1.540   0.035   2.061  0.2343 -0.5895 -0.5673
15264SOL     OW46634   2.899   0.386   4.416  0.1115 -0.7529  0.0100
15264SOL    HW146635   2.838   0.313   4.401 -0.5115  0.0300 -1.5209
15264SOL    HW246636   2.953   0.357   4.490 -1.7347 -1.7281  1.0647
15265SOL     OW46637   1.602   0.048   1.172  0.8356  0.1433  0.1512
15265SOL    HW146638   1.669   0.116   1.179 -0.5228  1.6251 -0.5017
15265SOL    HW246639   1.635  -0.011   1.104  1.6292  0.6588  0.0745
15266SOL     OW46640   1.411   1.019   1.109 -0.3966 -0.2558 -0.4269
15266SOL    HW146641   1.507   1.016   1.114 -0.3957 -0.0125 -0.2709
15266SOL    HW246642   1.388   0.953   1.043 -0.1135 -0.2198 -0.5628
15267SOL     OW46643   7.712   0.462   3.878 -0.0454  0.8450 -0.0598
15267SOL    HW146644   7.804   0.484   3.882 -0.0702  1.0428 -0.5435
15267SOL    HW246645   7.698   0.432   3.789 -0.0785 -0.8433  0.4765
15268SOL     OW46646   0.993   8.105   6.811 -0.4109  0.5749 -0.0851
15268SOL    HW146647   0.908   8.120   6.769 -0.9498 -1.2629  0.2657
15268SOL    HW246648   1.037   8.043   6.753 -0.6386 -0.9800  1.3274
15269SOL     OW46649   2.947   6.208   1.371 -0.7802 -0.3400  0.0887
15269SOL    HW146650   2.956   6.294   1.331  0.2112 -0.9256 -0.9812
15269SOL    HW246651   2.933   6.148   1.297 -0.0535 -1.2860  0.6948
15270SOL     OW46652   6.585   4.011   3.719 -0.1033  0.3003  0.6571
15270SOL    HW146653   6.659   4.006   3.780  1.3119 -0.3194 -1.0193
15270SOL    HW246654   6.509   3.984   3.770  1.3615 -2.3143  1.6150
15271SOL     OW46655   3.334   2.169   3.863 -0.0455 -0.6122 -0.2094
15271SOL    HW146656   3.272   2.183   3.934  0.9870 -0.1716  0.6322
15271SOL    HW246657   3.327   2.247   3.809  0.1830 -0.2940  0.2129
15272SOL     OW46658   5.269   7.678   8.056 -0.8134  0.2816 -0.3434
15272SOL    HW146659   5.301   7.750   8.001  1.1538  0.9724  1.5389
15272SOL    HW246660   5.293   7.704   8.145  0.1252 -2.7561  0.4134
15273SOL     OW46661   4.768   5.651   7.027 -0.4689 -0.4503  0.2747
15273SOL    HW146662   4.833   5.627   6.961 -0.0627  0.7271  0.2136
15273SOL    HW246663   4.716   5.720   6.985 -2.5000 -2.1249 -0.0796
15274SOL     OW46664   7.980   7.019   4.580 -0.7191  0.0394  0.4834
15274SOL    HW146665   8.014   7.065   4.504 -0.0665  1.8011  1.7522
15274SOL    HW246666   7.885   7.020   4.569 -0.7037  1.4467  0.2833
15275SOL     OW46667   5.608   4.391   7.441 -0.2564 -0.0774 -0.2855
15275SOL    HW146668   5.617   4.356   7.353  0.7189 -0.1444 -0.1723
15275SOL    HW246669   5.646   4.478   7.436 -0.8084  0.1787 -0.0826
15276SOL     OW46670   3.497   5.203   2.880 -0.1371 -0.1186  0.5688
15276SOL    HW146671   3.441   5.245   2.945 -0.1957  1.2462 -0.3253
15276SOL    HW246672   3.477   5.249   2.798  1.7788 -0.0803  0.0860
15277SOL     OW46673   7.358   5.440   3.228  0.1785 -0.0105  0.0695
15277SOL    HW146674   7.295   5.393   3.283  1.5904 -1.2725  0.6929
15277SOL    HW246675   7.310   5.462   3.148 -1.5246  0.6168  1.2152
15278SOL     OW46676   1.656   6.720   2.166  0.2506 -0.5689 -0.2001
15278SOL    HW146677   1.722   6.652   2.153 -0.9494 -1.3855 -2.6005
15278SOL    HW246678   1.575   6.672   2.181 -0.5412  0.2668 -1.5570
15279SOL     OW46679   1.237   6.667   5.758  0.2023  0.6239  0.2750
15279SOL    HW146680   1.273   6.625   5.836 -0.5068  0.7484  0.6764
15279SOL    HW246681   1.308   6.725   5.728  1.3308 -1.1000 -0.5186
15280SOL     OW46682   3.931   5.642   4.714 -0.1046 -0.5502 -0.1142
15280SOL    HW146683   3.868   5.573   4.691 -0.6810  0.1013 -0.5585
15280SOL    HW246684   3.932   5.699   4.637  0.7861 -0.3608  0.0286
15281SOL     OW46685   3.408   3.724   5.390  0.6876  0.2143  0.2563
15281SOL    HW146686   3.334   3.691   5.441 -0.0452  0.7391 -0.4414
15281SOL    HW246687   3.424   3.655   5.325 -1.3369  1.4447 -1.6937
15282SOL     OW46688   2.136   3.234   7.714 -0.3178  0.0985 -0.0118
15282SOL    HW146689   2.112   3.305   7.654  0.1288 -0.4237 -0.8332
15282SOL    HW246690   2.212   3.193   7.673  0.7287  0.4445  1.5053
15283SOL     OW46691   2.256   6.974   2.777 -0.1719  0.0238 -0.1844
15283SOL    HW146692   2.322   6.919   2.819  2.1880  1.1114 -2.2089
15283SOL    HW246693   2.223   6.920   2.705 -0.5657 -0.0463  0.0453
15284SOL     OW46694   6.053   5.501   4.612  0.2257 -0.2260  0.0514
15284SOL    HW146695   6.010   5.580   4.646  2.2348  0.4332  1.1867
15284SOL    HW246696   6.015   5.489   4.525 -1.2259  1.0953  0.4516
15285SOL     OW46697   1.343   1.103   2.026 -0.8625 -0.4479  0.2673
15285SOL    HW146698   1.277   1.083   2.092 -0.1641 -0.1888  1.0594
15285SOL    HW246699   1.368   1.194   2.042 -0.0840 -0.6353  0.1891
15286SOL     OW46700   4.329   4.513   1.417 -0.1219 -0.1755  0.2084
15286SOL    HW146701   4.235   4.531   1.410  0.0570  0.2067 -1.5856
15286SOL    HW246702   4.368   4.600   1.431  0.1133 -0.0769 -0.9946
15287SOL     OW46703   7.416   6.626   7.770 -0.4858 -0.1710 -0.2302
15287SOL    HW146704   7.366   6.551   7.740  1.9796 -1.7687 -0.6868
15287SOL    HW246705   7.355   6.699   7.766 -2.1388 -1.5314 -2.8495
15288SOL     OW46706   0.568   1.248   8.192 -0.0812  0.1295 -0.5837
15288SOL    HW146707   0.541   1.239   8.283  1.0277 -0.6932 -0.3255
15288SOL    HW246708   0.510   1.188   8.144 -1.0965  1.0405 -0.5219
15289SOL     OW46709   1.601   7.668   0.013 -0.0832 -0.1000 -0.0175
15289SOL    HW146710   1.693   7.684   0.032 -0.0598 -0.0917 -0.1339
15289SOL    HW246711   1.582   7.726  -0.061 -0.0372 -0.4936 -0.3438
15290SOL     OW46712   3.625   3.505   6.001  0.6106 -0.0999  0.1570
15290SOL    HW146713   3.718   3.514   5.981  0.5802 -1.0571 -0.4910
15290SOL    HW246714   3.584   3.580   5.959  0.8737 -0.7153 -1.2865
15291SOL     OW46715   0.140   1.426   7.833  0.4496  0.4985 -0.1093
15291SOL    HW146716   0.127   1.510   7.876  1.1631  0.5876 -0.0502
15291SOL    HW246717   0.053   1.397   7.808  0.2047  1.2707 -0.1541
15292SOL     OW46718   4.933   5.125   1.958 -0.3373  0.5324  0.0335
15292SOL    HW146719   4.929   5.039   2.000 -1.4606  1.1039  1.1665
15292SOL    HW246720   4.982   5.179   2.020 -1.1160  1.1284  0.1449
15293SOL     OW46721   6.176   2.235   2.698 -0.0335  0.0594 -0.0188
15293SOL    HW146722   6.114   2.162   2.701  0.3036 -0.2564 -0.5201
15293SOL    HW246723   6.231   2.217   2.622  1.3532 -0.2199  1.0112
15294SOL     OW46724   6.063   3.579   7.687  0.7803  0.6085 -0.1163
15294SOL    HW146725   6.059   3.541   7.599  0.1729 -0.8693  0.5079
15294SOL    HW246726   6.087   3.505   7.743  0.2643  1.3171  1.0625
15295SOL     OW46727   7.876   3.761   5.714 -0.4169 -0.3647  0.0899
15295SOL    HW146728   7.833   3.844   5.734 -0.1816 -0.3832  0.6900
15295SOL    HW246729   7.816   3.695   5.748 -0.6172 -0.4494 -0.4120
15296SOL     OW46730   1.116   2.636   7.610  0.3770 -0.0153  0.0748
15296SOL    HW146731   1.029   2.597   7.618  0.9245 -1.2615  0.1380
15296SOL    HW246732   1.149   2.603   7.527  1.6955 -1.4541  1.1217
15297SOL     OW46733   0.344   0.241   7.482 -0.4448  0.1777 -0.2411
15297SOL    HW146734   0.314   0.301   7.551 -0.2637  0.0093 -0.0132
15297SOL    HW246735   0.318   0.155   7.514 -0.7482  0.1378 -0.5915
15298SOL     OW46736   3.810   3.004   4.932 -0.0394  0.3464  0.0505
15298SOL    HW146737   3.888   3.016   4.877  0.2965  3.4949  1.0128
15298SOL    HW246738   3.845   2.976   5.016 -0.2150 -0.6881 -0.2064
15299SOL     OW46739   1.761   5.471   8.078 -0.0922 -0.4760  0.1711
15299SOL    HW146740   1.853   5.468   8.103  0.4705  2.1314 -1.2342
15299SOL    HW246741   1.714   5.459   8.161  1.5374 -0.1852  1.1810
15300SOL     OW46742   8.199   6.606   0.967  0.7044  0.4490 -0.4160
15300SOL    HW146743   8.163   6.542   0.906  0.6658 -1.0597  1.0964
15300SOL    HW246744   8.244   6.670   0.912 -0.8172  0.1396 -2.0990
15301SOL     OW46745   1.439   2.469   5.200 -0.4745 -0.1008  0.1009
15301SOL    HW146746   1.377   2.521   5.149  0.5535  0.1567 -0.9007
15301SOL    HW246747   1.498   2.430   5.136  0.1281 -0.7292  1.0024
15302SOL     OW46748   5.076   0.235   7.587 -0.2501  0.4417 -0.2834
15302SOL    HW146749   5.039   0.147   7.583  0.0570  0.2979 -0.0500
15302SOL    HW246750   5.019   0.283   7.647 -1.3708  0.8778 -1.6548
15303SOL     OW46751   4.353   2.944   0.416 -0.2441  0.3426 -0.0774
15303SOL    HW146752   4.367   2.916   0.507 -1.5187  1.7072  0.5911
15303SOL    HW246753   4.434   2.921   0.371  0.3796 -0.4718  1.3781
15304SOL     OW46754   2.036   7.166   7.906  0.5878 -0.0704  0.2735
15304SOL    HW146755   2.073   7.248   7.875 -1.2035  0.1872 -1.4016
15304SOL    HW246756   1.974   7.193   7.975 -1.1950  0.2593 -1.3533
15305SOL     OW46757   2.649   5.893   4.898  0.0958 -0.2536 -0.1095
15305SOL    HW146758   2.629   5.947   4.822 -0.1336 -1.2332 -0.7744
15305SOL    HW246759   2.638   5.803   4.866 -1.6023 -0.6708  1.5356
15306SOL     OW46760   2.847   1.693   3.625 -0.3713 -0.2560 -0.0640
15306SOL    HW146761   2.933   1.668   3.657  0.9281 -0.4215 -3.3333
15306SOL    HW246762   2.846   1.788   3.630  0.7355 -0.1327 -1.5320
15307SOL     OW46763   0.869   0.604   7.706 -0.0753  0.5250 -0.0156
15307SOL    HW146764   0.921   0.684   7.708  0.5931  0.0798  1.1165
15307SOL    HW246765   0.846   0.587   7.797 -2.2111  0.6778 -0.4572
15308SOL     OW46766   4.948   0.331   6.211  0.5709  0.2030 -0.3103
15308SOL    HW146767   5.038   0.318   6.241  0.0833 -1.0851  0.7017
15308SOL    HW246768   4.896   0.271   6.265 -0.8292  0.5305 -1.2427
15309SOL     OW46769   0.826   5.637   3.124 -0.2923  0.1381  0.0249
15309SOL    HW146770   0.886   5.563   3.114 -1.1424 -0.6011  0.1572
15309SOL    HW246771   0.849   5.698   3.055  1.2401  0.3296  0.6717
15310SOL     OW46772   3.622   7.924   5.708  0.2355 -0.4521  1.0296
15310SOL    HW146773   3.609   7.931   5.614  0.4618 -1.2338  0.9344
15310SOL    HW246774   3.568   7.850   5.735 -0.5085  0.3019  1.6609
15311SOL     OW46775   7.130   5.895   6.718  0.6883  0.2119 -0.2365
15311SOL    HW146776   7.125   5.979   6.765 -0.0554 -0.1220  0.3028
15311SOL    HW246777   7.219   5.893   6.683  0.8859  0.9966  0.1848
15312SOL     OW46778   5.003   4.223   6.613  0.3051 -0.3307  0.3590
15312SOL    HW146779   4.972   4.193   6.698  3.0696  1.0614  2.0063
15312SOL    HW246780   5.036   4.311   6.629  2.9424 -0.8158 -1.5965
15313SOL     OW46781   3.171   0.902   6.632 -0.2176 -0.0270  0.1131
15313SOL    HW146782   3.156   0.878   6.541 -0.5474 -0.3181  0.2450
15313SOL    HW246783   3.216   0.827   6.670  0.5370  0.3656  0.0230
15314SOL     OW46784   1.551   2.076   3.746 -0.0146 -0.1655 -0.0970
15314SOL    HW146785   1.493   2.066   3.671 -1.8158  0.9351  1.0747
15314SOL    HW246786   1.586   2.164   3.738 -1.0541  0.3651  0.8638
15315SOL     OW46787   6.754   4.822   1.199 -0.2703 -0.1281  0.2320
15315SOL    HW146788   6.765   4.788   1.288  0.8882  0.3129  0.2733
15315SOL    HW246789   6.660   4.819   1.184 -0.2724 -2.8504  0.4157
15316SOL     OW46790   5.812   2.456   3.268 -0.1867 -0.0154 -0.3892
15316SOL    HW146791   5.743   2.455   3.202 -0.0749 -3.6259 -0.6133
15316SOL    HW246792   5.766   2.470   3.351 -1.2391 -2.1064 -0.5637
15317SOL     OW46793   6.316   8.078   2.440 -0.2091  0.3134 -0.1409
15317SOL    HW146794   6.316   8.026   2.521  1.8622 -1.8148 -1.3502
15317SOL    HW246795   6.364   8.157   2.463  0.1706 -0.1544  0.7765
15318SOL     OW46796   3.528   0.204   4.121  0.0461  0.8386 -0.1949
15318SOL    HW146797   3.507   0.296   4.138  1.1373  1.0717 -0.0589
15318SOL    HW246798   3.472   0.180   4.047  1.5560  2.3766 -1.9298
15319SOL     OW46799   1.705   4.272   5.985 -0.2087  0.3702  0.0865
15319SOL    HW146800   1.738   4.336   5.921 -1.7708 -1.3084 -2.6249
15319SOL    HW246801   1.731   4.187   5.949 -0.6623 -0.6505  2.0354
15320SOL     OW46802   3.864   2.633   3.066  0.5094  0.7778  0.3614
15320SOL    HW146803   3.837   2.725   3.065 -1.0706  0.3518 -1.0218
15320SOL    HW246804   3.883   2.613   2.974 -2.4540 -1.1433  0.0569
15321SOL     OW46805   2.856   3.106   5.236  0.0862  0.5378 -0.1845
15321SOL    HW146806   2.847   3.025   5.287  0.1183  0.7378  0.1398
15321SOL    HW246807   2.929   3.089   5.177 -2.0717 -1.0027 -2.6349
15322SOL     OW46808   5.318   4.157   2.186 -0.3601 -0.0639 -0.6349
15322SOL    HW146809   5.374   4.086   2.217 -0.6224 -0.2491 -0.5920
15322SOL    HW246810   5.257   4.173   2.257 -1.4679 -1.0111 -1.3484
15323SOL     OW46811   6.552   5.040   1.907  0.5304 -0.0445  0.3558
15323SOL    HW146812   6.492   5.104   1.868  0.5287  1.0338  2.0249
15323SOL    HW246813   6.575   5.078   1.992  0.8062 -2.1151  1.2613
15324SOL     OW46814   6.803   5.156   4.976 -0.5591 -0.3047 -0.1000
15324SOL    HW146815   6.757   5.205   5.044 -0.6124 -0.2648 -0.1638
15324SOL    HW246816   6.878   5.118   5.020 -1.3120 -1.3808  0.2821
15325SOL     OW46817   7.342   0.947   0.075  0.2297 -0.5539  0.2918
15325SOL    HW146818   7.383   0.861   0.064 -0.8955 -1.0943  0.2468
15325SOL    HW246819   7.346   0.963   0.170  0.0620 -0.8433  0.3487
15326SOL     OW46820   5.896   4.369   6.462 -0.1921  0.3319  0.6255
15326SOL    HW146821   5.827   4.324   6.414  0.6298  0.2767 -0.5656
15326SOL    HW246822   5.952   4.299   6.496  0.3981  0.3940 -0.1737
15327SOL     OW46823   3.094   0.582   0.865  0.0630 -0.2491  0.0540
15327SOL    HW146824   3.135   0.496   0.854  2.7204  0.9288 -0.1265
15327SOL    HW246825   3.100   0.600   0.959 -1.4557 -0.6669  0.2499
15328SOL     OW46826   7.875   1.420   6.631 -0.6117  0.7594 -0.5407
15328SOL    HW146827   7.828   1.408   6.713 -0.3274 -1.4502 -0.6389
15328SOL    HW246828   7.965   1.439   6.657 -0.0475 -1.9243 -0.2290
15329SOL     OW46829   3.779   5.656   5.541  0.2398  0.6824 -1.3203
15329SOL    HW146830   3.819   5.741   5.524 -1.1555  1.6712  0.0150
15329SOL    HW246831   3.780   5.647   5.636  0.3457 -0.8110 -1.4346
15330SOL     OW46832   2.948   2.883   7.347 -0.0077  0.6043  0.7300
15330SOL    HW146833   3.032   2.899   7.305  1.8422 -2.0914  3.0328
15330SOL    HW246834   2.958   2.917   7.436 -0.6236 -1.2727  1.5866
15331SOL     OW46835   5.183   2.215   4.106 -0.5233  0.5944  0.1421
15331SOL    HW146836   5.098   2.176   4.086 -0.0666 -0.8404  0.8617
15331SOL    HW246837   5.202   2.187   4.195  0.6724  0.9521  0.0200
15332SOL     OW46838   0.394   0.708   5.367  0.4477 -0.1223 -0.7729
15332SOL    HW146839   0.342   0.770   5.316  1.1906  1.2477  0.0958
15332SOL    HW246840   0.374   0.623   5.328 -0.8773  0.6025 -1.7566
15333SOL     OW46841   0.820   3.606   0.757  0.3910 -0.1749 -0.0993
15333SOL    HW146842   0.769   3.684   0.735 -0.7382 -0.4457  1.3401
15333SOL    HW246843   0.834   3.613   0.851  1.0773 -1.2451 -0.1047
15334SOL     OW46844   7.142   5.738   3.460 -0.0142  0.4497  0.6906
15334SOL    HW146845   7.070   5.755   3.521 -0.4404 -0.0285  0.3374
15334SOL    HW246846   7.218   5.722   3.515  0.3584  3.1020  1.0639
15335SOL     OW46847   2.697   3.708   2.680  0.8389 -0.3833  0.0999
15335SOL    HW146848   2.736   3.621   2.675  1.9543  0.0772  0.3443
15335SOL    HW246849   2.736   3.756   2.607 -0.6688 -0.4054 -0.7678
15336SOL     OW46850   5.130   7.840   0.612 -0.6405 -0.3086  0.7516
15336SOL    HW146851   5.060   7.893   0.651 -0.7123 -0.3650  0.6984
15336SOL    HW246852   5.094   7.810   0.529  0.8582  3.0160 -1.3044
15337SOL     OW46853   1.532   3.683   7.647 -0.2381 -0.1853 -0.5481
15337SOL    HW146854   1.591   3.756   7.664 -0.8566  0.2115 -0.0264
15337SOL    HW246855   1.590   3.609   7.628  0.4549  0.0271  0.6249
15338SOL     OW46856   4.298   4.969   0.570 -0.0876 -0.5479  0.2535
15338SOL    HW146857   4.242   4.946   0.643  1.2132 -1.3280  1.0525
15338SOL    HW246858   4.363   5.029   0.607  1.2722 -1.8380  0.0575
15339SOL     OW46859   6.314   5.469   4.272  0.0135 -0.1687  0.6435
15339SOL    HW146860   6.330   5.548   4.324 -2.3941  0.8449 -0.0102
15339SOL    HW246861   6.353   5.488   4.187 -0.8794  0.5417  0.3649
15340SOL     OW46862   0.257   3.718   4.509 -0.0694  0.5106  0.6063
15340SOL    HW146863   0.215   3.734   4.424 -0.2888  0.9857  0.7999
15340SOL    HW246864   0.209   3.644   4.545  1.8294 -1.5834 -0.8919
15341SOL     OW46865   8.218   1.804   5.874 -0.2736  0.1940  0.3830
15341SOL    HW146866   8.308   1.828   5.850  0.2179 -0.9970  0.9926
15341SOL    HW246867   8.172   1.795   5.790  0.6692 -1.0410 -0.0193
15342SOL     OW46868   1.253   0.411   2.763 -0.1371 -0.4348 -0.5055
15342SOL    HW146869   1.324   0.372   2.813  0.5944 -0.6463 -1.6810
15342SOL    HW246870   1.183   0.426   2.828  1.0360 -0.0219  0.7045
15343SOL     OW46871   4.007   6.232   5.600 -0.3735  0.2393  0.3704
15343SOL    HW146872   4.034   6.324   5.600 -1.3802  0.5491  0.9261
15343SOL    HW246873   3.935   6.229   5.537 -0.0374 -0.2764 -0.0009
15344SOL     OW46874   7.790   7.332   4.753 -0.3550 -0.4442 -0.2389
15344SOL    HW146875   7.743   7.388   4.814 -1.4781 -1.2520 -0.3352
15344SOL    HW246876   7.883   7.344   4.776 -0.6115  0.9302  0.1545
15345SOL     OW46877   3.352   5.621   6.343  0.2670 -1.0436  0.0336
15345SOL    HW146878   3.344   5.602   6.436  0.9647 -0.0139  0.3135
15345SOL    HW246879   3.346   5.535   6.301 -1.9923 -1.3783  0.8625
15346SOL     OW46880   4.634   3.999   7.947  0.4865 -0.0871 -0.1301
15346SOL    HW146881   4.614   3.909   7.976  1.4616 -0.9439 -1.9375
15346SOL    HW246882   4.577   4.012   7.871  1.4714  0.2213 -0.8308
15347SOL     OW46883   6.647   2.594   1.348  0.0311  0.4609 -0.0169
15347SOL    HW146884   6.682   2.681   1.370  3.2577 -0.4071 -1.1159
15347SOL    HW246885   6.656   2.587   1.253 -1.6432 -0.5535 -0.1489
15348SOL     OW46886   8.087   7.919   0.020 -0.4600 -0.1282  0.4300
15348SOL    HW146887   8.076   7.968   0.102  2.0072  0.0168  0.7789
15348SOL    HW246888   8.182   7.922   0.004 -0.8783 -0.0308 -2.5394
15349SOL     OW46889   7.064   0.662   1.934 -0.3706  0.0143 -0.6522
15349SOL    HW146890   6.992   0.709   1.975  0.8911  1.5249 -0.1207
15349SOL    HW246891   7.141   0.717   1.948  0.7411 -1.1261 -1.9871
15350SOL     OW46892   4.147   6.677   1.883 -0.1004 -0.2394 -0.3570
15350SOL    HW146893   4.161   6.771   1.876 -1.4567  0.3107  2.6874
15350SOL    HW246894   4.208   6.649   1.952 -0.0526 -1.5272 -0.8953
15351SOL     OW46895   1.565   1.499   8.163  0.2138 -0.1239  0.2664
15351SOL    HW146896   1.640   1.558   8.159 -1.6409  2.3457 -1.5798
15351SOL    HW246897   1.529   1.512   8.250  1.8756 -1.3881  1.1990
15352SOL     OW46898   1.587   2.650   1.211  0.1515  0.0488 -0.1790
15352SOL    HW146899   1.527   2.720   1.238 -1.3361 -1.5831  0.9655
15352SOL    HW246900   1.590   2.591   1.286  1.1272 -1.2837 -1.2252
15353SOL     OW46901   2.699   4.937   5.664  0.2581 -0.5469  0.5431
15353SOL    HW146902   2.751   4.867   5.703  0.8903  0.4851  1.6118
15353SOL    HW246903   2.675   4.903   5.577  2.9079 -1.0139 -0.1115
15354SOL     OW46904   1.918   0.612   3.059 -0.0267  0.1005 -0.4092
15354SOL    HW146905   1.828   0.607   3.025  0.1228  1.2514 -1.0492
15354SOL    HW246906   1.969   0.557   3.000 -0.4571 -1.4307  0.5916
15355SOL     OW46907   8.019   0.185   3.345 -0.2464  0.3935 -0.4938
15355SOL    HW146908   8.053   0.215   3.261  0.9684  0.4072 -0.0108
15355SOL    HW246909   7.984   0.097   3.327  2.3982 -0.7333 -0.5029
15356SOL     OW46910   3.330   2.049   4.293  0.1239  0.1401  0.2527
15356SOL    HW146911   3.244   2.090   4.302 -0.1155 -0.3765  0.3722
15356SOL    HW246912   3.361   2.077   4.207 -1.3126 -1.7455 -0.9670
15357SOL     OW46913   3.726   6.592   4.158 -0.3534  0.6326 -0.4131
15357SOL    HW146914   3.652   6.533   4.146  0.5709 -0.6404 -0.1501
15357SOL    HW246915   3.699   6.652   4.227 -1.1780  0.2523 -0.3983
15358SOL     OW46916   0.778   2.770   7.336 -0.3758  0.1199  0.3027
15358SOL    HW146917   0.771   2.775   7.432 -1.4899 -0.0989  0.2372
15358SOL    HW246918   0.800   2.678   7.319  1.7456  0.5351  0.4272
15359SOL     OW46919   1.892   4.443   3.031 -0.4489  0.3685  0.2085
15359SOL    HW146920   1.925   4.358   3.059 -1.7547 -1.0980 -2.3773
15359SOL    HW246921   1.804   4.449   3.068 -0.4829  0.4343  0.1201
15360SOL     OW46922   8.073   5.395   7.772  0.0611 -0.5419 -0.9628
15360SOL    HW146923   8.133   5.349   7.831 -0.6975  0.1441  0.4082
15360SOL    HW246924   8.128   5.456   7.724  0.6196 -0.6896 -0.5161
15361SOL     OW46925   3.340   0.225   1.352 -0.2388 -0.0026  0.3482
15361SOL    HW146926   3.380   0.150   1.307 -0.6224 -1.3122  2.0539
15361SOL    HW246927   3.412   0.287   1.365 -0.1011  0.3618 -1.8702
15362SOL     OW46928   1.653   2.480   2.340  0.0790  0.6999 -0.1751
15362SOL    HW146929   1.604   2.553   2.376 -0.5911 -0.3495  1.1380
15362SOL    HW246930   1.744   2.500   2.359  0.2422  2.5181 -2.3637
15363SOL     OW46931   8.045   5.750   3.901 -0.4392 -0.0485  0.1027
15363SOL    HW146932   8.022   5.722   3.990  0.9919  0.1758  0.5685
15363SOL    HW246933   8.092   5.676   3.864 -0.3678  0.1489 -0.2009
15364SOL     OW46934   0.707   2.407   0.175  0.2625 -0.4079  0.0172
15364SOL    HW146935   0.767   2.480   0.159 -0.0408 -0.5374 -2.0402
15364SOL    HW246936   0.758   2.329   0.152 -0.2336 -0.6242 -0.3665
15365SOL     OW46937   7.319   3.844   3.619  0.3817 -0.1392 -0.9610
15365SOL    HW146938   7.396   3.880   3.576 -0.1013  0.9381 -0.9399
15365SOL    HW246939   7.288   3.914   3.676  1.9630 -2.0007  2.5174
15366SOL     OW46940   6.164   3.300   4.845  0.0256 -0.1265  0.1766
15366SOL    HW146941   6.072   3.286   4.822  0.3018 -2.0089  0.0291
15366SOL    HW246942   6.208   3.220   4.816  2.2996  1.9185 -2.5526
15367SOL     OW46943   1.558   5.242   2.805 -0.4916 -0.3755 -0.7977
15367SOL    HW146944   1.572   5.336   2.791 -1.0290 -0.0732  0.4930
15367SOL    HW246945   1.516   5.211   2.726 -0.8686  0.6096 -0.9899
15368SOL     OW46946   2.891   0.815   7.023 -0.2507 -0.4924  0.5003
15368SOL    HW146947   2.977   0.791   6.987 -1.0835 -1.0049 -1.2416
15368SOL    HW246948   2.849   0.731   7.042 -0.4436 -0.2452  1.1768
15369SOL     OW46949   1.916   2.902   2.743 -0.0622 -0.0881  0.1020
15369SOL    HW146950   1.872   2.984   2.722 -0.4019 -0.5691 -1.1406
15369SOL    HW246951   1.847   2.836   2.742 -0.1340 -0.1761  2.9150
15370SOL     OW46952   5.868   8.207   3.077 -0.2179  0.3507  0.0487
15370SOL    HW146953   5.950   8.162   3.097  0.5776  2.1269  0.9701
15370SOL    HW246954   5.800   8.152   3.118  0.4350 -1.3249 -1.0378
15371SOL     OW46955   3.890   2.612   6.590 -0.3600 -0.6183  0.1061
15371SOL    HW146956   3.915   2.529   6.550 -0.0669 -0.1751 -0.6511
15371SOL    HW246957   3.851   2.588   6.674  2.0238 -1.3748  1.0690
15372SOL     OW46958   2.318   1.903   3.464  0.0754  0.6870  0.0992
15372SOL    HW146959   2.381   1.865   3.524  0.6304  1.6588  0.1441
15372SOL    HW246960   2.240   1.919   3.518  0.1027  0.3292  0.2478
15373SOL     OW46961   3.527   4.050   4.725 -0.0157 -0.6348 -0.3668
15373SOL    HW146962   3.537   3.956   4.706  0.1876 -0.6146 -0.3573
15373SOL    HW246963   3.504   4.053   4.818  1.3251 -0.6060 -0.0073
15374SOL     OW46964   4.851   1.406   3.442 -0.2615  0.0879  0.4078
15374SOL    HW146965   4.898   1.489   3.437  0.8548 -0.3742  2.2118
15374SOL    HW246966   4.762   1.427   3.414  0.1933  1.7110  0.0868
15375SOL     OW46967   3.454   5.498   0.636  0.4847  0.1345  0.3205
15375SOL    HW146968   3.403   5.424   0.668  1.1505 -0.6283 -0.3370
15375SOL    HW246969   3.399   5.574   0.653 -0.7588 -0.6310 -0.1564
15376SOL     OW46970   3.761   8.081   4.865 -0.0313 -0.1210 -0.0143
15376SOL    HW146971   3.687   8.092   4.924  1.0439  0.7425  1.2335
15376SOL    HW246972   3.756   7.990   4.835 -1.3144 -0.1968  0.4026
15377SOL     OW46973   7.269   0.619   2.152 -0.3639 -0.2792 -0.5289
15377SOL    HW146974   7.253   0.534   2.192  0.4696  0.3590  1.2554
15377SOL    HW246975   7.313   0.599   2.069  1.4603 -1.5690  0.6701
15378SOL     OW46976   3.658   6.765   4.422 -0.0114  0.2019  0.3540
15378SOL    HW146977   3.738   6.738   4.467  1.3617  2.1961 -0.7169
15378SOL    HW246978   3.633   6.847   4.464 -1.5775 -0.4136  0.7059
15379SOL     OW46979   3.163   5.860   1.369  0.1510  0.1854 -0.1357
15379SOL    HW146980   3.255   5.854   1.395 -0.4060 -0.8852  1.7739
15379SOL    HW246981   3.125   5.776   1.393 -1.3307  0.5675 -0.9710
15380SOL     OW46982   2.346   2.159   1.379  0.0565  0.1804  0.3039
15380SOL    HW146983   2.307   2.115   1.455 -0.6094 -1.7965 -1.1034
15380SOL    HW246984   2.415   2.214   1.416  0.7500 -1.8426  2.2232
15381SOL     OW46985   5.899   7.699   2.774  0.4146  0.3143  0.1608
15381SOL    HW146986   5.919   7.620   2.824 -0.7002  0.4794  0.9383
15381SOL    HW246987   5.897   7.769   2.840 -2.1430  0.3711  0.1467
15382SOL     OW46988   2.898   3.622   4.953 -0.2193  0.0393  0.0091
15382SOL    HW146989   2.899   3.711   4.987 -1.3308  1.1988 -2.6806
15382SOL    HW246990   2.807   3.607   4.926  0.1377 -1.5368 -0.4484
15383SOL     OW46991   2.643   5.974   8.084 -0.3499  0.0783  0.3467
15383SOL    HW146992   2.567   5.977   8.142 -0.7841  0.2349 -0.2218
15383SOL    HW246993   2.663   5.881   8.076 -1.1909 -0.0486 -0.4055
15384SOL     OW46994   2.463   6.805   6.623 -0.2843 -0.3662  0.1058
15384SOL    HW146995   2.451   6.892   6.584 -2.8326 -1.2045 -1.1997
15384SOL    HW246996   2.522   6.760   6.564 -0.2780 -0.0495 -0.1365
15385SOL     OW46997   6.603   0.027   4.038  0.0492 -0.3589  0.1514
15385SOL    HW146998   6.668  -0.038   4.012 -0.0568 -1.0833  1.5950
15385SOL    HW246999   6.654   0.097   4.079  0.3806  1.5090 -3.1138
15386SOL     OW47000   2.691   7.454   4.339  0.1606  0.5567  0.2535
15386SOL    HW147001   2.755   7.524   4.351  1.3688  0.2284 -3.0839
15386SOL    HW247002   2.609   7.499   4.321  1.0658  1.3372 -2.5850
15387SOL     OW47003   4.974   4.950   0.598 -0.0175  0.3232  0.3346
15387SOL    HW147004   4.909   4.881   0.615 -0.0013  0.4636  1.0189
15387SOL    HW247005   5.044   4.932   0.661 -0.3685  1.4201  1.0679
15388SOL     OW47006   1.069   4.991   1.971 -0.8294 -0.0641  0.1918
15388SOL    HW147007   1.014   4.951   2.038  0.6283 -2.1897  0.2090
15388SOL    HW247008   1.011   5.000   1.895 -1.7930 -0.0592  0.8998
15389SOL     OW47009   2.926   5.414   4.813 -0.1859  0.1904  0.0558
15389SOL    HW147010   2.855   5.361   4.778 -0.0633 -0.2109  0.3946
15389SOL    HW247011   2.947   5.372   4.897 -0.1707  0.8564  0.3840
15390SOL     OW47012   3.867   5.064   4.759 -0.0904  0.2921  0.6157
15390SOL    HW147013   3.912   5.017   4.829  0.2135  0.8955  0.8321
15390SOL    HW247014   3.889   5.015   4.680  2.3691  1.5166  0.4653
15391SOL     OW47015   3.722   0.422   8.073 -0.0632 -0.5074  0.2201
15391SOL    HW147016   3.716   0.331   8.045 -0.1642 -0.1757 -0.9155
15391SOL    HW247017   3.775   0.420   8.153  0.0931 -1.5356  0.1002
15392SOL     OW47018   7.705   5.338   7.445 -0.3858 -0.3245 -0.0517
15392SOL    HW147019   7.781   5.395   7.459 -1.2184  1.1888 -1.4217
15392SOL    HW247020   7.738   5.266   7.391  0.0093  0.4747 -0.8792
15393SOL     OW47021   2.833   5.457   2.581 -0.3341  0.2309 -0.1446
15393SOL    HW147022   2.765   5.398   2.549 -1.3229  1.4240 -0.3146
15393SOL    HW247023   2.873   5.493   2.502 -0.3184  0.4414 -0.0417
15394SOL     OW47024   1.900   7.661   6.415  0.1465 -0.0608 -0.5026
15394SOL    HW147025   1.824   7.654   6.357  1.4384 -0.9989 -2.1284
15394SOL    HW247026   1.900   7.579   6.464 -0.9683  0.7477  0.9464
15395SOL     OW47027   0.502   7.831   3.597  0.2389  0.1061 -0.3690
15395SOL    HW147028   0.443   7.770   3.553 -1.0206  1.0367 -0.0158
15395SOL    HW247029   0.466   7.840   3.685  0.7556  0.8935 -0.2312
15396SOL     OW47030   0.923   7.063   4.810 -0.3069 -0.1242  0.1166
15396SOL    HW147031   0.923   6.969   4.827  0.7984 -0.1331  0.0881
15396SOL    HW247032   1.014   7.090   4.821 -0.7641  1.1101  0.9913
15397SOL     OW47033   7.757   1.427   2.126 -0.2228 -0.5479  0.4278
15397SOL    HW147034   7.772   1.333   2.114  0.5823 -0.3456 -0.2606
15397SOL    HW247035   7.742   1.437   2.220  0.5722 -1.2481  0.6458
15398SOL     OW47036   2.134   0.063   0.528 -0.3232 -0.6096 -0.1540
15398SOL    HW147037   2.074   0.058   0.603 -0.4311  1.3419 -0.0472
15398SOL    HW247038   2.199   0.128   0.554  0.9945 -1.5989 -0.8767
15399SOL     OW47039   5.523   6.787   1.739 -0.0017  0.2564  0.4759
15399SOL    HW147040   5.436   6.813   1.769 -0.1265 -2.3960  2.8722
15399SOL    HW247041   5.507   6.714   1.679  0.5468  0.2009  0.3952
15400SOL     OW47042   5.323   2.277   3.234  0.2047 -0.6243  0.9751
15400SOL    HW147043   5.243   2.253   3.188  0.4832  0.2263  0.0099
15400SOL    HW247044   5.293   2.324   3.312 -0.2373  0.2400  0.2980
15401SOL     OW47045   4.318   4.000   6.763 -0.1770  0.7114  0.0010
15401SOL    HW147046   4.307   3.961   6.676  1.7791  0.6954 -0.2697
15401SOL    HW247047   4.412   4.017   6.771  0.0581 -1.2798  2.9841
15402SOL     OW47048   0.778   1.159   8.057 -0.9062 -0.4342  0.5887
15402SOL    HW147049   0.824   1.119   8.131  1.4318  1.0587  0.0708
15402SOL    HW247050   0.694   1.186   8.093 -0.5972 -1.4063  2.1825
15403SOL     OW47051   0.528   7.838   0.168 -0.0535 -0.0291 -0.1107
15403SOL    HW147052   0.513   7.880   0.253 -1.6910 -2.0553  0.6671
15403SOL    HW247053   0.618   7.863   0.145  0.3138  0.8438  2.0402
15404SOL     OW47054   3.424   4.865   6.653  0.3094 -1.0182  0.0557
15404SOL    HW147055   3.409   4.942   6.599  1.1663  0.7380  2.1759
15404SOL    HW247056   3.500   4.887   6.707  0.3591 -3.2038  0.9977
15405SOL     OW47057   2.868   7.244   0.846  0.1789 -0.1438  0.0826
15405SOL    HW147058   2.934   7.307   0.875 -0.1863 -0.3078  1.3152
15405SOL    HW247059   2.845   7.195   0.924  0.2508 -1.6491 -0.8022
15406SOL     OW47060   5.832   7.547   4.057  0.5222  0.1815 -0.8091
15406SOL    HW147061   5.889   7.476   4.087 -1.4044 -1.1670 -0.1417
15406SOL    HW247062   5.747   7.505   4.042 -0.7329  2.3621 -0.2851
15407SOL     OW47063   7.047   3.453   7.428  0.9156  0.0943 -0.5117
15407SOL    HW147064   7.060   3.548   7.433  0.5809  0.0985  0.6228
15407SOL    HW247065   6.980   3.435   7.495  0.1066 -0.7885 -1.5311
15408SOL     OW47066   2.474   4.216   0.228 -0.8275 -0.1331 -0.2208
15408SOL    HW147067   2.455   4.143   0.287 -0.7007 -0.3259 -0.4158
15408SOL    HW247068   2.504   4.174   0.147  0.0756  0.1468 -0.0515
15409SOL     OW47069   3.143   5.040   1.211  0.0811 -0.2394  0.5065
15409SOL    HW147070   3.050   5.019   1.221 -0.0293 -0.3990 -0.6845
15409SOL    HW247071   3.180   5.026   1.298 -1.0227 -0.0834  1.0195
15410SOL     OW47072   0.884   0.337   6.679 -0.0099  0.4783 -0.3922
15410SOL    HW147073   0.837   0.414   6.645 -1.3052  0.0588  0.3529
15410SOL    HW247074   0.852   0.264   6.626 -0.6006  0.1122  0.4356
15411SOL     OW47075   7.674   3.542   1.597  0.5586 -0.5878  1.0663
15411SOL    HW147076   7.587   3.575   1.621  1.5744  1.6675  1.8998
15411SOL    HW247077   7.665   3.515   1.506 -0.7713  0.5716  0.8259
15412SOL     OW47078   0.359   1.867   7.872  0.4372  0.1477 -0.5938
15412SOL    HW147079   0.384   1.779   7.900 -1.1754  0.2638  1.4349
15412SOL    HW247080   0.269   1.858   7.842  0.3197  1.0677 -0.5456
15413SOL     OW47081   3.983   7.211   7.539  0.1920 -0.1587 -0.1698
15413SOL    HW147082   4.073   7.201   7.509  1.3835  0.0064  2.9082
15413SOL    HW247083   3.946   7.122   7.534  1.2475 -0.6584  0.4001
15414SOL     OW47084   2.341   7.688   7.622  0.1296  0.1599 -0.4062
15414SOL    HW147085   2.430   7.683   7.655  0.0901  2.9339  0.2953
15414SOL    HW247086   2.343   7.755   7.555 -1.4256  0.2599 -0.3957
15415SOL     OW47087   6.940   5.989   8.048 -0.0908 -0.2783  0.2073
15415SOL    HW147088   6.859   6.008   8.095  0.2329 -0.9632  1.0881
15415SOL    HW247089   7.009   6.024   8.106  0.2006  1.9575 -1.3685
15416SOL     OW47090   3.170   2.081   2.545 -0.2812 -0.0139 -0.3790
15416SOL    HW147091   3.088   2.064   2.498 -0.9318 -0.8618  0.9969
15416SOL    HW247092   3.143   2.126   2.626  0.5373 -0.7663  0.3360
15417SOL     OW47093   3.112   0.725   4.136  0.1994  0.1410  0.5155
15417SOL    HW147094   3.180   0.709   4.071 -1.0898 -1.1414 -0.5956
15417SOL    HW247095   3.147   0.794   4.191  2.4051 -0.4889  0.0061
15418SOL     OW47096   7.182   0.081   0.214  0.1902 -0.2346  0.2224
15418SOL    HW147097   7.162   0.174   0.206  1.2675  0.0830  0.8978
15418SOL    HW247098   7.260   0.079   0.269  0.0248 -1.5608  0.4269
15419SOL     OW47099   3.798   1.096   0.830 -0.3182 -0.4720 -0.2443
15419SOL    HW147100   3.770   1.038   0.902 -0.3667 -1.0142 -0.6945
15419SOL    HW247101   3.773   1.049   0.751 -1.1267  0.5472 -0.6207
15420SOL     OW47102   2.755   1.437   6.425 -0.7571 -0.6786  0.6861
15420SOL    HW147103   2.783   1.462   6.513 -1.3888  0.4347  0.5834
15420SOL    HW247104   2.660   1.448   6.425 -0.6311  0.7336 -0.5381
15421SOL     OW47105   7.925   2.111   4.123  0.0579 -0.0483 -0.1793
15421SOL    HW147106   7.832   2.125   4.143  0.2319  2.0657 -0.6349
15421SOL    HW247107   7.928   2.107   4.027  0.5061  0.4923 -0.1906
15422SOL     OW47108   3.852   1.270   6.472 -0.0708  0.3462 -0.1123
15422SOL    HW147109   3.770   1.278   6.424  0.1125  2.2720 -0.1618
15422SOL    HW247110   3.920   1.273   6.403  0.0704 -1.3501 -0.0849
15423SOL     OW47111   3.003   0.082   8.107 -0.0630 -0.3584 -0.1737
15423SOL    HW147112   3.077   0.117   8.057  0.7871 -1.5552  0.2078
15423SOL    HW247113   2.930   0.082   8.045  0.9661 -1.8138 -1.4501
15424SOL     OW47114   1.934   4.142   4.109  0.6861  0.4549  0.2855
15424SOL    HW147115   1.893   4.226   4.125  1.0261  0.5970  0.4147
15424SOL    HW247116   1.958   4.110   4.196  0.0577 -0.0305  0.2852
15425SOL     OW47117   3.683   6.159   7.710 -0.3640  0.1779  0.0911
15425SOL    HW147118   3.611   6.203   7.756  0.1130  0.6514  0.3930
15425SOL    HW247119   3.740   6.127   7.780 -1.9853 -3.2797  0.0512
15426SOL     OW47120   4.890   4.994   1.207 -0.0089 -0.4670  0.5874
15426SOL    HW147121   4.947   4.956   1.274 -0.5531 -0.4903  1.0451
15426SOL    HW247122   4.911   5.087   1.209  0.3889 -0.5493  0.3840
15427SOL     OW47123   8.067   0.382   0.558  0.2571 -0.0196  0.3786
15427SOL    HW147124   8.103   0.438   0.489 -1.3232 -1.1090 -1.4501
15427SOL    HW247125   8.143   0.351   0.606  1.6643 -0.7836 -2.1495
15428SOL     OW47126   6.196   5.273   5.222 -0.4170  0.4986  0.2841
15428SOL    HW147127   6.194   5.292   5.315 -1.0522 -0.5161  0.4831
15428SOL    HW247128   6.217   5.358   5.181  1.6704  0.6099  1.4143
15429SOL     OW47129   0.190   8.040   0.470 -0.4757  0.1487  0.5291
15429SOL    HW147130   0.273   8.086   0.474  0.1070 -0.9410  1.7921
15429SOL    HW247131   0.145   8.064   0.552 -1.3157  0.5490 -0.0341
15430SOL     OW47132   6.969   2.143   6.298 -0.0625  0.1712  0.6856
15430SOL    HW147133   6.969   2.233   6.267  1.9754 -0.4341 -1.3300
15430SOL    HW247134   7.043   2.139   6.359 -0.3113 -0.0950  0.9741
15431SOL     OW47135   6.122   1.907   6.475 -0.4123 -0.2760 -0.1125
15431SOL    HW147136   6.057   1.840   6.452  1.2706 -1.2938 -2.3470
15431SOL    HW247137   6.102   1.981   6.418 -1.1456  0.4525  1.0514
15432SOL     OW47138   4.574   1.156   1.974 -0.7276  0.1437  0.0279
15432SOL    HW147139   4.597   1.221   1.908 -0.5017 -0.5090 -0.5464
15432SOL    HW247140   4.518   1.094   1.928 -3.1165  1.2694  1.1858
15433SOL     OW47141   6.503   7.828   3.030 -0.4894 -0.4694 -0.1751
15433SOL    HW147142   6.479   7.791   2.944 -1.2617 -0.1980 -0.0916
15433SOL    HW247143   6.573   7.890   3.010  0.7570 -1.8617 -0.3302
15434SOL     OW47144   2.527   3.244   3.551 -0.0630 -0.2272  0.4611
15434SOL    HW147145   2.466   3.218   3.482  0.6312  0.0587 -0.2739
15434SOL    HW247146   2.571   3.321   3.515  0.3071 -0.0806  1.2288
15435SOL     OW47147   3.645   2.889   5.190  0.1807 -0.0746 -0.3170
15435SOL    HW147148   3.733   2.852   5.182  0.0349 -1.0108  1.8660
15435SOL    HW247149   3.588   2.824   5.150  0.4375  0.5139 -1.6960
15436SOL     OW47150   2.260   2.019   3.082 -0.2458 -0.1576 -0.7096
15436SOL    HW147151   2.185   2.072   3.054  0.7501  1.4898 -0.3747
15436SOL    HW247152   2.222   1.953   3.141 -1.3026  1.5178  0.5773
15437SOL     OW47153   8.013   3.125   5.224  0.2888 -0.5875  0.2988
15437SOL    HW147154   8.066   3.190   5.270 -0.2409 -0.6852  1.0800
15437SOL    HW247155   8.049   3.122   5.136  0.8220  0.1961  0.4781
15438SOL     OW47156   2.405   7.014   0.610  0.5958 -0.4387 -0.3791
15438SOL    HW147157   2.345   6.990   0.681  0.2566 -1.3272 -0.9403
15438SOL    HW247158   2.490   6.980   0.638  0.7083  0.2507  0.1269
15439SOL     OW47159   5.513   6.234   7.636 -0.0421  0.4013  0.1906
15439SOL    HW147160   5.424   6.227   7.672  0.2866 -0.6736  0.8489
15439SOL    HW247161   5.569   6.201   7.706  0.8133  0.3345 -0.5154
15440SOL     OW47162   1.011   5.898   7.719 -0.8742  0.1451 -0.3177
15440SOL    HW147163   0.994   5.870   7.629 -1.6239 -1.4343  0.2865
15440SOL    HW247164   0.968   5.832   7.773  0.2698  0.6076  1.2174
15441SOL     OW47165   4.734   6.371   3.626 -0.0800 -0.7906 -0.4002
15441SOL    HW147166   4.799   6.386   3.557  0.5636 -0.9474  0.1718
15441SOL    HW247167   4.679   6.301   3.591  0.4212 -1.0729 -0.6321
15442SOL     OW47168   4.247   4.938   5.683 -0.2238 -0.6839 -0.2292
15442SOL    HW147169   4.162   4.983   5.680  0.5420  0.7773 -2.1550
15442SOL    HW247170   4.250   4.886   5.602  0.6721 -0.7853 -0.1417
15443SOL     OW47171   4.628   3.770   6.371 -0.6458  0.0902  0.4179
15443SOL    HW147172   4.661   3.854   6.404  0.9165 -0.5887  0.6607
15443SOL    HW247173   4.544   3.792   6.331  0.0256  1.8936 -0.1158
15444SOL     OW47174   2.632   4.756   4.886  0.4038 -0.6133 -0.2399
15444SOL    HW147175   2.648   4.798   4.802 -1.0993  0.6492  0.0574
15444SOL    HW247176   2.666   4.818   4.951  2.6338 -2.0925  0.1115
15445SOL     OW47177   2.513   1.782   2.299 -0.6846  0.0401  0.0176
15445SOL    HW147178   2.469   1.700   2.276  0.5491 -0.5779 -0.2602
15445SOL    HW247179   2.507   1.836   2.220 -0.1135 -0.4252 -0.3518
15446SOL     OW47180   6.663   6.024   3.061  0.1757 -0.0627 -0.0021
15446SOL    HW147181   6.585   6.080   3.057  1.0978  1.2467 -0.0928
15446SOL    HW247182   6.673   6.003   3.153 -1.6995 -2.3730 -0.1989
15447SOL     OW47183   6.612   4.165   7.639 -0.0887  0.4419  0.1987
15447SOL    HW147184   6.675   4.234   7.617  0.4267  0.8027  2.5432
15447SOL    HW247185   6.544   4.210   7.689 -0.7258 -0.4390  0.1376
15448SOL     OW47186   5.877   5.749   0.206 -0.2091 -0.0667  0.3545
15448SOL    HW147187   5.933   5.782   0.277  0.4785  0.2991 -0.3496
15448SOL    HW247188   5.902   5.800   0.129 -0.0179 -1.3603 -0.4650
15449SOL     OW47189   1.783   3.585   0.573 -0.4857  0.4917  0.8633
15449SOL    HW147190   1.833   3.504   0.562 -0.5230  0.5708  0.1112
15449SOL    HW247191   1.715   3.581   0.506 -1.1843  0.6314  1.5413
15450SOL     OW47192   5.271   4.702   0.807 -0.0304  0.0820 -0.2187
15450SOL    HW147193   5.203   4.665   0.751  1.0047 -2.1399 -0.1153
15450SOL    HW247194   5.275   4.643   0.883  0.7138  1.2712  0.7100
15451SOL     OW47195   5.305   6.059   7.704  0.0056  0.6471  0.2908
15451SOL    HW147196   5.216   6.082   7.680 -0.5615 -1.5235  0.2033
15451SOL    HW247197   5.315   6.092   7.794 -1.1107  0.3313  0.5430
15452SOL     OW47198   0.716   6.327   4.512  0.1855  0.0350 -0.2626
15452SOL    HW147199   0.748   6.372   4.590 -1.2231  0.7040 -0.0334
15452SOL    HW247200   0.696   6.238   4.542 -0.6302  0.3706  0.2459
15453SOL     OW47201   7.222   1.255   3.889 -0.6892  0.4803  0.2171
15453SOL    HW147202   7.187   1.342   3.908 -0.0150  1.1301 -1.3857
15453SOL    HW247203   7.166   1.221   3.819  1.8843  1.6918 -2.6701
15454SOL     OW47204   0.087   2.271   1.689 -0.2122 -0.3294  0.2104
15454SOL    HW147205   0.025   2.302   1.623  0.0931 -1.3788 -0.5817
15454SOL    HW247206   0.068   2.178   1.699 -0.2836 -0.1876  1.6473
15455SOL     OW47207   3.568   7.744   4.402  0.4880  0.5548 -0.0318
15455SOL    HW147208   3.549   7.765   4.494 -0.4017  1.2329 -0.3617
15455SOL    HW247209   3.483   7.746   4.358  1.0310  1.3984 -1.0956
15456SOL     OW47210   1.451   4.601   2.708 -0.3029  0.1516  0.0712
15456SOL    HW147211   1.484   4.691   2.715 -1.8551  1.0354 -2.4225
15456SOL    HW247212   1.456   4.566   2.797  1.3842  2.3129  0.9038
15457SOL     OW47213   2.392   6.948   7.073  0.5649 -0.1258  0.3366
15457SOL    HW147214   2.304   6.986   7.073  0.8358  0.5115  0.4576
15457SOL    HW247215   2.412   6.933   6.981  0.6634  0.5207  0.2496
15458SOL     OW47216   1.017   1.703   4.299  0.1191 -0.1791  0.9178
15458SOL    HW147217   0.948   1.644   4.330  0.2967 -1.0705 -0.3273
15458SOL    HW247218   1.075   1.648   4.247  0.0179  1.1863 -0.7222
15459SOL     OW47219   6.322   7.597   7.892  0.8730 -0.0185  0.7585
15459SOL    HW147220   6.259   7.526   7.878  1.1086  0.2518 -2.3780
15459SOL    HW247221   6.269   7.677   7.887  1.4350  0.2536 -2.7812
15460SOL     OW47222   5.696   4.234   6.009  0.5504  0.0299 -0.4978
15460SOL    HW147223   5.779   4.198   5.978  1.2789  0.2342  1.0982
15460SOL    HW247224   5.637   4.228   5.934  1.9774 -0.2083 -1.6419
15461SOL     OW47225   5.185   3.361   6.379 -0.5707 -0.2737  0.0230
15461SOL    HW147226   5.272   3.382   6.413 -0.2866 -0.5346 -0.5347
15461SOL    HW247227   5.181   3.404   6.294 -0.8679 -0.5294 -0.0953
15462SOL     OW47228   2.184   3.781   4.810  0.2277 -0.2636 -0.0946
15462SOL    HW147229   2.191   3.872   4.839 -3.0887 -0.8567  3.3478
15462SOL    HW247230   2.091   3.769   4.790  0.4419 -3.0017  0.1164
15463SOL     OW47231   5.420   4.029   5.387  0.9292 -0.9055 -0.1246
15463SOL    HW147232   5.346   3.970   5.377 -0.5241  0.4518  1.7787
15463SOL    HW247233   5.478   3.985   5.450  0.9360 -1.2584 -0.3784
15464SOL     OW47234   6.522   7.887   3.789  0.0138 -0.0300 -0.1112
15464SOL    HW147235   6.446   7.885   3.731  0.4077  0.5138 -0.6615
15464SOL    HW247236   6.510   7.967   3.841  0.2787  0.1313 -0.2966
15465SOL     OW47237   7.544   4.538   0.463 -0.1615  0.4975 -0.6091
15465SOL    HW147238   7.501   4.515   0.545  1.1934 -0.2777 -0.0788
15465SOL    HW247239   7.515   4.627   0.445  0.6484  1.2505  1.5156
15466SOL     OW47240   6.409   3.034   6.475 -0.1311 -0.2536 -0.3066
15466SOL    HW147241   6.403   3.076   6.389 -0.6603  0.4218  0.0518
15466SOL    HW247242   6.328   3.058   6.520  0.8292  0.8078  0.9882
15467SOL     OW47243   3.730   6.285   1.438 -0.1522  0.1187 -0.2507
15467SOL    HW147244   3.753   6.193   1.427 -1.3393 -0.0593 -1.4951
15467SOL    HW247245   3.650   6.296   1.386  0.2429  1.9642 -0.5354
15468SOL     OW47246   8.187   3.662   6.871 -0.0744 -0.2867  0.0076
15468SOL    HW147247   8.155   3.729   6.930  0.7263 -0.4537  0.6572
15468SOL    HW247248   8.164   3.693   6.783  0.3921  0.8914  0.2880
15469SOL     OW47249   4.877   1.305   2.493  0.0275 -0.6144  0.5339
15469SOL    HW147250   4.898   1.245   2.565 -1.2615 -2.4864 -0.5442
15469SOL    HW247251   4.932   1.275   2.421  1.2288  1.1782  0.6478
15470SOL     OW47252   6.319   4.038   3.030  0.2428  0.8829  0.0120
15470SOL    HW147253   6.405   4.031   2.989 -0.1566 -0.8006 -0.6087
15470SOL    HW247254   6.280   3.951   3.022 -1.0547  1.2775  1.3521
15471SOL     OW47255   4.180   7.703   3.101  0.3719 -0.0502 -0.0914
15471SOL    HW147256   4.133   7.754   3.035  0.3100  0.4024  0.3017
15471SOL    HW247257   4.248   7.762   3.134 -0.4567  0.2002  1.2229
15472SOL     OW47258   2.412   5.696   3.903 -0.5489  0.2033  0.3969
15472SOL    HW147259   2.347   5.757   3.868 -0.3910  0.6353  0.8581
15472SOL    HW247260   2.377   5.610   3.882  0.0215  0.4258 -1.7602
15473SOL     OW47261   4.432   4.211   6.050  0.1987  0.0480  0.6733
15473SOL    HW147262   4.456   4.288   5.999 -1.6876 -0.3368 -0.9300
15473SOL    HW247263   4.516   4.174   6.078  1.3592  0.4458 -1.9543
15474SOL     OW47264   7.621   7.190   5.832  0.2431 -0.0215  0.1657
15474SOL    HW147265   7.578   7.141   5.903  0.4503 -0.0921  0.2412
15474SOL    HW247266   7.567   7.269   5.822  0.6804  0.3959  0.9693
15475SOL     OW47267   5.860   7.045   2.366  0.2528 -0.2502  0.5233
15475SOL    HW147268   5.775   7.003   2.384  0.7946 -1.3622  0.5492
15475SOL    HW247269   5.894   7.068   2.453  0.2556 -0.3698  0.5543
15476SOL     OW47270   5.605   1.665   0.549 -0.0238 -0.3069 -0.6251
15476SOL    HW147271   5.672   1.717   0.504  1.4230 -0.6878  0.9864
15476SOL    HW247272   5.598   1.585   0.497  3.2842 -1.7489  0.8777
15477SOL     OW47273   5.359   7.230   1.453 -0.1437  0.1010  0.0811
15477SOL    HW147274   5.288   7.283   1.417  0.6619  0.4334 -1.0869
15477SOL    HW247275   5.333   7.139   1.435 -0.5852  0.1885  0.2725
15478SOL     OW47276   4.037   6.605   3.123 -0.1396 -0.7980 -0.0122
15478SOL    HW147277   4.070   6.688   3.158  1.2224 -0.5395 -1.7627
15478SOL    HW247278   4.078   6.538   3.177  1.0726 -0.3884 -0.3952
15479SOL     OW47279   0.949   4.530   0.978 -0.1197 -0.2930  0.0674
15479SOL    HW147280   0.974   4.447   0.937  0.2542 -0.2910  0.2830
15479SOL    HW247281   1.033   4.573   0.997 -0.3021  1.2085 -2.1800
15480SOL     OW47282   6.906   5.253   3.338  0.5048  0.4392 -0.2642
15480SOL    HW147283   6.826   5.279   3.384  0.8637 -0.7339  1.0813
15480SOL    HW247284   6.881   5.176   3.287  0.4061  1.0034 -1.0748
15481SOL     OW47285   3.656   5.222   4.811  0.4511 -0.1470  0.0501
15481SOL    HW147286   3.738   5.178   4.786 -0.0726 -1.2495  0.2533
15481SOL    HW247287   3.616   5.246   4.728  1.4654  1.3927 -0.0603
15482SOL     OW47288   5.314   4.311   8.082  0.2646 -0.2797 -0.2583
15482SOL    HW147289   5.264   4.356   8.151  0.0123 -2.4321  1.0453
15482SOL    HW247290   5.265   4.230   8.066  1.5628 -0.8770 -1.3520
15483SOL     OW47291   3.821   1.300   1.333 -0.1928  0.1025  0.7851
15483SOL    HW147292   3.787   1.293   1.244  1.6412  0.2353  0.0106
15483SOL    HW247293   3.815   1.211   1.368 -2.0732  0.2855  1.0245
15484SOL     OW47294   0.454   1.449   2.230 -0.8767  0.0750 -0.1544
15484SOL    HW147295   0.404   1.430   2.151  0.8479 -1.4726 -0.9463
15484SOL    HW247296   0.390   1.490   2.289 -2.0936  1.8252 -2.4952
15485SOL     OW47297   3.042   7.794   0.468 -0.3879  0.0318 -0.6585
15485SOL    HW147298   3.010   7.707   0.495 -1.0251  0.8457  1.4100
15485SOL    HW247299   3.136   7.790   0.482 -0.1368 -0.8474 -2.2721
15486SOL     OW47300   5.491   0.170   6.604 -0.1827 -0.2946 -0.4932
15486SOL    HW147301   5.471   0.175   6.697 -0.8644  2.5179 -0.6789
15486SOL    HW247302   5.405   0.174   6.561  0.2052  0.4836 -1.2279
15487SOL     OW47303   4.015   6.983   0.192 -0.0648  0.2392 -0.2377
15487SOL    HW147304   4.108   6.973   0.212 -0.6945 -1.8023  2.3185
15487SOL    HW247305   3.989   6.898   0.154 -1.1754  0.1377  0.6828
15488SOL     OW47306   7.084   5.128   4.130  0.0605  0.4232  0.1375
15488SOL    HW147307   7.167   5.140   4.085  0.2009  1.5621  0.6723
15488SOL    HW247308   7.073   5.033   4.134  0.9889  0.2737 -0.5535
15489SOL     OW47309   2.790   6.953   5.375  0.0672 -0.2069  0.2686
15489SOL    HW147310   2.878   6.926   5.346  0.5799  0.3299  1.2834
15489SOL    HW247311   2.788   7.047   5.360 -0.2943 -0.2019  0.3475
15490SOL     OW47312   2.640   6.247   4.292 -0.8714 -0.1637  0.0605
15490SOL    HW147313   2.709   6.182   4.297  0.2153  0.8581 -0.9522
15490SOL    HW247314   2.589   6.222   4.215 -0.0988  0.4720 -0.6832
15491SOL     OW47315   2.107   7.753   8.102  0.4677 -0.4972  0.3481
15491SOL    HW147316   2.109   7.657   8.104  0.8203 -0.5293 -0.9641
15491SOL    HW247317   2.189   7.778   8.059  1.2532  0.4850  2.2605
15492SOL     OW47318   4.712   7.019   8.090  0.0479  0.3443 -0.6378
15492SOL    HW147319   4.734   6.926   8.090  2.2773  0.8086 -0.1905
15492SOL    HW247320   4.761   7.055   8.016  1.8335  1.6176  1.0242
15493SOL     OW47321   7.484   7.644   1.177  0.0585  0.0798  0.1557
15493SOL    HW147322   7.407   7.619   1.126 -0.9850  0.7833  1.3402
15493SOL    HW247323   7.475   7.738   1.190  1.4959  0.3010 -0.2637
15494SOL     OW47324   8.081   5.655   3.176  0.3526  1.0488  0.2926
15494SOL    HW147325   8.096   5.728   3.116  0.0162 -0.0172 -1.1701
15494SOL    HW247326   7.989   5.664   3.201 -0.2235  0.1362 -1.3575
15495SOL     OW47327   7.415   8.190   0.370  0.2702 -0.6138  0.3507
15495SOL    HW147328   7.407   8.164   0.462  0.0247  1.7708  1.0848
15495SOL    HW247329   7.478   8.262   0.371 -1.3650  0.9455 -0.9646
15496SOL     OW47330   5.242   0.913   6.444 -0.0990  0.4209 -0.0633
15496SOL    HW147331   5.246   0.995   6.494 -1.2937  0.5528 -0.1513
15496SOL    HW247332   5.326   0.871   6.461  0.3220  1.4067  0.4251
15497SOL     OW47333   3.569   5.264   1.908 -0.2076  0.1720 -0.2170
15497SOL    HW147334   3.503   5.195   1.901  0.2082 -0.2575  0.0200
15497SOL    HW247335   3.652   5.218   1.900  0.2261  0.1929  3.0054
15498SOL     OW47336   6.079   4.566   7.804 -0.3280 -0.3832 -0.1731
15498SOL    HW147337   6.008   4.623   7.831 -0.6165 -0.7275 -0.1960
15498SOL    HW247338   6.077   4.569   7.708 -1.8487 -2.2349 -0.2472
15499SOL     OW47339   0.923   3.525   1.272 -0.4768 -0.3613 -0.1725
15499SOL    HW147340   0.878   3.578   1.338  1.0127  0.0793  0.5417
15499SOL    HW247341   0.867   3.449   1.260 -1.4064  0.1664  0.6725
15500SOL     OW47342   1.719   7.760   5.239  0.3499 -0.0527 -0.5770
15500SOL    HW147343   1.758   7.826   5.297  0.0413  0.4253 -0.9078
15500SOL    HW247344   1.741   7.676   5.280  0.1552  0.2761  0.2181
15501SOL     OW47345   4.730   0.767   3.466  0.7526 -0.1263  0.0101
15501SOL    HW147346   4.637   0.770   3.441  1.1969 -0.1356 -1.8035
15501SOL    HW247347   4.729   0.742   3.558 -1.1813  3.4691  1.1762
15502SOL     OW47348   5.730   6.603   8.200 -0.2912  0.4106  0.6200
15502SOL    HW147349   5.697   6.686   8.166  0.5225  0.7462  0.6123
15502SOL    HW247350   5.678   6.586   8.278 -1.0216  0.5078  0.1648
15503SOL     OW47351   3.786   4.251   7.827 -0.2940  0.1604 -0.4325
15503SOL    HW147352   3.722   4.180   7.831  0.0006 -0.0629  0.6397
15503SOL    HW247353   3.767   4.296   7.745 -0.3500 -1.2831 -1.2407
15504SOL     OW47354   5.013   1.520   7.121  0.1137 -0.0683  0.0999
15504SOL    HW147355   5.058   1.602   7.100 -0.2667  0.0271 -0.3493
15504SOL    HW247356   4.980   1.488   7.037  1.4313 -1.3987  0.0418
15505SOL     OW47357   2.238   7.234   6.839 -0.0000 -0.2255 -0.4152
15505SOL    HW147358   2.156   7.224   6.887 -0.0884  0.9243 -0.2985
15505SOL    HW247359   2.273   7.318   6.868  0.4745 -0.0008 -1.5694
15506SOL     OW47360   6.986   8.180   7.932  0.3779  0.2873  0.1717
15506SOL    HW147361   7.045   8.183   7.857 -0.5618 -0.8390 -0.6546
15506SOL    HW247362   7.044   8.183   8.008  1.3108  2.2229 -0.5563
15507SOL     OW47363   2.774   1.353   6.726 -0.5474  0.2214 -0.1856
15507SOL    HW147364   2.714   1.427   6.714 -0.6636  0.0700 -0.5428
15507SOL    HW247365   2.785   1.347   6.821 -0.3782  0.8263 -0.1602
15508SOL     OW47366   2.063   6.289   4.088  0.0819 -0.1550  0.2772
15508SOL    HW147367   2.013   6.296   4.007  0.4049  2.1038  0.2214
15508SOL    HW247368   2.010   6.334   4.153 -0.8513 -3.1110  1.7793
15509SOL     OW47369   6.303   1.285   7.604 -0.0277 -0.3701  0.8106
15509SOL    HW147370   6.285   1.218   7.670 -2.6259 -1.1386 -0.5363
15509SOL    HW247371   6.296   1.239   7.520 -0.8857  1.3704 -0.1250
15510SOL     OW47372   1.579   7.707   1.372 -0.0030  0.2171 -0.1359
15510SOL    HW147373   1.498   7.758   1.368 -0.1506  0.0029  0.0994
15510SOL    HW247374   1.648   7.773   1.376 -0.1320  0.4036 -0.9075
15511SOL     OW47375   2.999   1.314   5.875  0.5438  0.2332  0.7973
15511SOL    HW147376   3.051   1.386   5.840  0.2704 -0.2685 -0.7170
15511SOL    HW247377   2.989   1.254   5.802  0.7173 -1.3326  2.0108
15512SOL     OW47378   7.166   0.441   3.787  0.1638  0.4492  0.2372
15512SOL    HW147379   7.187   0.534   3.790  0.4116  0.5111 -1.9105
15512SOL    HW247380   7.238   0.398   3.831  1.8982  1.0860 -1.7946
15513SOL     OW47381   3.208   4.599   1.399 -0.2475  0.6266  0.3652
15513SOL    HW147382   3.155   4.633   1.327 -0.2345  1.6032  0.8016
15513SOL    HW247383   3.170   4.514   1.419 -0.1567  0.2861 -0.8941
15514SOL     OW47384   4.413   5.400   7.330 -0.7967 -0.4331 -0.1536
15514SOL    HW147385   4.410   5.461   7.256 -1.1096  1.4331  1.3358
15514SOL    HW247386   4.354   5.437   7.395  1.4916 -0.4733  2.1429
15515SOL     OW47387   2.067   0.084   5.851 -0.1836 -0.0501  0.6189
15515SOL    HW147388   2.134   0.024   5.884  2.0087  1.2688 -1.1875
15515SOL    HW247389   2.021   0.034   5.783  1.5446  0.1961 -0.7921
15516SOL     OW47390   5.478   4.307   1.370 -0.4932  0.0803  0.0644
15516SOL    HW147391   5.452   4.236   1.428 -0.3602  1.3702  1.7747
15516SOL    HW247392   5.412   4.306   1.300  0.2068 -2.4590 -0.6588
15517SOL     OW47393   4.825   0.849   5.133  0.1117  0.5935  0.2570
15517SOL    HW147394   4.830   0.932   5.180 -0.5096  0.6944  0.1506
15517SOL    HW247395   4.903   0.801   5.162  0.6897  1.3623  0.0142
15518SOL     OW47396   5.895   3.174   2.620  0.0073 -0.2323  0.6788
15518SOL    HW147397   5.851   3.101   2.576  1.2532 -0.4104 -0.3400
15518SOL    HW247398   5.985   3.144   2.631  0.4661  1.0435  0.5054
15519SOL     OW47399   1.199   7.789   4.011  0.5325  0.4888 -0.2184
15519SOL    HW147400   1.201   7.804   4.106 -1.4059 -0.5384  0.0313
15519SOL    HW247401   1.149   7.863   3.977 -0.1970  0.0011 -0.2235
15520SOL     OW47402   2.228   4.733   1.307 -0.0817  0.0053  0.3321
15520SOL    HW147403   2.197   4.692   1.226 -0.8728  0.0415  0.6105
15520SOL    HW247404   2.150   4.737   1.363  0.0881  1.4088  0.5030
15521SOL     OW47405   7.858   7.616   5.241  0.1753  0.0771 -0.2320
15521SOL    HW147406   7.942   7.595   5.281 -0.3419 -0.0362  0.8364
15521SOL    HW247407   7.849   7.711   5.250 -0.2786 -0.0397  0.6288
15522SOL     OW47408   4.000   2.367   2.542 -0.2656 -0.3472  0.2734
15522SOL    HW147409   4.051   2.302   2.494  1.3041  0.1217  1.2495
15522SOL    HW247410   3.917   2.372   2.494  1.0956 -0.1054 -2.2180
15523SOL     OW47411   6.866   3.753   7.878  0.1905 -0.3591  0.0390
15523SOL    HW147412   6.810   3.804   7.937 -0.3504  0.6201 -1.2854
15523SOL    HW247413   6.955   3.778   7.902 -0.0672  1.2502 -0.5884
15524SOL     OW47414   1.745   4.758   4.974  0.0949 -0.0736  0.0031
15524SOL    HW147415   1.831   4.728   5.004  0.2556  1.3122  1.0014
15524SOL    HW247416   1.684   4.694   5.011  0.4819  0.4031  1.5544
15525SOL     OW47417   6.238   2.151   3.572  0.6705  0.0289 -0.1073
15525SOL    HW147418   6.313   2.209   3.566  0.2735  0.8188  1.8689
15525SOL    HW247419   6.275   2.063   3.573  1.5176  0.3841  0.1653
15526SOL     OW47420   3.579   3.440   1.141 -0.1725 -0.1165 -0.3654
15526SOL    HW147421   3.567   3.424   1.048  0.2078  0.2526 -0.4783
15526SOL    HW247422   3.541   3.363   1.184 -0.1418 -0.3909 -0.8313
15527SOL     OW47423   0.235   2.936   6.788  0.5259 -0.3385  0.1073
15527SOL    HW147424   0.284   2.951   6.707 -0.1260  0.4710 -0.1513
15527SOL    HW247425   0.288   2.872   6.836 -0.5423 -3.2428 -2.2506
15528SOL     OW47426   7.827   7.182   0.971 -0.3614 -0.5204  0.2267
15528SOL    HW147427   7.824   7.238   1.049  1.1503  0.2729 -0.2471
15528SOL    HW247428   7.919   7.159   0.962 -0.1702  0.8421 -2.3004
15529SOL     OW47429   6.827   3.505   6.232  0.8107  0.5186 -0.7960
15529SOL    HW147430   6.895   3.475   6.172  1.0510  0.2489 -0.3904
15529SOL    HW247431   6.795   3.426   6.274  2.6903  0.9184  1.6228
15530SOL     OW47432   0.942   5.835   0.972 -0.2759 -0.2515  0.2872
15530SOL    HW147433   0.910   5.746   0.956 -0.2783 -0.3793  0.9893
15530SOL    HW247434   0.934   5.847   1.066  0.6785  0.1276  0.3357
15531SOL     OW47435   7.146   4.205   3.696 -1.0381 -0.3052 -0.3992
15531SOL    HW147436   7.094   4.134   3.735 -0.9354  1.1427  2.6272
15531SOL    HW247437   7.080   4.271   3.671 -0.9196  0.5183  1.2768
15532SOL     OW47438   7.383   1.190   6.486 -0.1605 -0.7584 -0.2213
15532SOL    HW147439   7.466   1.230   6.461 -0.7072  0.2498 -0.4731
15532SOL    HW247440   7.371   1.215   6.578 -1.6471  1.7552 -1.0250
15533SOL     OW47441   6.749   1.430   3.521  0.6258  0.0914 -0.3324
15533SOL    HW147442   6.705   1.515   3.523  1.1476  0.3586  0.8847
15533SOL    HW247443   6.684   1.368   3.552  1.2677  0.6018  2.2567
15534SOL     OW47444   4.588   0.845   2.319 -0.1712  0.1902 -0.6114
15534SOL    HW147445   4.607   0.912   2.385 -1.1009  1.9313 -2.0115
15534SOL    HW247446   4.620   0.764   2.357  2.5791  1.6590  0.4840
15535SOL     OW47447   3.179   0.238   3.524  0.1521  0.7019  0.0957
15535SOL    HW147448   3.141   0.180   3.589  0.6093 -1.1020 -1.1757
15535SOL    HW247449   3.271   0.243   3.547  0.3499 -0.0835 -0.4845
15536SOL     OW47450   4.727   3.309   3.199  0.1507  0.2076  0.2029
15536SOL    HW147451   4.701   3.397   3.171 -0.3771  0.0665  0.2457
15536SOL    HW247452   4.779   3.324   3.279 -1.1704  0.3910  1.0512
15537SOL     OW47453   2.704   1.471   8.023  0.2897 -0.2379  0.6916
15537SOL    HW147454   2.705   1.516   8.107  1.0314  1.4067 -0.1389
15537SOL    HW247455   2.786   1.497   7.981 -1.8126  2.4670 -2.2187
15538SOL     OW47456   1.828   5.941   1.941  0.3918 -0.2435  0.4867
15538SOL    HW147457   1.817   6.034   1.920  0.1951 -0.1925  0.8171
15538SOL    HW247458   1.886   5.908   1.871  1.0224  0.2826  0.7462
15539SOL     OW47459   0.121   3.941   6.694  0.7428  0.4510 -0.3649
15539SOL    HW147460   0.149   3.926   6.785  1.8146  2.0947 -0.3770
15539SOL    HW247461   0.026   3.953   6.700  0.7800  0.3684  0.5112
15540SOL     OW47462   6.520   7.142   7.698 -0.7085  0.4382 -0.0836
15540SOL    HW147463   6.426   7.125   7.694 -0.6845  0.5339 -1.4924
15540SOL    HW247464   6.542   7.131   7.791 -1.7945 -1.2241  0.0235
15541SOL     OW47465   5.979   0.242   7.499 -0.0941 -0.0867 -0.0448
15541SOL    HW147466   6.049   0.217   7.439 -1.0191 -0.6351 -0.9233
15541SOL    HW247467   5.900   0.200   7.463 -1.3140  2.2940 -0.3506
15542SOL     OW47468   0.082   6.152   5.576 -0.2629  0.3633  0.1718
15542SOL    HW147469   0.175   6.142   5.556  0.1488  1.2450  1.4623
15542SOL    HW247470   0.069   6.099   5.655 -1.3354 -1.3532 -1.1076
15543SOL     OW47471   3.502   6.934   7.775  0.1574  0.0230  0.1209
15543SOL    HW147472   3.566   6.996   7.741 -0.6400 -0.0599 -1.6570
15543SOL    HW247473   3.522   6.927   7.868  1.6271  1.2867 -0.0614
15544SOL     OW47474   4.118   2.824   7.048  0.2762  0.5403 -0.0640
15544SOL    HW147475   4.182   2.891   7.021 -1.2872  1.4635 -1.7365
15544SOL    HW247476   4.121   2.759   6.978 -1.3046  1.1455 -0.7588
15545SOL     OW47477   6.063   6.276   5.143 -0.2787  0.6936  0.1104
15545SOL    HW147478   6.036   6.190   5.112  2.8272  0.1237 -1.4927
15545SOL    HW247479   6.122   6.258   5.216 -1.6296  1.6608  1.5002
15546SOL     OW47480   1.494   0.867   4.825 -0.0283 -0.0205  0.3362
15546SOL    HW147481   1.538   0.942   4.864  0.4409  0.0890 -0.3902
15546SOL    HW247482   1.431   0.839   4.892  2.1094 -1.0846  2.0459
15547SOL     OW47483   4.936   4.131   1.793 -0.3139 -0.0798 -0.0616
15547SOL    HW147484   4.927   4.041   1.760  0.2758  0.1455 -0.8834
15547SOL    HW247485   4.967   4.120   1.883 -0.2372 -0.7032 -0.1579
15548SOL     OW47486   3.604   2.572   6.013 -0.1241 -0.1404  0.0789
15548SOL    HW147487   3.626   2.522   5.935 -1.1743 -1.0333  0.3277
15548SOL    HW247488   3.667   2.544   6.079 -1.2098 -1.8222  0.4638
15549SOL     OW47489   7.455   4.166   4.842  0.3294  0.1997 -0.1902
15549SOL    HW147490   7.438   4.132   4.929 -0.8379 -0.2844 -0.5845
15549SOL    HW247491   7.386   4.231   4.827  1.3495  1.3057 -0.2236
15550SOL     OW47492   6.634   1.330   2.666  0.8344  0.1259 -0.5682
15550SOL    HW147493   6.602   1.411   2.706 -0.5353 -0.3130 -0.7261
15550SOL    HW247494   6.555   1.288   2.629  1.2236 -2.0665  0.9140
15551SOL     OW47495   0.381   5.173   3.548  0.1110  0.3441  0.1242
15551SOL    HW147496   0.308   5.229   3.524  0.3104  0.8640  0.6815
15551SOL    HW247497   0.456   5.209   3.501  0.2134  0.4796  0.3834
15552SOL     OW47498   0.563   1.374   6.653  0.4738  0.3764 -0.4205
15552SOL    HW147499   0.647   1.328   6.665  0.6607  0.4011 -1.5219
15552SOL    HW247500   0.540   1.405   6.741  2.6885  2.2220 -0.3987
15553SOL     OW47501   2.821   8.174   4.683 -0.2120 -0.7157  0.0256
15553SOL    HW147502   2.870   8.126   4.750  0.8662  0.6039  0.2196
15553SOL    HW247503   2.859   8.146   4.600  0.0438 -0.5991  0.1044
15554SOL     OW47504   4.372   2.755   5.658 -1.0544  0.3464  0.1626
15554SOL    HW147505   4.397   2.750   5.750 -0.8684  0.0583  0.0980
15554SOL    HW247506   4.453   2.735   5.611 -1.2735 -0.0299 -0.0579
15555SOL     OW47507   3.780   6.175   2.677 -0.1073 -0.0630 -0.3630
15555SOL    HW147508   3.841   6.139   2.614  0.7593 -0.9951  0.9683
15555SOL    HW247509   3.768   6.266   2.650  0.5757 -0.3252 -1.5929
15556SOL     OW47510   6.209   2.304   1.293 -0.0320 -0.3156  0.4077
15556SOL    HW147511   6.301   2.300   1.317 -0.2345 -0.4547  1.2080
15556SOL    HW247512   6.178   2.213   1.302 -0.0796 -0.4080 -0.5778
15557SOL     OW47513   2.649   7.166   0.226  0.2003  0.2428  0.7006
15557SOL    HW147514   2.668   7.127   0.311  1.3357  1.1501  0.8942
15557SOL    HW247515   2.593   7.241   0.246 -0.9186 -0.5207  0.4647
15558SOL     OW47516   0.845   7.540   7.639 -0.0889 -0.1121 -0.2850
15558SOL    HW147517   0.846   7.534   7.735 -1.1648  0.8057 -0.1955
15558SOL    HW247518   0.784   7.472   7.611  0.3633 -0.5014 -0.3438
15559SOL     OW47519   6.201   6.811   4.615 -0.7195 -0.7621 -0.0489
15559SOL    HW147520   6.199   6.854   4.701 -1.2136  0.7393 -0.7745
15559SOL    HW247521   6.131   6.853   4.566  0.2184 -0.8618 -1.5340
15560SOL     OW47522   5.490   0.069   3.712  0.6816  0.6316 -0.2888
15560SOL    HW147523   5.433   0.145   3.726 -1.0237 -0.2114 -2.0883
15560SOL    HW247524   5.432  -0.006   3.724  1.4162 -0.2772 -2.1447
15561SOL     OW47525   1.327   7.578   1.820  0.0472  0.4607  0.2741
15561SOL    HW147526   1.247   7.525   1.813  0.4566 -0.4694  2.1064
15561SOL    HW247527   1.348   7.601   1.729 -1.4042 -0.6133 -0.3832
15562SOL     OW47528   8.091   5.690   6.228  0.4654 -0.1209  0.1484
15562SOL    HW147529   8.137   5.774   6.237 -0.7566  0.5051  0.8442
15562SOL    HW247530   8.100   5.648   6.314 -0.3669  0.0814  0.3473
15563SOL     OW47531   8.007   2.050   0.162 -0.1039 -0.3182  0.9351
15563SOL    HW147532   8.034   2.016   0.077 -0.2582  1.7388  0.0041
15563SOL    HW247533   8.087   2.048   0.214  0.7192  1.1079 -0.2143
15564SOL     OW47534   3.107   7.728   2.717  0.1448  0.2468  0.2462
15564SOL    HW147535   3.180   7.666   2.709 -0.4923 -0.4588 -0.2528
15564SOL    HW247536   3.147   7.808   2.751  1.1943 -0.0483 -0.2586
15565SOL     OW47537   1.197   4.972   2.525  0.6243  0.1713  0.1002
15565SOL    HW147538   1.132   5.016   2.580  0.5447  0.6928 -0.4015
15565SOL    HW247539   1.152   4.894   2.492  0.1297  0.6997 -0.5053
15566SOL     OW47540   7.024   0.105   4.330 -0.4644  0.3103  0.9536
15566SOL    HW147541   7.037   0.091   4.424 -2.5634  0.7237  1.3699
15566SOL    HW247542   6.999   0.198   4.323 -0.6111  0.2127  0.0312
15567SOL     OW47543   3.214   1.564   7.009  0.1598 -0.0483  0.6874
15567SOL    HW147544   3.290   1.543   7.062  0.3610  2.8804  1.7399
15567SOL    HW247545   3.249   1.580   6.921  0.8294  1.4159  1.1940
15568SOL     OW47546   3.547   3.711   5.844  0.0278  0.0361 -0.1380
15568SOL    HW147547   3.464   3.746   5.811 -0.5089  1.1414  2.1645
15568SOL    HW247548   3.603   3.788   5.854  0.3834 -0.3383  0.8413
15569SOL     OW47549   3.849   6.244   5.371  0.5186 -0.0227  0.5748
15569SOL    HW147550   3.901   6.296   5.309 -0.8896  2.1275  1.0795
15569SOL    HW247551   3.783   6.201   5.318  1.5070 -1.1253  0.1888
15570SOL     OW47552   1.000   7.779   6.383 -0.2113 -0.2146  0.6071
15570SOL    HW147553   1.026   7.848   6.443 -0.4494 -0.4547  0.9871
15570SOL    HW247554   1.055   7.793   6.305  1.5741 -1.0951  1.6255
15571SOL     OW47555   1.420   5.479   5.729  0.3929 -0.4797  0.1219
15571SOL    HW147556   1.434   5.554   5.786  2.1111  0.4239 -1.3857
15571SOL    HW247557   1.372   5.514   5.654 -0.3997 -1.3113  0.2111
15572SOL     OW47558   1.736   5.424   1.100  0.4161  0.1058  0.1661
15572SOL    HW147559   1.669   5.431   1.032 -0.2348 -0.2452  0.7468
15572SOL    HW247560   1.803   5.488   1.076  0.2966 -0.1571 -0.9042
15573SOL     OW47561   1.824   4.602   1.065 -0.0570 -0.6094  0.3163
15573SOL    HW147562   1.854   4.692   1.073 -0.2614 -0.4379 -0.6888
15573SOL    HW247563   1.902   4.554   1.036 -0.2290 -0.5387 -0.2777
15574SOL     OW47564   3.726   0.073   0.890  0.0081  0.1922 -0.4292
15574SOL    HW147565   3.668  -0.002   0.881 -0.9791  0.6906  1.3178
15574SOL    HW247566   3.687   0.141   0.835  0.2189 -0.1575 -1.0275
15575SOL     OW47567   1.224   5.315   3.925 -0.1757  0.6316 -0.1385
15575SOL    HW147568   1.140   5.289   3.887 -0.1375 -1.6552  1.2019
15575SOL    HW247569   1.251   5.241   3.979  1.9025  1.9851  0.8281
15576SOL     OW47570   7.697   6.179   0.267 -0.5703  0.6964  0.3790
15576SOL    HW147571   7.746   6.129   0.332  0.7143  1.4649  0.0502
15576SOL    HW247572   7.616   6.130   0.255 -0.8254  0.5193  2.5069
15577SOL     OW47573   3.768   5.539   5.994  0.2982  0.1061  0.4201
15577SOL    HW147574   3.725   5.464   6.034 -0.3309  1.1390  1.7992
15577SOL    HW247575   3.751   5.611   6.055  2.9173  0.8439  0.4032
15578SOL     OW47576   6.533   1.430   6.664  0.2737  0.3239  0.1756
15578SOL    HW147577   6.584   1.359   6.625  0.1614  0.2488  0.1637
15578SOL    HW247578   6.460   1.442   6.603  0.5474  0.7659 -0.0655
15579SOL     OW47579   4.524   6.181   2.105  0.4041  0.3971  0.6059
15579SOL    HW147580   4.574   6.262   2.104  0.9993  0.0452  0.9552
15579SOL    HW247581   4.589   6.113   2.085 -0.4613  0.1797 -1.8013
15580SOL     OW47582   4.415   3.940   0.005 -0.2526  0.6220  0.1311
15580SOL    HW147583   4.345   3.899  -0.045  1.1242  0.0372 -1.3806
15580SOL    HW247584   4.424   4.027  -0.034 -1.1045  1.2873  1.3260
15581SOL     OW47585   2.209   5.995   6.755 -0.2062 -0.0182 -0.3242
15581SOL    HW147586   2.192   6.079   6.798  1.3030 -0.0629  0.3974
15581SOL    HW247587   2.147   5.994   6.681 -1.3135  1.0245  0.5408
15582SOL     OW47588   5.484   2.917   1.961 -0.1964 -0.5661 -0.6908
15582SOL    HW147589   5.566   2.945   2.002  0.5596 -4.1928  0.6271
15582SOL    HW247590   5.416   2.944   2.023 -0.0210  1.6066 -1.3422
15583SOL     OW47591   2.983   2.456   3.676 -0.3630 -0.1117  0.0602
15583SOL    HW147592   3.032   2.491   3.602 -0.0013 -1.4215 -0.3443
15583SOL    HW247593   3.019   2.501   3.753 -0.0683  0.5352 -0.4454
15584SOL     OW47594   7.128   4.953   3.276 -0.6831  0.1558 -0.2771
15584SOL    HW147595   7.169   5.014   3.337 -0.7543  1.1129 -1.1577
15584SOL    HW247596   7.188   4.878   3.273  0.2320  0.8685 -0.3780
15585SOL     OW47597   3.128   2.856   2.368 -0.1745 -0.8225  0.2519
15585SOL    HW147598   3.102   2.772   2.328  0.3473 -1.5177  1.3282
15585SOL    HW247599   3.099   2.849   2.459  0.2404  0.0065  0.4541
15586SOL     OW47600   5.753   4.979   4.310  0.1633  0.8145 -0.4261
15586SOL    HW147601   5.722   4.912   4.249 -0.8317  1.1702 -0.3335
15586SOL    HW247602   5.730   4.945   4.397 -0.3936  1.2867 -0.3820
15587SOL     OW47603   1.011   0.057   4.811 -0.1779 -0.1313 -0.5241
15587SOL    HW147604   1.034   0.149   4.795 -0.8671 -0.0565 -1.1572
15587SOL    HW247605   0.915   0.056   4.808 -0.4187 -0.2722  2.8152
15588SOL     OW47606   0.463   6.197   2.561  0.1621 -0.4115 -0.5800
15588SOL    HW147607   0.460   6.157   2.648 -0.5465  0.5076 -0.1653
15588SOL    HW247608   0.468   6.122   2.501  1.4938 -1.0466  0.2563
15589SOL     OW47609   0.482   1.058   1.885  0.1008  0.2181  0.4345
15589SOL    HW147610   0.507   0.967   1.904  1.8571  0.9566  1.9328
15589SOL    HW247611   0.509   1.071   1.794 -3.9772 -1.9001 -1.3601
15590SOL     OW47612   7.234   3.833   3.360  0.3573 -0.2573 -0.3923
15590SOL    HW147613   7.253   3.817   3.453  0.8003 -1.1927 -0.6275
15590SOL    HW247614   7.217   3.746   3.325  0.4351  0.0671 -1.2420
15591SOL     OW47615   1.884   0.061   5.484  0.2376 -0.2467  0.5911
15591SOL    HW147616   1.887   0.048   5.390 -0.3385  1.7040  0.2550
15591SOL    HW247617   1.796   0.094   5.501 -0.4677 -2.6983  2.1602
15592SOL     OW47618   7.145   2.982   5.612  0.1284  0.1915 -0.2117
15592SOL    HW147619   7.064   2.994   5.562 -0.6196  0.2703  0.9690
15592SOL    HW247620   7.179   3.071   5.622 -0.7835  0.4402  1.0659
15593SOL     OW47621   7.864   2.290   4.375  0.1410  0.1178  0.0929
15593SOL    HW147622   7.796   2.228   4.348 -0.2974  0.6941 -0.1505
15593SOL    HW247623   7.940   2.266   4.323  0.5936 -1.4712  1.4214
15594SOL     OW47624   6.471   2.105   6.074  0.2401  0.9621 -0.3696
15594SOL    HW147625   6.522   2.084   5.995  1.8118 -0.2381  0.8962
15594SOL    HW247626   6.537   2.116   6.142 -1.1787 -1.9171  1.6616
15595SOL     OW47627   0.058   2.579   3.529  0.2493 -0.2107 -0.2084
15595SOL    HW147628   0.062   2.485   3.547  1.9996  0.1421  1.6169
15595SOL    HW247629   0.118   2.592   3.455  0.5686 -0.4538  0.0064
15596SOL     OW47630   5.854   5.489   2.792  0.0320 -0.3577  0.6176
15596SOL    HW147631   5.835   5.531   2.708 -1.2963  0.5196  1.3400
15596SOL    HW247632   5.887   5.402   2.767 -2.5867 -1.0544 -0.8128
15597SOL     OW47633   1.540   5.270   2.517  0.0955  0.7972 -0.2171
15597SOL    HW147634   1.515   5.220   2.440  0.8142  0.1034 -0.0151
15597SOL    HW247635   1.624   5.309   2.494  0.2966  0.6139  0.1952
15598SOL     OW47636   3.771   0.997   6.821 -0.0975 -0.6638 -0.8809
15598SOL    HW147637   3.766   0.945   6.901  1.5081 -0.5580 -0.6952
15598SOL    HW247638   3.737   1.083   6.846  0.5054 -0.5978 -0.2827
15599SOL     OW47639   5.855   3.682   4.675  0.1252  0.1188  0.4367
15599SOL    HW147640   5.942   3.650   4.652 -0.1510  0.2826 -0.8886
15599SOL    HW247641   5.870   3.767   4.716  0.5685  0.2425  0.0158
15600SOL     OW47642   7.503   2.164   1.377 -0.1972 -0.1921 -0.2083
15600SOL    HW147643   7.430   2.101   1.377  0.3693 -0.9720 -3.0751
15600SOL    HW247644   7.581   2.109   1.370  0.5430  0.7339  0.6456
15601SOL     OW47645   2.359   5.008   1.105  0.0664  0.1769  0.1440
15601SOL    HW147646   2.311   4.937   1.062  1.4040 -0.1185 -0.9112
15601SOL    HW247647   2.357   5.080   1.043  0.2464  0.4550  0.4579
15602SOL     OW47648   3.576   4.015   2.804  0.0934  0.4503  0.1583
15602SOL    HW147649   3.505   3.972   2.852 -0.5149  1.7080  0.4190
15602SOL    HW247650   3.532   4.080   2.750  1.0650  1.5336  0.6333
15603SOL     OW47651   5.025   4.802   5.896 -0.1125 -0.0866  0.3426
15603SOL    HW147652   5.046   4.753   5.816 -0.6030  0.6034 -0.2205
15603SOL    HW247653   5.111   4.822   5.934  0.1654  0.4365 -0.5373
15604SOL     OW47654   5.166   0.754   5.587 -0.3526 -0.0186 -0.0141
15604SOL    HW147655   5.166   0.846   5.614 -0.3906 -0.4232  1.4378
15604SOL    HW247656   5.237   0.715   5.639 -0.3574 -0.8144 -0.6022
15605SOL     OW47657   6.379   0.335   5.027 -0.2013  0.2015 -0.1333
15605SOL    HW147658   6.440   0.378   4.968 -1.0516 -1.1024 -2.0508
15605SOL    HW247659   6.436   0.291   5.091  0.8158  0.3651 -0.8912
15606SOL     OW47660   0.136   2.699   7.925 -0.1639  0.2787 -0.2136
15606SOL    HW147661   0.123   2.650   8.006  0.5853 -1.3888 -1.0576
15606SOL    HW247662   0.229   2.723   7.925  0.1859 -0.9859 -1.2233
15607SOL     OW47663   6.098   0.032   6.738  0.7630 -0.3975 -0.0541
15607SOL    HW147664   6.006   0.039   6.763  0.8713  0.5049  0.1241
15607SOL    HW247665   6.110  -0.061   6.718 -0.3044 -0.4550 -0.5365
15608SOL     OW47666   7.780   7.650   3.383  0.3460 -0.0623  0.1334
15608SOL    HW147667   7.822   7.663   3.468 -0.0636  2.9707 -0.0318
15608SOL    HW247668   7.801   7.729   3.334 -3.4903  0.5422 -0.8379
15609SOL     OW47669   3.805   3.885   1.281 -0.4322 -0.6675 -0.2993
15609SOL    HW147670   3.764   3.971   1.290  0.2984 -0.3634  0.1985
15609SOL    HW247671   3.821   3.876   1.187 -2.2504 -1.0972 -0.5992
15610SOL     OW47672   2.423   0.344   5.193 -0.1073  0.6530  0.0323
15610SOL    HW147673   2.433   0.439   5.187  1.5456  0.5272  0.2997
15610SOL    HW247674   2.513   0.311   5.197 -0.6585 -0.9238 -0.0033
15611SOL     OW47675   6.316   7.546   4.996  0.0955 -0.1470 -0.0706
15611SOL    HW147676   6.277   7.614   5.051 -1.0434 -1.1932  0.4724
15611SOL    HW247677   6.403   7.533   5.032 -1.0034 -1.6218  2.3644
15612SOL     OW47678   8.127   3.143   0.910  0.5054 -0.3226  0.2736
15612SOL    HW147679   8.043   3.187   0.899  1.1280  1.3539  1.8987
15612SOL    HW247680   8.162   3.137   0.821 -2.1227 -2.9051 -0.7771
15613SOL     OW47681   2.956   2.049   4.230  0.2264 -0.0549 -0.2170
15613SOL    HW147682   2.892   1.978   4.222  1.4095 -1.1463 -0.2880
15613SOL    HW247683   2.917   2.110   4.292  0.4116 -2.1830  2.1456
15614SOL     OW47684   6.827   1.838   2.630 -0.1344  0.8712 -0.1377
15614SOL    HW147685   6.849   1.927   2.604  0.5066  0.4181 -1.1985
15614SOL    HW247686   6.776   1.849   2.710 -1.7478  2.2861 -1.2954
15615SOL     OW47687   5.703   2.933   0.523 -0.1005  0.4753  0.0633
15615SOL    HW147688   5.754   2.904   0.599 -0.6779  1.8182  0.9954
15615SOL    HW247689   5.620   2.887   0.531  0.2602 -0.2740 -0.4140
15616SOL     OW47690   0.642   4.223   3.925  0.0075 -0.0595  0.0026
15616SOL    HW147691   0.695   4.242   3.847  0.4676  0.7548  0.4994
15616SOL    HW247692   0.605   4.308   3.950 -0.4376 -0.3819  0.4520
15617SOL     OW47693   1.901   7.537   7.157 -0.6745  0.2590 -0.0082
15617SOL    HW147694   1.807   7.523   7.147 -0.2230 -1.8177 -2.1697
15617SOL    HW247695   1.916   7.529   7.251 -2.5045 -0.4718  0.2608
15618SOL     OW47696   6.603   3.809   6.531 -0.0257 -0.1455 -0.1156
15618SOL    HW147697   6.509   3.825   6.541  0.2972  1.0319  1.3344
15618SOL    HW247698   6.630   3.770   6.615  1.0330  0.8935  0.0493
15619SOL     OW47699   8.207   3.390   6.249  0.0348  0.8940 -0.3355
15619SOL    HW147700   8.269   3.430   6.310  0.3850  0.9059 -0.7013
15619SOL    HW247701   8.197   3.300   6.281 -0.0701  1.0099 -0.0400
15620SOL     OW47702   4.021   1.846   1.869  0.5693  0.4603  0.2712
15620SOL    HW147703   4.101   1.897   1.854  0.7140 -0.1097 -1.1167
15620SOL    HW247704   4.048   1.755   1.856  0.1825  0.0583  2.1241
15621SOL     OW47705   2.764   6.187   0.450 -0.4664  0.1411 -0.3088
15621SOL    HW147706   2.772   6.263   0.509 -1.6693  0.3728 -0.4198
15621SOL    HW247707   2.794   6.113   0.503  1.6999  0.8078 -0.5241
15622SOL     OW47708   0.722   1.818   7.718  0.5057 -0.1471  0.3929
15622SOL    HW147709   0.718   1.771   7.801 -0.7701 -0.7421  0.0159
15622SOL    HW247710   0.647   1.786   7.669  1.1593  0.3016 -0.9424
15623SOL     OW47711   6.785   3.212   0.762  0.2705 -0.4709 -0.2473
15623SOL    HW147712   6.721   3.186   0.695  0.4537  0.3198 -0.7541
15623SOL    HW247713   6.733   3.259   0.827  0.5215  1.8106 -1.5678
15624SOL     OW47714   7.193   3.682   6.240 -0.1869  1.1384 -0.0352
15624SOL    HW147715   7.122   3.639   6.193 -0.0641  2.3236 -1.4017
15624SOL    HW247716   7.153   3.716   6.320 -1.0614  1.3773 -0.5649
15625SOL     OW47717   3.563   5.610   0.124  0.0709 -0.1028  0.2380
15625SOL    HW147718   3.535   5.642   0.209 -0.2532  1.3495 -0.3936
15625SOL    HW247719   3.658   5.601   0.132 -0.1178 -1.5660  1.2439
15626SOL     OW47720   5.289   0.825   2.954 -0.5535  0.1921 -0.1736
15626SOL    HW147721   5.284   0.867   3.040  1.1698 -0.0400  0.0815
15626SOL    HW247722   5.380   0.839   2.926 -1.1768  0.6427 -2.1633
15627SOL     OW47723   4.766   7.259   4.737 -0.7506 -0.5708  0.0562
15627SOL    HW147724   4.793   7.341   4.778 -0.0607 -0.4080 -0.6986
15627SOL    HW247725   4.819   7.192   4.779 -1.1965 -0.6092  0.5586
15628SOL     OW47726   3.733   1.258   5.579  0.5163  0.1771  0.1541
15628SOL    HW147727   3.711   1.333   5.523  0.9879  0.4506  0.3319
15628SOL    HW247728   3.699   1.182   5.532  0.7846  0.4209 -0.4381
15629SOL     OW47729   8.062   7.136   4.295  0.2468  0.2605 -0.5509
15629SOL    HW147730   8.147   7.094   4.283 -0.7494 -1.8350 -0.7593
15629SOL    HW247731   8.009   7.105   4.221 -1.2915 -0.1662  0.6673
15630SOL     OW47732   5.021   5.830   7.624  0.3741  0.1968  0.0704
15630SOL    HW147733   5.094   5.807   7.567  0.3962  1.0016 -0.2305
15630SOL    HW247734   4.943   5.804   7.575  0.4554 -3.0418  1.4123
15631SOL     OW47735   2.978   7.042   0.681 -0.8852  0.0528 -0.4468
15631SOL    HW147736   2.933   7.073   0.760  0.0249 -0.3311  0.2407
15631SOL    HW247737   2.942   6.955   0.665 -1.2917  0.2549 -0.6338
15632SOL     OW47738   0.381   5.089   0.802  0.6059 -0.3916 -0.8415
15632SOL    HW147739   0.317   5.019   0.813  2.2448 -2.1090 -1.7306
15632SOL    HW247740   0.411   5.080   0.712  2.2784  0.2001 -0.3750
15633SOL     OW47741   7.571   4.703   4.473 -0.0280  0.6632 -0.2905
15633SOL    HW147742   7.646   4.695   4.414 -0.2122  0.3226 -0.4787
15633SOL    HW247743   7.553   4.614   4.501 -2.9953  0.0025 -3.5384
15634SOL     OW47744   4.662   6.755   5.499 -0.1435 -0.2306  0.1839
15634SOL    HW147745   4.694   6.831   5.452 -1.1852 -0.2780 -0.6358
15634SOL    HW247746   4.654   6.687   5.432 -0.1220 -0.7750  0.7264
15635SOL     OW47747   5.178   6.100   6.189  0.3374  0.0226 -0.1944
15635SOL    HW147748   5.173   6.161   6.262  1.2007  1.3785 -1.2211
15635SOL    HW247749   5.086   6.082   6.166  0.0493  2.0510 -0.7584
15636SOL     OW47750   0.121   2.484   1.174  0.1897 -0.3355 -0.2520
15636SOL    HW147751   0.199   2.458   1.222 -0.2772 -0.5295  0.4175
15636SOL    HW247752   0.108   2.576   1.198  0.1224 -0.3469 -0.2448
15637SOL     OW47753   8.031   7.331   3.614  0.2502 -0.3395  0.0959
15637SOL    HW147754   8.102   7.272   3.587  2.8697  2.5309  0.1632
15637SOL    HW247755   7.982   7.347   3.533  0.8663 -0.8623 -0.3922
15638SOL     OW47756   6.312   3.769   6.954 -0.3613  0.0893 -0.1969
15638SOL    HW147757   6.382   3.835   6.951 -1.3451  1.1668 -0.1217
15638SOL    HW247758   6.254   3.799   7.024 -1.0835 -0.6089 -0.4881
15639SOL     OW47759   3.376   3.706   7.003  0.2952 -0.0776 -0.1783
15639SOL    HW147760   3.383   3.720   7.097  1.1738 -1.0724 -0.0761
15639SOL    HW247761   3.409   3.617   6.989  1.8117  0.6538 -1.6220
15640SOL     OW47762   6.104   4.378   0.467 -0.2260 -0.0471 -0.0530
15640SOL    HW147763   6.131   4.292   0.498  0.2651  0.1279  0.0170
15640SOL    HW247764   6.017   4.392   0.504 -0.6869 -0.8848 -0.7886
15641SOL     OW47765   1.553   4.236   3.221  0.0807 -0.0179 -0.2005
15641SOL    HW147766   1.623   4.174   3.242  2.2495  2.3104 -0.1047
15641SOL    HW247767   1.514   4.202   3.140  2.7524 -0.3532 -1.4638
15642SOL     OW47768   0.058   7.654   7.507 -0.6809 -0.1807 -0.0037
15642SOL    HW147769  -0.011   7.684   7.448 -1.0651  0.2442  0.6477
15642SOL    HW247770   0.108   7.732   7.529 -1.6546  0.0279  1.6623
15643SOL     OW47771   2.793   2.602   6.091  0.0210  0.0730  0.2580
15643SOL    HW147772   2.727   2.534   6.107 -0.1123  0.3132  0.7452
15643SOL    HW247773   2.753   2.660   6.027 -0.7274  0.8735  1.4076
15644SOL     OW47774   2.063   7.723   2.743 -0.1291 -0.1931  0.1164
15644SOL    HW147775   2.003   7.652   2.717 -1.6201  0.5460  1.4168
15644SOL    HW247776   2.065   7.718   2.839  3.6110 -1.5306  0.1220
15645SOL     OW47777   6.658   7.058   8.189  0.7236  0.2110 -0.4537
15645SOL    HW147778   6.581   7.072   8.244 -1.3721 -0.4244 -3.0427
15645SOL    HW247779   6.723   7.021   8.248 -0.8747  0.8693  1.8688
15646SOL     OW47780   1.677   2.680   6.854  0.1581  0.4529  0.5703
15646SOL    HW147781   1.624   2.605   6.881  0.3397  0.1364  0.0617
15646SOL    HW247782   1.759   2.671   6.903  1.5109 -1.5162 -1.8320
15647SOL     OW47783   3.550   2.215   6.615  0.1980  0.1682  0.1260
15647SOL    HW147784   3.543   2.215   6.711 -0.7027  1.2731  0.0849
15647SOL    HW247785   3.473   2.166   6.586  0.9454 -0.9345 -0.0217
15648SOL     OW47786   0.554   6.455   7.302 -0.2116  0.6186  0.0209
15648SOL    HW147787   0.622   6.489   7.245  2.2268 -1.3064  1.5542
15648SOL    HW247788   0.526   6.373   7.260 -2.6600  2.0112 -1.2715
15649SOL     OW47789   2.184   2.195   5.020 -0.4434  0.1458 -0.5922
15649SOL    HW147790   2.188   2.105   4.988  1.4650 -1.3674  3.3593
15649SOL    HW247791   2.121   2.193   5.092  1.2494  1.3820  1.0133
15650SOL     OW47792   2.429   0.072   3.768  0.0368 -0.3341  0.4901
15650SOL    HW147793   2.374   0.022   3.707 -1.0401 -0.8525  1.8357
15650SOL    HW247794   2.375   0.083   3.846  0.0165  3.4492  0.1169
15651SOL     OW47795   0.241   1.529   7.620 -0.1225 -0.3392  0.3860
15651SOL    HW147796   0.233   1.479   7.701  1.9652 -0.1439  0.7683
15651SOL    HW247797   0.210   1.617   7.643 -2.3409 -1.0006  0.1248
15652SOL     OW47798   5.800   6.793   1.832 -0.2029 -0.0346 -0.0508
15652SOL    HW147799   5.818   6.852   1.905 -1.0436  0.8378 -0.5297
15652SOL    HW247800   5.710   6.813   1.807 -0.1359 -0.7799 -0.9192
15653SOL     OW47801   4.740   2.826   0.486  0.0390  0.2597 -0.0195
15653SOL    HW147802   4.812   2.787   0.536  0.9625  0.9205 -0.8033
15653SOL    HW247803   4.723   2.910   0.529 -0.9542 -0.3202  0.7668
15654SOL     OW47804   2.663   6.306   3.687 -0.3228  0.0878  0.4817
15654SOL    HW147805   2.659   6.343   3.776  0.0559 -0.9709  0.9576
15654SOL    HW247806   2.651   6.381   3.629  1.6503  1.1630  1.3808
15655SOL     OW47807   5.209   6.530   7.968  0.2255  0.2152 -0.6079
15655SOL    HW147808   5.221   6.448   7.921 -1.9055 -0.6726  0.2226
15655SOL    HW247809   5.255   6.517   8.051  2.4221  1.0756 -1.6219
15656SOL     OW47810   7.309   2.832   5.753  0.0436 -0.4727 -0.3522
15656SOL    HW147811   7.388   2.809   5.705 -0.0208 -0.1149 -0.6318
15656SOL    HW247812   7.254   2.878   5.690 -0.9420 -1.8130 -0.5294
15657SOL     OW47813   1.719   2.661   5.148 -0.3088  0.0587  0.9734
15657SOL    HW147814   1.650   2.716   5.111 -0.2207  1.0281  2.2109
15657SOL    HW247815   1.782   2.651   5.077 -0.3367  1.5452  0.7177
15658SOL     OW47816   2.844   2.842   8.192  0.4199 -0.1002 -0.2562
15658SOL    HW147817   2.791   2.895   8.133  1.2535 -0.0959 -1.0177
15658SOL    HW247818   2.907   2.904   8.231 -0.6475  0.0627  1.2925
15659SOL     OW47819   6.580   2.460   6.293 -0.3667 -0.1958  0.3827
15659SOL    HW147820   6.629   2.502   6.222 -0.1112  0.0141  0.6746
15659SOL    HW247821   6.612   2.504   6.372  0.0130 -1.0505  0.7102
15660SOL     OW47822   3.345   2.208   5.268 -0.5946  0.1416  0.4337
15660SOL    HW147823   3.314   2.137   5.212 -2.4323  0.0013  1.5736
15660SOL    HW247824   3.266   2.248   5.303  0.4482  1.8842  0.9098
15661SOL     OW47825   4.297   1.206   1.847  0.3295 -0.1249 -0.8092
15661SOL    HW147826   4.260   1.290   1.874 -0.2262 -0.3985 -0.7015
15661SOL    HW247827   4.372   1.230   1.792 -0.4979  0.4584 -1.7354
15662SOL     OW47828   4.141   0.888   2.036  0.2933 -0.2199  0.7591
15662SOL    HW147829   4.146   0.802   1.994  1.2151  0.3934 -0.4137
15662SOL    HW247830   4.231   0.919   2.039 -0.1124  1.0632  0.4026
15663SOL     OW47831   1.235   0.802   7.115 -0.0749  0.5793 -0.7197
15663SOL    HW147832   1.233   0.891   7.151 -0.3067  0.8246 -1.3274
15663SOL    HW247833   1.179   0.751   7.174  1.5308  0.3989  0.7334
15664SOL     OW47834   0.458   5.655   2.689 -0.4624 -0.3928 -0.2467
15664SOL    HW147835   0.402   5.583   2.720  0.0576 -0.7650 -0.1725
15664SOL    HW247836   0.420   5.679   2.604  0.2258 -1.7281 -0.9532
15665SOL     OW47837   0.302   5.559   6.472 -0.1928 -0.3306  0.1436
15665SOL    HW147838   0.214   5.579   6.503 -0.0415  0.4484  0.0999
15665SOL    HW247839   0.345   5.517   6.547 -0.5524 -0.5740  0.2140
15666SOL     OW47840   1.184   2.357   3.063 -0.0936 -0.4965 -0.3292
15666SOL    HW147841   1.108   2.384   3.010 -0.5330 -2.1350 -0.6019
15666SOL    HW247842   1.213   2.276   3.022  2.1436  0.3268 -0.5143
15667SOL     OW47843   1.730   2.977   6.121 -0.0926  0.2276 -0.2823
15667SOL    HW147844   1.722   3.041   6.192 -0.3811 -0.1019 -0.0117
15667SOL    HW247845   1.816   2.995   6.082  1.6238 -1.6754  2.2452
15668SOL     OW47846   8.109   0.604   5.656 -0.1816  0.2838  0.7539
15668SOL    HW147847   8.143   0.693   5.656 -1.7780  0.9422 -0.1138
15668SOL    HW247848   8.022   0.612   5.616 -0.9695 -1.4268  1.9944
15669SOL     OW47849   6.308   0.464   2.707  0.5585  0.2485 -0.1335
15669SOL    HW147850   6.273   0.546   2.741  0.5547  0.1632  0.0703
15669SOL    HW247851   6.253   0.443   2.632  1.2857  1.0445 -0.9269
15670SOL     OW47852   3.206   1.999   1.115  0.4281  0.1961 -0.0750
15670SOL    HW147853   3.127   2.009   1.061  1.2788 -1.3107 -1.6675
15670SOL    HW247854   3.233   2.089   1.134 -1.8621  0.7627  0.8720
15671SOL     OW47855   2.105   4.071   6.700  0.5770 -0.0532 -0.4524
15671SOL    HW147856   2.038   4.130   6.667 -0.0062 -1.7280 -2.5256
15671SOL    HW247857   2.061   4.020   6.769  0.3171  0.1946 -0.4364
15672SOL     OW47858   4.348   0.436   1.686 -0.4801 -0.5163  0.0413
15672SOL    HW147859   4.412   0.499   1.654 -1.3399  1.1759  1.4478
15672SOL    HW247860   4.358   0.360   1.629  0.9305  0.6999 -1.4331
15673SOL     OW47861   3.434   1.669   5.333 -0.1206 -0.0933 -0.1519
15673SOL    HW147862   3.481   1.690   5.413 -0.3200 -0.8840  0.1781
15673SOL    HW247863   3.348   1.639   5.363  0.5904 -2.6870 -0.4999
15674SOL     OW47864   6.622   5.159   6.535 -0.2456  0.5712 -0.2726
15674SOL    HW147865   6.599   5.079   6.582 -2.6592  0.4071 -1.5481
15674SOL    HW247866   6.603   5.230   6.596 -2.9005  0.3435 -0.7209
15675SOL     OW47867   4.199   4.779   7.495  0.8837 -0.6365 -0.2427
15675SOL    HW147868   4.165   4.865   7.469  0.9690  0.2757  2.3049
15675SOL    HW247869   4.289   4.796   7.523  0.3948 -1.1493  1.8608
15676SOL     OW47870   4.698   2.318   0.055 -0.2137 -0.9718 -0.3787
15676SOL    HW147871   4.650   2.332  -0.027 -2.1227  1.4966  1.0045
15676SOL    HW247872   4.654   2.376   0.118  3.3147 -0.1380  1.5598
15677SOL     OW47873   2.335   2.407   0.458 -0.0609  0.0204  0.2919
15677SOL    HW147874   2.410   2.412   0.399 -0.0717  0.2816  0.2981
15677SOL    HW247875   2.365   2.454   0.537  0.1383 -0.7642  0.6896
15678SOL     OW47876   2.116   5.300   4.777  0.4005 -0.1259 -0.1181
15678SOL    HW147877   2.062   5.224   4.757 -0.2885  0.4638 -0.5771
15678SOL    HW247878   2.059   5.375   4.760  0.4058  0.4802  2.2040
15679SOL     OW47879   0.494   2.122   7.050 -0.3045  0.3294 -0.2417
15679SOL    HW147880   0.573   2.079   7.084 -0.7842  0.2303  0.7766
15679SOL    HW247881   0.525   2.170   6.973  0.2714 -1.7113 -1.3647
15680SOL     OW47882   4.808   0.178   3.074  0.4114 -0.1196 -0.3667
15680SOL    HW147883   4.814   0.164   3.169 -0.4631 -0.9321 -0.4188
15680SOL    HW247884   4.852   0.262   3.060  1.1093 -0.2773  0.6762
15681SOL     OW47885   4.806   3.958   2.393 -0.2688 -0.0235  0.4901
15681SOL    HW147886   4.800   3.960   2.489 -1.3572 -2.8995  0.5956
15681SOL    HW247887   4.745   3.889   2.367  0.1108  0.5836 -2.2836
15682SOL     OW47888   7.623   7.178   6.493  0.3774 -0.0645  0.0296
15682SOL    HW147889   7.574   7.255   6.464 -0.1740 -1.3048 -2.5792
15682SOL    HW247890   7.708   7.213   6.521 -0.1693  1.5627 -0.2158
15683SOL     OW47891   4.183   0.652   3.504 -0.0658 -0.0223  0.0330
15683SOL    HW147892   4.103   0.689   3.542  1.5583  1.7284  1.9804
15683SOL    HW247893   4.205   0.578   3.560  0.5515  0.5154  0.5094
15684SOL     OW47894   3.195   1.292   8.031  0.2536  0.2405 -0.4135
15684SOL    HW147895   3.232   1.376   8.057 -0.1607  0.1095  0.6912
15684SOL    HW247896   3.109   1.289   8.075  0.6213 -1.1037  0.2903
15685SOL     OW47897   0.081   5.073   1.901  0.0339  0.5322  0.4994
15685SOL    HW147898   0.167   5.112   1.918  0.6702 -0.9022  0.7328
15685SOL    HW247899   0.031   5.143   1.859  2.1281  0.7111 -1.9935
15686SOL     OW47900   2.175   7.431   3.791  0.1397 -0.6569 -0.2040
15686SOL    HW147901   2.129   7.498   3.741 -0.4557 -1.6999 -1.0780
15686SOL    HW247902   2.265   7.464   3.799 -0.3428  0.6356  0.1340
15687SOL     OW47903   5.479   2.035   5.570  0.2398  0.6408  0.1948
15687SOL    HW147904   5.423   2.001   5.499 -1.1087  1.6334  0.7437
15687SOL    HW247905   5.492   2.127   5.548 -0.5677  1.0804  1.4256
15688SOL     OW47906   1.070   2.897   1.140 -0.0531  0.2608  0.0183
15688SOL    HW147907   1.101   2.986   1.125  0.5971  0.2295  1.0965
15688SOL    HW247908   0.987   2.907   1.187  1.0839  0.3130  2.1190
15689SOL     OW47909   0.021   1.159   6.912  0.5141 -0.4036 -0.2846
15689SOL    HW147910   0.010   1.170   7.006 -0.8150 -1.0110 -0.3554
15689SOL    HW247911   0.019   1.065   6.897  0.7582 -0.3186 -0.9300
15690SOL     OW47912   0.764   3.584   7.325 -0.5450 -0.0005  0.2049
15690SOL    HW147913   0.730   3.628   7.403 -0.2532  0.3679  0.1278
15690SOL    HW247914   0.851   3.552   7.351 -1.0695 -1.2233  0.5021
15691SOL     OW47915   6.516   1.798   1.588  0.6727 -0.1612  0.0804
15691SOL    HW147916   6.553   1.827   1.505  0.1525 -0.5265 -0.2848
15691SOL    HW247917   6.463   1.872   1.618  1.2669  0.1641  0.3468
15692SOL     OW47918   1.710   0.593   2.876 -0.5038 -0.1920 -0.3757
15692SOL    HW147919   1.738   0.598   2.784 -0.5325 -0.5341 -0.4024
15692SOL    HW247920   1.686   0.683   2.898 -2.1943 -0.4083 -1.2322
15693SOL     OW47921   6.605   0.701   6.122 -0.1992 -0.2268 -0.5832
15693SOL    HW147922   6.620   0.703   6.028  0.4862  0.0241 -0.4744
15693SOL    HW247923   6.627   0.789   6.152  1.7740 -0.8799  0.1124
15694SOL     OW47924   6.243   4.457   4.003  0.6521  0.1882 -0.3400
15694SOL    HW147925   6.279   4.391   4.062  1.5155  1.3115  0.4486
15694SOL    HW247926   6.259   4.423   3.915  2.6022  0.0860  0.0056
15695SOL     OW47927   1.241   2.403   2.207  0.1789 -0.3382  0.0829
15695SOL    HW147928   1.248   2.448   2.123 -0.7326 -1.2052 -0.4735
15695SOL    HW247929   1.216   2.473   2.269  1.0583  0.3400 -0.3114
15696SOL     OW47930   6.089   6.386   4.682 -0.0927 -0.0374  0.0730
15696SOL    HW147931   6.008   6.393   4.733  0.2054 -0.5164  0.6366
15696SOL    HW247932   6.153   6.354   4.745  0.7097  0.9872 -0.2012
15697SOL     OW47933   6.735   6.262   7.945 -0.1788  0.0202  0.1700
15697SOL    HW147934   6.695   6.195   7.890 -0.5181  1.4647 -1.4702
15697SOL    HW247935   6.665   6.292   8.003 -1.1064  1.3649 -1.5407
15698SOL     OW47936   3.540   2.086   1.052 -0.3819  0.2634 -0.0454
15698SOL    HW147937   3.518   2.036   1.131  0.4141 -0.6570 -0.3961
15698SOL    HW247938   3.633   2.105   1.060 -0.2434 -0.0262 -0.8604
15699SOL     OW47939   5.921   6.298   7.126 -0.2750  0.7867 -0.0086
15699SOL    HW147940   5.838   6.271   7.088  0.0391  1.5692 -1.3435
15699SOL    HW247941   5.898   6.340   7.209 -1.0545 -0.3183  0.3526
15700SOL     OW47942   5.758   7.868   3.609 -0.0546 -0.3554  0.4475
15700SOL    HW147943   5.807   7.894   3.687 -0.1647 -0.8660  0.6869
15700SOL    HW247944   5.797   7.784   3.583 -0.7453 -0.7283  0.5955
15701SOL     OW47945   7.748   6.135   2.792  0.4538 -0.0793 -0.0321
15701SOL    HW147946   7.793   6.161   2.711  1.3476  2.1764  1.0875
15701SOL    HW247947   7.678   6.077   2.764  0.8126  0.5543 -2.4173
15702SOL     OW47948   6.108   0.106   1.726  0.4163  0.0037  0.1150
15702SOL    HW147949   6.148   0.147   1.803  0.9839  2.6608 -1.4707
15702SOL    HW247950   6.014   0.107   1.744  0.6320 -0.8590  1.3954
15703SOL     OW47951   4.275   4.278   2.506  0.3288 -0.2199 -0.0138
15703SOL    HW147952   4.348   4.325   2.547 -0.9150 -0.3969  2.6056
15703SOL    HW247953   4.202   4.340   2.508 -0.9713 -1.6840  2.2973
15704SOL     OW47954   4.025   4.151   1.622 -0.0361 -0.2794  0.0874
15704SOL    HW147955   3.971   4.209   1.675  2.0718  0.6666  1.3573
15704SOL    HW247956   4.101   4.132   1.677  1.6396 -0.3306 -2.0804
15705SOL     OW47957   0.694   5.299   7.761  0.0697  0.2180  0.2967
15705SOL    HW147958   0.785   5.288   7.733 -0.3877  1.3805 -1.9151
15705SOL    HW247959   0.681   5.393   7.764 -0.9230  0.0674  1.1577
15706SOL     OW47960   7.799   7.569   3.810  0.0570 -0.1904 -0.1896
15706SOL    HW147961   7.819   7.476   3.815 -1.5528 -0.6887 -1.8180
15706SOL    HW247962   7.884   7.612   3.804  0.8499 -1.4604  1.3125
15707SOL     OW47963   4.087   2.731   1.229  0.5061  0.2087 -0.4611
15707SOL    HW147964   4.119   2.820   1.210 -1.6614  1.5073  1.4659
15707SOL    HW247965   4.000   2.729   1.189 -0.2443 -0.3282  1.1382
15708SOL     OW47966   4.029   5.944   4.147 -0.0671  0.2373  0.3300
15708SOL    HW147967   3.988   6.004   4.209 -2.0727 -0.9024  0.1777
15708SOL    HW247968   4.121   5.942   4.173 -0.3873  1.6160  1.7412
15709SOL     OW47969   7.890   6.460   7.143  0.3417  0.1963  0.0393
15709SOL    HW147970   7.803   6.425   7.123  0.5714 -1.5131  1.7945
15709SOL    HW247971   7.951   6.399   7.102  0.7865  1.5677 -1.4663
15710SOL     OW47972   6.282   6.428   7.995 -0.0474 -0.0222  0.0617
15710SOL    HW147973   6.322   6.419   7.909  0.9416 -0.7959  0.5839
15710SOL    HW247974   6.321   6.508   8.031  1.3112 -0.9350  0.6894
15711SOL     OW47975   1.766   1.852   3.699  0.5544  0.0939 -0.0799
15711SOL    HW147976   1.691   1.911   3.707  0.1816 -0.4530  0.6164
15711SOL    HW247977   1.743   1.794   3.626  0.6112  0.3569 -0.3098
15712SOL     OW47978   4.613   5.903   2.174 -0.5907  0.5442  0.2910
15712SOL    HW147979   4.598   5.935   2.263 -0.1854  1.3156  0.0890
15712SOL    HW247980   4.538   5.847   2.156 -0.9448  0.8021  0.9275
15713SOL     OW47981   7.066   6.479   6.561 -0.5218  0.2651  0.7428
15713SOL    HW147982   7.043   6.466   6.653  1.5573  0.9268  1.4245
15713SOL    HW247983   7.159   6.501   6.563 -0.2691 -0.3353 -1.5931
15714SOL     OW47984   4.196   4.631   3.360  0.1978  0.6760  0.0516
15714SOL    HW147985   4.289   4.644   3.378 -0.1373  1.0914  1.6097
15714SOL    HW247986   4.168   4.568   3.426 -0.4000 -0.3454 -1.1372
15715SOL     OW47987   7.044   0.577   1.669 -0.5544 -0.0879 -0.0339
15715SOL    HW147988   7.129   0.550   1.635 -1.2740 -1.3839 -0.8730
15715SOL    HW247989   7.060   0.599   1.761  0.8895  0.7832 -0.4705
15716SOL     OW47990   1.447   0.675   0.665 -0.3790  0.2291  0.1929
15716SOL    HW147991   1.467   0.682   0.572  0.1087 -1.7292  0.1079
15716SOL    HW247992   1.354   0.697   0.672 -0.1611  1.4718 -0.5755
15717SOL     OW47993   6.824   3.484   4.071 -1.1802  0.1255  0.0159
15717SOL    HW147994   6.797   3.536   3.996 -0.5256 -0.0667 -0.3644
15717SOL    HW247995   6.885   3.541   4.118 -2.0270  0.4683  0.7337
15718SOL     OW47996   2.700   4.347   7.863 -0.7616  0.0501  0.4553
15718SOL    HW147997   2.746   4.427   7.838 -0.7355  0.2398  1.0968
15718SOL    HW247998   2.724   4.333   7.955  0.3066 -1.4280 -0.0177
15719SOL     OW47999   2.582   0.882   7.070  0.0897  0.0521  0.2619
15719SOL    HW148000   2.675   0.856   7.067  0.3148  0.2612  3.0203
15719SOL    HW248001   2.585   0.976   7.084 -0.5368 -0.0050  0.7855
15720SOL     OW48002   1.699   4.846   4.349 -0.6111 -0.2893 -0.1544
15720SOL    HW148003   1.634   4.779   4.370 -1.1062  0.5179  0.9901
15720SOL    HW248004   1.683   4.916   4.412  0.3421  0.6174 -0.8792
15721SOL     OW48005   5.203   2.409   4.821  0.0796 -0.3397  0.2341
15721SOL    HW148006   5.237   2.356   4.893 -0.0785 -0.4593  0.2218
15721SOL    HW248007   5.276   2.465   4.796  0.2227 -0.4942  0.3028
15722SOL     OW48008   0.293   4.154   2.968 -0.4486 -0.2872  0.3965
15722SOL    HW148009   0.247   4.132   2.887 -0.4083 -0.7198  0.4886
15722SOL    HW248010   0.334   4.072   2.995  1.4682  0.3685 -0.3791
15723SOL     OW48011   5.859   6.482   4.818  0.5031  0.0446  0.0743
15723SOL    HW148012   5.869   6.575   4.835 -0.8325 -0.1024  1.9157
15723SOL    HW248013   5.770   6.473   4.783  0.2413 -0.6350  0.8860
15724SOL     OW48014   8.029   0.824   1.326  0.0535 -0.0329 -0.1993
15724SOL    HW148015   8.010   0.828   1.232 -1.1559  0.0851  0.0319
15724SOL    HW248016   8.019   0.732   1.349  1.8506 -0.3191 -0.4603
15725SOL     OW48017   6.446   0.471   1.190 -0.2779 -0.2165  0.7450
15725SOL    HW148018   6.392   0.392   1.191 -1.4935  0.5841  0.0618
15725SOL    HW248019   6.506   0.460   1.265 -0.3310 -1.8249  0.5780
15726SOL     OW48020   3.588   2.466   0.991 -0.4154  0.2473 -0.0446
15726SOL    HW148021   3.543   2.468   1.075  0.5344  0.6329  0.4785
15726SOL    HW248022   3.587   2.557   0.960 -0.3150  0.1961 -0.2020
15727SOL     OW48023   7.309   6.445   6.002 -0.1930 -0.4755  0.2633
15727SOL    HW148024   7.367   6.369   6.006  0.5435  0.0259 -0.3735
15727SOL    HW248025   7.360   6.515   6.043  0.1978  0.2823 -1.4337
15728SOL     OW48026   4.059   1.041   3.144  0.1358  0.0888  0.7828
15728SOL    HW148027   4.051   1.001   3.231  3.6789 -2.8075  0.0314
15728SOL    HW248028   4.126   1.108   3.154  2.6224 -2.1027 -0.0435
15729SOL     OW48029   6.997   3.969   5.575 -0.0796 -0.1669 -0.4310
15729SOL    HW148030   6.985   3.977   5.480  1.4120 -0.8197 -0.6949
15729SOL    HW248031   6.992   3.875   5.592 -0.5436 -0.0420  0.1861
15730SOL     OW48032   4.941   3.522   6.511  0.0065 -0.0376 -0.4745
15730SOL    HW148033   5.018   3.471   6.484  0.9992  1.2264 -0.1258
15730SOL    HW248034   4.964   3.612   6.489 -1.9793  0.2247 -1.7026
15731SOL     OW48035   4.861   6.342   8.178  0.1676 -0.3631 -0.0033
15731SOL    HW148036   4.851   6.247   8.179 -1.6905 -0.2008  1.0643
15731SOL    HW248037   4.946   6.357   8.220  0.0842 -1.5242  0.6365
15732SOL     OW48038   7.772   7.338   7.045  0.0493  0.0999 -0.1641
15732SOL    HW148039   7.850   7.355   6.992  1.2031  1.8832  1.9349
15732SOL    HW248040   7.699   7.353   6.985  1.2151 -2.3647 -2.4178
15733SOL     OW48041   6.331   7.590   4.081 -0.0006 -0.5087  0.0043
15733SOL    HW148042   6.295   7.679   4.080  0.5379 -0.2824 -0.0063
15733SOL    HW248043   6.335   7.564   3.989 -1.1886 -0.9835  0.0718
15734SOL     OW48044   0.047   5.186   7.613  0.1402  0.2804 -0.3460
15734SOL    HW148045   0.023   5.248   7.682  0.6478 -0.2907  0.3636
15734SOL    HW248046  -0.029   5.129   7.604 -0.1380  0.6983 -0.6516
15735SOL     OW48047   6.697   5.906   0.905  0.1372 -0.3259 -0.1513
15735SOL    HW148048   6.731   5.839   0.845  1.4924  1.2578 -1.2174
15735SOL    HW248049   6.618   5.866   0.942 -0.9198 -1.3120 -3.1553
15736SOL     OW48050   7.240   4.290   3.396 -0.4766 -0.4727  0.0584
15736SOL    HW148051   7.263   4.264   3.485 -0.7591 -0.1820  0.2162
15736SOL    HW248052   7.246   4.385   3.396 -1.2645 -0.4172 -0.0141
15737SOL     OW48053   7.060   2.265   3.996  0.3064  0.6529  0.4865
15737SOL    HW148054   7.078   2.281   3.903  1.2345  0.1981  0.5708
15737SOL    HW248055   7.104   2.337   4.041  2.2459 -0.6022  0.7125
15738SOL     OW48056   1.088   0.469   8.202 -0.1187  0.3278 -0.3995
15738SOL    HW148057   1.072   0.524   8.125  0.1618  0.2111 -0.5470
15738SOL    HW248058   1.051   0.384   8.179  0.0789  0.2561 -0.4610
15739SOL     OW48059   6.327   5.228   7.605 -0.4481 -0.3740  0.3469
15739SOL    HW148060   6.346   5.321   7.604 -2.0143 -0.0094 -1.2301
15739SOL    HW248061   6.231   5.222   7.603 -0.3810 -1.9692 -0.9261
15740SOL     OW48062   1.124   8.092   1.289  0.4891  0.0972 -0.1072
15740SOL    HW148063   1.203   8.080   1.237  0.1872 -1.3185 -0.3027
15740SOL    HW248064   1.151   8.144   1.364  1.7786 -0.9166  0.1641
15741SOL     OW48065   7.083   2.342   1.824 -0.4236 -0.1042 -1.0221
15741SOL    HW148066   7.161   2.286   1.829  0.2334  0.9187  1.1785
15741SOL    HW248067   7.116   2.427   1.797 -1.0234 -0.0486 -1.6027
15742SOL     OW48068   4.581   5.126   3.099 -0.3100 -0.1913 -0.1551
15742SOL    HW148069   4.487   5.143   3.096 -0.3495 -0.1618  0.8879
15742SOL    HW248070   4.619   5.194   3.044 -0.9018 -0.2555 -0.6576
15743SOL     OW48071   4.854   7.176   5.257  0.2552 -0.6778  0.7212
15743SOL    HW148072   4.894   7.093   5.230  0.2725 -0.8339  1.2208
15743SOL    HW248073   4.875   7.237   5.186 -0.0944 -1.1994  0.1596
15744SOL     OW48074   3.882   5.290   6.898 -0.0135  0.6730 -0.1209
15744SOL    HW148075   3.957   5.231   6.886  0.1694  0.9123 -0.1686
15744SOL    HW248076   3.885   5.348   6.822  0.0447  1.0023  0.1318
15745SOL     OW48077   4.130   2.143   2.417 -0.4927 -0.5538 -0.0213
15745SOL    HW148078   4.188   2.081   2.374  1.2784  0.2681  1.0572
15745SOL    HW248079   4.056   2.090   2.446  0.2189 -1.8616 -0.5016
15746SOL     OW48080   1.618   6.623   0.937 -0.1426  1.1706 -0.0928
15746SOL    HW148081   1.524   6.602   0.936 -0.3729  2.1890 -0.1888
15746SOL    HW248082   1.649   6.592   0.851  0.1233 -1.3115  0.8094
15747SOL     OW48083   1.690   2.277   3.328  0.5322 -0.4799 -0.0397
15747SOL    HW148084   1.645   2.358   3.350  0.8642 -0.6756  1.4786
15747SOL    HW248085   1.658   2.255   3.240 -0.3302  0.7426 -0.0586
15748SOL     OW48086   4.914   1.179   5.894  0.4108 -0.0451 -0.2781
15748SOL    HW148087   4.913   1.109   5.828  0.9017  0.0965 -0.4404
15748SOL    HW248088   4.942   1.257   5.845 -1.6845  0.6568 -0.4754
15749SOL     OW48089   3.685   6.200   5.146  0.2943 -0.0076  1.1822
15749SOL    HW148090   3.752   6.148   5.102 -0.0619  0.6029 -0.1258
15749SOL    HW248091   3.624   6.224   5.077 -2.7904 -2.7047  2.7197
15750SOL     OW48092   6.714   8.184   1.404  0.1442 -0.2755  0.5773
15750SOL    HW148093   6.632   8.213   1.364  0.4738  0.7807  0.6347
15750SOL    HW248094   6.724   8.094   1.374 -2.0961 -1.2002  2.2629
15751SOL     OW48095   3.601   0.920   7.741  0.3318 -0.1939  0.2590
15751SOL    HW148096   3.677   0.863   7.756  0.5923  0.4032  1.3474
15751SOL    HW248097   3.622   0.966   7.659 -0.6006 -2.7356 -1.5448
15752SOL     OW48098   2.647   2.849   1.750  0.4135 -0.2365 -0.1046
15752SOL    HW148099   2.632   2.943   1.736 -0.8665 -0.7331 -2.5275
15752SOL    HW248100   2.734   2.845   1.790  0.6590  1.9460 -0.2806
15753SOL     OW48101   2.860   0.785   4.733 -0.0823 -0.2548 -0.0170
15753SOL    HW148102   2.777   0.833   4.733  1.1097  1.9613  1.8335
15753SOL    HW248103   2.837   0.698   4.767 -1.4573  0.7842  1.8970
15754SOL     OW48104   6.150   7.436   0.628 -0.5832 -0.7452 -0.0395
15754SOL    HW148105   6.204   7.496   0.577 -1.6696  0.0563 -0.2657
15754SOL    HW248106   6.213   7.382   0.676  0.4425  1.5031  1.2910
15755SOL     OW48107   1.776   5.450   2.127  0.4308  0.3302  0.1456
15755SOL    HW148108   1.831   5.528   2.122 -2.4839  2.5398 -0.2716
15755SOL    HW248109   1.769   5.432   2.221 -1.9083  3.1164  0.6668
15756SOL     OW48110   0.068   0.081   3.050  0.2888 -0.4757 -0.0787
15756SOL    HW148111  -0.010   0.028   3.033 -0.5133  1.0598 -1.5314
15756SOL    HW248112   0.119   0.030   3.113 -2.2217 -1.2482  1.4995
15757SOL     OW48113   1.956   7.653   5.485  0.1344  0.4325  0.6473
15757SOL    HW148114   1.954   7.559   5.465 -1.9138  0.3648  0.9714
15757SOL    HW248115   2.021   7.689   5.424 -0.8333 -0.8227 -1.2105
15758SOL     OW48116   0.078   8.101   0.698  1.3356  0.0092 -0.1622
15758SOL    HW148117  -0.010   8.133   0.715  2.0316  1.2418  1.3250
15758SOL    HW248118   0.079   8.012   0.734  0.6266 -0.1341 -0.4821
15759SOL     OW48119   7.633   8.208   1.275  0.4636 -0.1897 -0.3990
15759SOL    HW148120   7.666   8.144   1.212 -0.3677 -0.8567 -0.1786
15759SOL    HW248121   7.621   8.158   1.356  0.5297  0.4219 -0.0033
15760SOL     OW48122   0.483   5.020   3.967  0.1233 -0.0150  0.0084
15760SOL    HW148123   0.489   5.065   3.882  0.3196  2.2722  1.1633
15760SOL    HW248124   0.574   5.003   3.991  0.2681  1.8617  0.9709
15761SOL     OW48125   1.956   6.407   6.260  0.1676 -0.1184  0.7999
15761SOL    HW148126   1.962   6.379   6.351 -0.1406 -0.1529  0.8117
15761SOL    HW248127   1.987   6.497   6.261  0.0802 -0.0888  0.9566
15762SOL     OW48128   4.149   7.710   4.866 -0.2393 -0.0017  0.1932
15762SOL    HW148129   4.145   7.641   4.932 -0.2865  1.3204  1.6180
15762SOL    HW248130   4.066   7.757   4.875 -0.2378  0.2211 -0.7987
15763SOL     OW48131   2.193   1.927   4.917 -0.1292  0.1889 -0.4919
15763SOL    HW148132   2.106   1.894   4.897  0.3479 -0.4743 -1.5746
15763SOL    HW248133   2.247   1.849   4.928  0.5307  0.5897 -0.8206
15764SOL     OW48134   0.872   2.851   3.725  0.2130  0.2306  0.0410
15764SOL    HW148135   0.790   2.832   3.771  1.4869 -1.1680  1.8692
15764SOL    HW248136   0.884   2.946   3.735 -1.8827  0.7458 -1.5934
15765SOL     OW48137   3.378   5.044   3.296  0.0807  0.1209  0.0254
15765SOL    HW148138   3.449   5.096   3.258  0.2921  0.0028  0.2571
15765SOL    HW248139   3.338   5.000   3.221  0.8275 -0.5207 -0.0044
15766SOL     OW48140   3.986   4.356   1.408 -0.2383 -0.2212 -0.3151
15766SOL    HW148141   3.996   4.297   1.482  1.7110  0.1449 -0.2278
15766SOL    HW248142   3.979   4.298   1.332  1.5555 -0.6179 -0.2209
15767SOL     OW48143   7.717   2.838   5.533  0.0925  0.1807 -0.7789
15767SOL    HW148144   7.728   2.896   5.457  0.2253  0.2505 -0.7076
15767SOL    HW248145   7.630   2.857   5.566  0.7993  1.6898  0.3629
15768SOL     OW48146   4.302   4.255   6.654 -0.3608  0.2515 -0.2539
15768SOL    HW148147   4.354   4.322   6.699 -0.4747  0.2272 -0.0810
15768SOL    HW248148   4.337   4.172   6.686  1.1784  0.1527 -2.0324
15769SOL     OW48149   7.489   6.459   2.558  0.4093  0.5222 -0.2684
15769SOL    HW148150   7.429   6.521   2.601 -0.0169 -0.9224  1.3157
15769SOL    HW248151   7.527   6.509   2.485 -1.0067  2.1761  0.0685
15770SOL     OW48152   3.058   4.826   2.124  0.0682  0.0664 -0.1962
15770SOL    HW148153   3.107   4.818   2.043 -0.1329 -1.1931 -0.2120
15770SOL    HW248154   3.113   4.881   2.180  1.6658 -1.5441 -0.1094
15771SOL     OW48155   6.414   6.779   2.000 -0.0355 -0.3230  0.0246
15771SOL    HW148156   6.379   6.697   1.967 -2.0486 -1.8388  4.9478
15771SOL    HW248157   6.337   6.835   2.013  0.9206  1.1123 -0.2760
15772SOL     OW48158   8.171   5.858   7.117 -0.3161 -0.1842 -0.1761
15772SOL    HW148159   8.114   5.791   7.079  0.2606  0.0971 -1.5844
15772SOL    HW248160   8.111   5.913   7.168 -0.8821 -1.4153  0.5445
15773SOL     OW48161   5.256   2.375   8.135  0.4211 -0.1414 -0.5388
15773SOL    HW148162   5.332   2.340   8.089 -0.8589 -0.0420 -2.8412
15773SOL    HW248163   5.264   2.470   8.127  0.2435 -0.1163 -0.4276
15774SOL     OW48164   1.676   3.922   5.453 -1.4946  0.4998 -0.3008
15774SOL    HW148165   1.723   3.901   5.372  0.3660 -0.0150  0.8346
15774SOL    HW248166   1.625   4.000   5.432  0.6464  1.6962 -1.3971
15775SOL     OW48167   1.446   1.749   1.268 -0.1714 -0.3730  0.5806
15775SOL    HW148168   1.523   1.798   1.298  0.4562 -0.8204 -0.2605
15775SOL    HW248169   1.456   1.662   1.308  0.5385 -0.8926 -0.6435
15776SOL     OW48170   6.777   1.058   7.988  0.0785 -0.1636  0.5839
15776SOL    HW148171   6.786   0.993   8.057 -2.2403  1.0341  2.1376
15776SOL    HW248172   6.724   1.015   7.921  0.1184 -0.4738  0.7488
15777SOL     OW48173   3.957   4.485   3.688  0.2280 -0.4553  0.6130
15777SOL    HW148174   3.931   4.523   3.772 -0.6839 -0.7391  0.4646
15777SOL    HW248175   3.963   4.560   3.628  0.4445 -0.3073  0.8172
15778SOL     OW48176   3.416   5.598   5.010 -0.4685  0.3620 -0.0892
15778SOL    HW148177   3.424   5.533   5.080  0.1893 -0.5126 -0.9379
15778SOL    HW248178   3.322   5.617   5.006 -0.4208  1.1506  1.6284
15779SOL     OW48179   2.603   7.666   7.723 -0.3906 -0.0367 -0.6334
15779SOL    HW148180   2.689   7.707   7.727 -0.1555 -0.6073  0.7079
15779SOL    HW248181   2.620   7.572   7.728 -1.0569 -0.1807 -0.9565
15780SOL     OW48182   7.669   4.553   2.749 -0.2267  0.0469 -0.5093
15780SOL    HW148183   7.664   4.505   2.831 -1.9984  0.8340 -0.1065
15780SOL    HW248184   7.579   4.581   2.732  0.6280  2.9564 -0.8340
15781SOL     OW48185   7.003   0.324   7.625 -0.8086 -0.3141  0.4423
15781SOL    HW148186   7.050   0.242   7.609 -0.1367 -0.0137  0.8230
15781SOL    HW248187   6.930   0.323   7.562 -0.9328 -1.2922  0.5881
15782SOL     OW48188   2.564   6.821   3.468  0.1105  0.1586 -0.1397
15782SOL    HW148189   2.650   6.864   3.465  0.4922 -0.6356 -0.8432
15782SOL    HW248190   2.542   6.805   3.377 -0.7768  0.3127  0.0402
15783SOL     OW48191   1.758   4.958   5.979 -0.2086 -0.2315 -0.9633
15783SOL    HW148192   1.825   4.890   5.971 -1.0200 -1.0351 -1.2372
15783SOL    HW248193   1.762   5.007   5.897  1.1818  0.8375 -0.2856
15784SOL     OW48194   1.152   4.274   2.014 -0.5330 -0.0400 -0.4831
15784SOL    HW148195   1.072   4.230   2.045  0.2432 -2.1212 -1.2673
15784SOL    HW248196   1.130   4.304   1.926 -0.8138  0.5371 -0.2306
15785SOL     OW48197   5.752   5.063   2.450 -0.3544  0.4010 -0.5127
15785SOL    HW148198   5.779   5.050   2.541  1.2843  1.0251 -0.8814
15785SOL    HW248199   5.695   5.141   2.453 -0.9290 -0.0342  0.0713
15786SOL     OW48200   4.331   1.588   1.647  0.3464  0.4022  0.1448
15786SOL    HW148201   4.272   1.663   1.638 -0.2181  0.1653  1.6236
15786SOL    HW248202   4.402   1.607   1.585 -0.5722  1.3694 -0.6648
15787SOL     OW48203   7.546   0.717   6.410 -0.4279 -0.2859 -0.3530
15787SOL    HW148204   7.547   0.649   6.342 -1.3955 -0.4964 -0.1773
15787SOL    HW248205   7.482   0.780   6.380  2.6760  2.3160 -2.1116
15788SOL     OW48206   3.651   3.453   1.574 -0.2529 -0.2747 -0.0883
15788SOL    HW148207   3.663   3.519   1.505 -1.8797 -0.9058 -1.0542
15788SOL    HW248208   3.642   3.370   1.526 -0.7372 -0.8311  0.9248
15789SOL     OW48209   2.435   0.448   4.296 -0.2802  0.2294  0.0058
15789SOL    HW148210   2.350   0.492   4.286  0.0114  0.6548 -0.6460
15789SOL    HW248211   2.493   0.516   4.328  0.5333  0.7614 -2.3903
15790SOL     OW48212   5.200   7.150   2.328  0.3208  0.1371  0.4535
15790SOL    HW148213   5.191   7.062   2.292  3.1197 -0.5810  1.2490
15790SOL    HW248214   5.255   7.139   2.405  1.3497  2.6475  0.1787
15791SOL     OW48215   0.608   7.112   6.898 -0.2291 -0.0187 -0.3503
15791SOL    HW148216   0.574   7.183   6.844  0.5134 -1.3969 -2.7814
15791SOL    HW248217   0.632   7.043   6.835 -0.0346 -2.0581  1.8135
15792SOL     OW48218   8.180   6.820   2.211  0.2216 -0.5103 -0.3034
15792SOL    HW148219   8.121   6.779   2.275 -0.6952  0.3110 -0.5956
15792SOL    HW248220   8.226   6.887   2.261 -1.5907  1.1860 -0.7384
15793SOL     OW48221   2.952   0.647   5.226  0.0000 -0.1207  0.1057
15793SOL    HW148222   2.969   0.592   5.303  0.7303 -0.4389 -0.2645
15793SOL    HW248223   3.037   0.651   5.181 -0.3505  0.2968 -0.5287
15794SOL     OW48224   4.976   0.680   8.110 -0.3863  0.3326  0.7700
15794SOL    HW148225   4.904   0.659   8.169 -1.7985  0.0302 -0.9580
15794SOL    HW248226   5.055   0.656   8.158 -1.2559  2.3746  3.4542
15795SOL     OW48227   0.992   5.551   0.433  0.1254  0.0932 -0.3924
15795SOL    HW148228   0.961   5.467   0.468 -1.5659 -0.1271 -2.2567
15795SOL    HW248229   0.949   5.617   0.487  0.8243 -0.2060  0.5609
15796SOL     OW48230   4.099   2.943   4.958  0.3524 -0.0660  0.2451
15796SOL    HW148231   4.188   2.912   4.973  0.5365 -0.2787 -1.1084
15796SOL    HW248232   4.093   3.025   5.007  1.0469 -0.4204  0.9380
15797SOL     OW48233   1.473   1.467   0.973 -0.1665  0.0101  0.0710
15797SOL    HW148234   1.380   1.453   0.953 -0.1886  0.4264 -0.1448
15797SOL    HW248235   1.478   1.560   0.999  0.0469 -0.2286  0.9314
15798SOL     OW48236   2.533   1.519   6.029  0.0874  0.1763 -0.6312
15798SOL    HW148237   2.627   1.500   6.020  0.1682  0.4120 -0.2908
15798SOL    HW248238   2.493   1.434   6.045  0.0396 -0.1720 -2.3310
15799SOL     OW48239   1.113   7.960   6.615  0.0064  0.5413  0.8106
15799SOL    HW148240   1.190   7.911   6.643  0.7680  0.0477 -1.8293
15799SOL    HW248241   1.146   8.022   6.549 -1.9795 -1.0693 -1.9454
15800SOL     OW48242   5.417   0.653   7.879  0.0674  0.4163  0.2068
15800SOL    HW148243   5.442   0.594   7.809 -1.3694  0.2961 -0.2457
15800SOL    HW248244   5.500   0.681   7.918  0.8357 -0.5041 -0.7072
15801SOL     OW48245   8.047   0.257   1.515  0.1435 -0.2607 -0.1104
15801SOL    HW148246   8.096   0.187   1.559  1.2210  0.6747  0.2189
15801SOL    HW248247   8.081   0.258   1.425  0.1393 -0.1575 -0.1114
15802SOL     OW48248   3.222   1.301   1.705  0.2341 -0.5758 -0.0701
15802SOL    HW148249   3.250   1.315   1.795  1.7494  0.3895 -0.6407
15802SOL    HW248250   3.221   1.389   1.666 -0.3009 -0.9840 -1.0231
15803SOL     OW48251   1.512   6.270   7.623 -0.1517  0.1930  0.0060
15803SOL    HW148252   1.596   6.246   7.663  0.3132  2.5561  0.5865
15803SOL    HW248253   1.453   6.200   7.649  1.3065 -0.8356  0.7189
15804SOL     OW48254   5.583   0.030   5.154 -0.3206  0.3432  0.2005
15804SOL    HW148255   5.521  -0.000   5.088 -0.1711 -4.0245  1.7402
15804SOL    HW248256   5.538   0.101   5.199 -2.1822  0.5064 -1.7727
15805SOL     OW48257   3.438   5.486   3.634 -0.1678  0.4351 -0.1341
15805SOL    HW148258   3.461   5.394   3.643 -0.7003  0.2672 -0.4131
15805SOL    HW248259   3.429   5.500   3.540  1.0018  1.0588 -0.1746
15806SOL     OW48260   5.934   3.856   5.403 -0.1882 -0.0657  0.2860
15806SOL    HW148261   5.902   3.907   5.477 -2.0651 -2.7844  1.5016
15806SOL    HW248262   5.990   3.789   5.442 -0.4559 -0.9915 -0.8329
15807SOL     OW48263   5.128   5.956   4.092  0.1389  0.1884 -0.1091
15807SOL    HW148264   5.042   5.979   4.125 -0.9419 -0.1401 -2.5317
15807SOL    HW248265   5.114   5.877   4.040  1.6734  0.7526 -1.4748
15808SOL     OW48266   2.052   2.643   2.941 -0.1077 -0.1840  0.2816
15808SOL    HW148267   2.081   2.553   2.956 -1.3284 -0.5134  0.7252
15808SOL    HW248268   2.133   2.691   2.920  0.7931 -1.0276  1.6507
15809SOL     OW48269   7.767   3.766   3.832 -0.1752  0.1416  0.7394
15809SOL    HW148270   7.807   3.738   3.914  0.1425  0.2759  0.6299
15809SOL    HW248271   7.836   3.757   3.767 -0.5057 -0.2293  0.4345
15810SOL     OW48272   7.213   1.094   1.135  1.1250  0.4796 -0.1105
15810SOL    HW148273   7.192   1.100   1.228  0.5500  0.9244 -0.2567
15810SOL    HW248274   7.129   1.111   1.091  1.2734 -0.2827 -0.7015
15811SOL     OW48275   2.027   6.341   0.096 -0.6273  0.1161 -0.2857
15811SOL    HW148276   1.945   6.324   0.050  0.7849 -2.7584 -2.0608
15811SOL    HW248277   2.093   6.347   0.027  0.6918  2.7446  1.0532
15812SOL     OW48278   7.900   1.088   2.410  0.1296  0.9238 -0.1773
15812SOL    HW148279   7.901   1.024   2.481  0.7618  0.7566 -0.3315
15812SOL    HW248280   7.842   1.050   2.343  0.2695  0.6533 -0.1436
15813SOL     OW48281   5.917   2.362   4.534 -0.3030 -0.4081  0.3593
15813SOL    HW148282   5.947   2.440   4.580  0.8040 -0.7113  0.1812
15813SOL    HW248283   5.873   2.394   4.456 -0.4929  0.0467  0.6509
15814SOL     OW48284   5.304   3.538   3.646  0.2375  0.0392 -0.0070
15814SOL    HW148285   5.348   3.618   3.673 -0.1102 -0.0584  0.8635
15814SOL    HW248286   5.223   3.536   3.697 -1.3336  0.7367 -2.3101
15815SOL     OW48287   0.436   7.849   2.353  0.4769 -0.4752  0.3573
15815SOL    HW148288   0.349   7.890   2.357  0.2090 -0.9694 -0.2841
15815SOL    HW248289   0.464   7.846   2.445  0.6393  1.3916  0.4107
15816SOL     OW48290   0.388   4.086   4.880  0.1980 -0.1399 -0.8052
15816SOL    HW148291   0.325   4.019   4.855  1.0820 -0.6249 -1.8174
15816SOL    HW248292   0.410   4.066   4.971 -1.2248  0.1603 -0.3663
15817SOL     OW48293   7.574   1.717   2.280  0.0035  0.1756 -0.0826
15817SOL    HW148294   7.563   1.692   2.372 -1.4586 -1.6819 -0.7313
15817SOL    HW248295   7.669   1.713   2.266  0.1077 -1.4451  0.8515
15818SOL     OW48296   1.245   3.604   6.760  0.1635 -0.5742  0.3220
15818SOL    HW148297   1.316   3.635   6.817  1.8057 -2.9827 -0.2403
15818SOL    HW248298   1.187   3.556   6.818  0.4679 -0.8698  0.3893
15819SOL     OW48299   6.880   7.421   3.093 -0.0911 -0.7495  0.0123
15819SOL    HW148300   6.961   7.464   3.120 -0.5675 -0.9469  1.9035
15819SOL    HW248301   6.812   7.463   3.144 -1.1070 -1.0938 -1.0063
15820SOL     OW48302   1.040   0.670   7.267  0.3264 -0.3905  0.1161
15820SOL    HW148303   1.029   0.594   7.325 -0.5241  0.0245  0.5108
15820SOL    HW248304   0.954   0.712   7.265  1.1719  1.5556  1.3048
15821SOL     OW48305   5.636   7.228   3.619  0.1294 -0.2943 -0.4475
15821SOL    HW148306   5.626   7.136   3.644  0.3557 -0.1092  0.3651
15821SOL    HW248307   5.581   7.275   3.682  0.5816  0.1799 -0.4034
15822SOL     OW48308   5.182   4.420   5.917  0.3470 -0.1398  0.3659
15822SOL    HW148309   5.093   4.418   5.884  0.5065  1.4823 -0.2667
15822SOL    HW248310   5.188   4.345   5.977 -0.5388 -2.0225 -1.7643
15823SOL     OW48311   5.148   1.256   2.860  0.2108 -0.3135  0.3093
15823SOL    HW148312   5.186   1.237   2.775  0.2826  0.2572  0.2101
15823SOL    HW248313   5.062   1.215   2.858  0.6381 -1.2326  0.3732
15824SOL     OW48314   1.471   7.842   3.515 -0.1446 -0.2475 -0.1313
15824SOL    HW148315   1.472   7.933   3.545 -0.4587  0.0273 -0.9265
15824SOL    HW248316   1.387   7.832   3.471 -0.1050 -0.9232 -0.0617
15825SOL     OW48317   0.043   4.208   3.120  0.0453  0.0305 -0.2472
15825SOL    HW148318   0.026   4.117   3.096 -1.2141 -1.0906  4.0012
15825SOL    HW248319   0.134   4.223   3.096  0.3950 -2.4969 -0.7589
15826SOL     OW48320   7.165   5.298   1.410 -0.2156 -0.5120 -0.3847
15826SOL    HW148321   7.106   5.306   1.485  0.0764 -1.6009 -0.0138
15826SOL    HW248322   7.227   5.229   1.436  0.7292  0.0596 -1.0815
15827SOL     OW48323   3.007   5.026   5.469 -0.2041  0.5150  0.2936
15827SOL    HW148324   2.980   4.996   5.556  0.4442 -0.7538  0.0626
15827SOL    HW248325   3.028   4.947   5.420  2.1813  1.3186 -0.1346
15828SOL     OW48326   1.173   4.357   1.293 -0.1253 -0.3344  0.0677
15828SOL    HW148327   1.249   4.395   1.338  0.4289 -0.0433 -1.0910
15828SOL    HW248328   1.197   4.266   1.278  0.2750 -0.0817 -0.8767
15829SOL     OW48329   0.897   3.449   7.852 -0.1285 -0.8844 -0.1931
15829SOL    HW148330   0.926   3.495   7.773  0.1613  0.8650  0.8932
15829SOL    HW248331   0.972   3.451   7.910 -0.7259 -1.0605  0.6046
15830SOL     OW48332   6.753   3.563   5.873  0.0602  0.3163  0.2597
15830SOL    HW148333   6.685   3.614   5.917 -0.0171 -0.5902  1.2494
15830SOL    HW248334   6.729   3.471   5.889  0.6185 -0.0355 -0.7999
15831SOL     OW48335   1.771   2.395   0.729  0.0259  0.3776  0.0980
15831SOL    HW148336   1.742   2.486   0.738 -0.5739  0.1727  0.2539
15831SOL    HW248337   1.690   2.344   0.729  0.4070 -0.2930  1.6005
15832SOL     OW48338   5.661   7.915   1.502  0.2364 -0.3546  0.1884
15832SOL    HW148339   5.657   7.879   1.414 -1.5481  1.0496 -0.3631
15832SOL    HW248340   5.720   7.856   1.549  0.6179 -1.5844 -1.7120
15833SOL     OW48341   7.737   1.020   5.441  0.0221  0.2579 -0.3219
15833SOL    HW148342   7.690   1.104   5.441  1.1664  0.9254 -0.6957
15833SOL    HW248343   7.684   0.963   5.497 -1.5623  0.7742 -1.2346
15834SOL     OW48344   7.551   0.067   0.708 -0.5094  0.4242  0.0445
15834SOL    HW148345   7.526  -0.009   0.761  0.2790  0.6623  0.7872
15834SOL    HW248346   7.494   0.138   0.739  0.9959  0.9754  1.7582
15835SOL     OW48347   4.405   6.886   3.856 -0.0676  0.2152  0.7652
15835SOL    HW148348   4.327   6.899   3.802  1.2594 -0.3021 -1.4120
15835SOL    HW248349   4.391   6.802   3.899 -0.0607 -0.6603 -0.8753
15836SOL     OW48350   3.259   7.605   0.802 -0.0001  0.8596  0.1177
15836SOL    HW148351   3.307   7.676   0.761  1.9811 -0.9059 -0.8163
15836SOL    HW248352   3.299   7.596   0.889  0.4105  0.3099 -0.1210
15837SOL     OW48353   5.107   0.882   7.056  0.3328 -0.5122  0.7214
15837SOL    HW148354   5.085   0.790   7.069 -0.9636 -0.8475 -2.6951
15837SOL    HW248355   5.035   0.930   7.097  0.0867 -1.0914  0.9784
15838SOL     OW48356   6.895   4.946   8.022 -0.0685  0.4234  0.2946
15838SOL    HW148357   6.908   4.855   7.995  0.5691 -0.0436  2.0500
15838SOL    HW248358   6.982   4.986   8.015 -0.2475  0.7779  0.0186
15839SOL     OW48359   6.441   1.187   6.355  0.5651 -0.0677  0.4365
15839SOL    HW148360   6.348   1.187   6.379 -0.0024 -0.4637 -1.6036
15839SOL    HW248361   6.487   1.199   6.438 -1.3286  1.1306  1.3859
15840SOL     OW48362   3.036   0.853   2.059 -0.5375 -0.1074  0.2820
15840SOL    HW148363   3.016   0.851   1.965 -0.7361  1.7828  0.2608
15840SOL    HW248364   2.952   0.869   2.101 -0.4771 -1.1253  0.8161
15841SOL     OW48365   6.026   4.284   1.095  0.1568  0.3925 -0.8233
15841SOL    HW148366   6.010   4.376   1.113 -0.1431  0.3877 -1.0679
15841SOL    HW248367   5.964   4.237   1.151  0.4834  0.3268 -0.5061
15842SOL     OW48368   8.011   1.010   0.149  0.1959 -0.1287  0.7146
15842SOL    HW148369   7.937   1.014   0.088  0.0070  2.6339  1.0033
15842SOL    HW248370   7.978   0.960   0.224 -0.6178 -0.8310 -0.0854
15843SOL     OW48371   1.517   5.652   2.010 -0.2547 -0.1656  0.0595
15843SOL    HW148372   1.555   5.582   1.958 -0.5407 -0.1654 -0.1578
15843SOL    HW248373   1.429   5.620   2.033 -0.0706 -0.2356  0.6852
15844SOL     OW48374   5.494   7.072   2.192  0.1291 -0.2908  0.2186
15844SOL    HW148375   5.501   7.062   2.097  0.1772  0.4650  0.1401
15844SOL    HW248376   5.436   7.147   2.204  0.7041  0.0718  0.7781
15845SOL     OW48377   5.043   4.674   4.557 -0.4995  0.0538 -0.1437
15845SOL    HW148378   5.014   4.588   4.585 -1.2044  0.2778 -0.1717
15845SOL    HW248379   5.053   4.667   4.462  1.4987 -0.5888  0.0558
15846SOL     OW48380   3.603   0.003   3.562  0.6181 -0.2865 -0.3563
15846SOL    HW148381   3.660  -0.071   3.583  1.0199  0.0030 -0.4262
15846SOL    HW248382   3.573  -0.015   3.473 -0.6869 -1.2561  0.2439
15847SOL     OW48383   0.330   7.741   1.028 -0.3574  0.1872 -0.6161
15847SOL    HW148384   0.334   7.815   0.967 -1.9132  1.4533  0.7084
15847SOL    HW248385   0.372   7.669   0.981 -0.4779  1.3897 -2.7274
15848SOL     OW48386   7.572   1.907   1.494  0.4100  0.2521  0.2937
15848SOL    HW148387   7.658   1.890   1.531 -0.3382 -1.4613  1.3899
15848SOL    HW248388   7.556   1.833   1.435  0.9696  2.1901 -2.4769
15849SOL     OW48389   5.897   5.564   4.116 -0.4014 -0.4571 -0.0795
15849SOL    HW148390   5.871   5.611   4.037  0.3739  0.1782  0.0283
15849SOL    HW248391   5.820   5.513   4.140 -1.8678  1.9600  0.6925
15850SOL     OW48392   5.049   3.135   4.920 -0.2937 -0.5451 -0.3493
15850SOL    HW148393   5.041   3.223   4.959 -1.7840 -0.5607 -0.5557
15850SOL    HW248394   5.140   3.130   4.892  0.3428  0.1828  1.4287
15851SOL     OW48395   6.536   2.297   5.054  0.0701 -0.0789  0.4941
15851SOL    HW148396   6.543   2.292   5.150  0.8646  0.2400  0.4547
15851SOL    HW248397   6.551   2.207   5.025  0.5208 -0.0550  0.6363
15852SOL     OW48398   4.854   4.409   6.462  0.4509 -0.1369  0.1195
15852SOL    HW148399   4.773   4.377   6.423  1.0558 -0.4080 -0.9406
15852SOL    HW248400   4.898   4.329   6.492  0.7097 -0.0624 -0.0639
15853SOL     OW48401   1.122   0.121   6.731 -0.3535 -0.4498  0.2570
15853SOL    HW148402   1.068   0.160   6.663 -1.5610  0.1894  1.5309
15853SOL    HW248403   1.086   0.033   6.742 -1.9331  0.3274  1.8419
15854SOL     OW48404   5.908   3.951   8.188  0.0677 -0.2417  0.1471
15854SOL    HW148405   5.905   3.865   8.146  1.1421 -0.3745  0.3115
15854SOL    HW248406   5.989   3.950   8.238  0.5833  1.2152 -0.6158
15855SOL     OW48407   0.996   3.996   6.058 -0.0597  0.1894  0.2960
15855SOL    HW148408   1.005   3.996   5.963 -0.4656  0.3872  0.2553
15855SOL    HW248409   0.982   4.087   6.081  1.6345  0.3654  0.7168
15856SOL     OW48410   3.982   1.840   8.074 -0.2826 -0.0344 -0.4441
15856SOL    HW148411   3.922   1.793   8.017  0.0136  0.0468 -0.8321
15856SOL    HW248412   4.052   1.777   8.093  0.4632  0.4448 -1.5174
15857SOL     OW48413   4.960   6.600   1.591 -0.0217  0.2355 -0.2964
15857SOL    HW148414   5.038   6.649   1.567 -0.6351  2.5193  1.9721
15857SOL    HW248415   4.991   6.537   1.656  0.6442 -2.1466 -2.7366
15858SOL     OW48416   3.360   6.219   4.073  0.3671  0.1261 -0.2630
15858SOL    HW148417   3.415   6.280   4.121 -0.1113  0.8483 -0.6110
15858SOL    HW248418   3.320   6.164   4.140  2.8433 -1.5964 -0.1033
15859SOL     OW48419   2.864   1.840   2.145 -0.5329  0.3836  0.1633
15859SOL    HW148420   2.822   1.800   2.068  0.7614  2.6170 -1.8699
15859SOL    HW248421   2.803   1.910   2.171 -0.7226 -0.0414  0.8951
15860SOL     OW48422   7.546   3.913   7.454  0.5099 -0.2022  0.1181
15860SOL    HW148423   7.578   3.982   7.397 -2.0501  0.0656 -1.1123
15860SOL    HW248424   7.501   3.852   7.396  0.1212 -1.3296  1.5319
15861SOL     OW48425   2.479   7.099   4.520  0.3475  0.0411  0.6717
15861SOL    HW148426   2.459   7.039   4.447  0.6972  2.3731 -1.4729
15861SOL    HW248427   2.406   7.088   4.581 -2.0047  0.6278 -1.8466
15862SOL     OW48428   3.283   5.123   0.419 -0.2035 -0.0345  0.3344
15862SOL    HW148429   3.249   5.114   0.330 -1.1521 -2.9852  0.8924
15862SOL    HW248430   3.348   5.053   0.427 -1.0376 -0.6374  2.3072
15863SOL     OW48431   6.128   0.298   4.940  0.1128 -0.1877 -0.0756
15863SOL    HW148432   6.067   0.295   5.014  1.1281 -0.0692  0.7940
15863SOL    HW248433   6.213   0.316   4.980  0.5411  0.8123 -1.3673
15864SOL     OW48434   1.758   4.157   4.691  0.3522 -0.0913  0.3761
15864SOL    HW148435   1.729   4.100   4.620 -2.2329  1.5494 -0.0196
15864SOL    HW248436   1.757   4.245   4.654 -0.0517  0.7004  2.1183
15865SOL     OW48437   3.005   8.057   7.390  0.4078  0.4926 -0.3396
15865SOL    HW148438   2.939   8.094   7.449 -1.7401 -1.2127 -1.4978
15865SOL    HW248439   3.018   7.967   7.422 -0.2900 -0.2456 -1.9822
15866SOL     OW48440   5.455   7.370   5.886 -0.2883 -0.6883 -0.1005
15866SOL    HW148441   5.368   7.406   5.869 -0.4829 -1.2616 -0.3408
15866SOL    HW248442   5.497   7.435   5.941 -0.9250 -0.4763  0.1450
15867SOL     OW48443   0.831   7.572   7.367 -0.5898  0.3693 -0.4410
15867SOL    HW148444   0.912   7.599   7.324 -0.1098 -1.5237 -0.7927
15867SOL    HW248445   0.821   7.634   7.440  0.9557  0.8695 -0.6114
15868SOL     OW48446   1.086   4.950   7.132  0.1168 -0.2680 -0.1766
15868SOL    HW148447   1.038   5.017   7.082  1.8696  1.3339  0.1561
15868SOL    HW248448   1.065   4.868   7.089 -1.3143  0.6204 -1.2657
15869SOL     OW48449   7.208   0.718   6.728 -0.4119 -0.1473 -0.0061
15869SOL    HW148450   7.126   0.721   6.678 -1.4190 -0.9902  1.5078
15869SOL    HW248451   7.276   0.704   6.662 -1.4418  0.7495 -1.3221
15870SOL     OW48452   3.324   3.474   8.140  0.2435  0.4693  0.3810
15870SOL    HW148453   3.318   3.538   8.211 -1.0259 -0.6098  1.2995
15870SOL    HW248454   3.402   3.422   8.161 -0.3142 -0.0575  1.1947
15871SOL     OW48455   2.663   1.433   5.729 -0.4547 -0.4586 -0.0165
15871SOL    HW148456   2.594   1.493   5.702  0.9847  0.9545 -0.7274
15871SOL    HW248457   2.617   1.353   5.755 -2.3486  0.5402 -0.1567
15872SOL     OW48458   5.098   7.363   6.980 -0.1458  0.7462 -0.0216
15872SOL    HW148459   5.145   7.417   6.917  0.3541  1.6004  1.0351
15872SOL    HW248460   5.066   7.426   7.046 -1.7600  0.0459 -0.0892
15873SOL     OW48461   6.810   1.353   2.464 -0.1735 -0.2949 -0.2463
15873SOL    HW148462   6.764   1.406   2.399  2.8685  1.6296 -1.0186
15873SOL    HW248463   6.755   1.360   2.543 -2.1001  0.3144 -1.5650
15874SOL     OW48464   3.811   1.448   4.292 -0.3393 -0.2588 -0.3340
15874SOL    HW148465   3.762   1.459   4.374 -1.2302  1.6766 -1.0795
15874SOL    HW248466   3.900   1.429   4.320 -0.2763  1.9221  1.1424
15875SOL     OW48467   1.892   5.934   8.077 -0.1211 -0.0982  0.7973
15875SOL    HW148468   1.800   5.958   8.068  0.0534 -0.1739 -2.3772
15875SOL    HW248469   1.903   5.859   8.018  2.3840  1.3147 -0.7223
15876SOL     OW48470   1.436   2.812   4.724  0.2615 -0.9861  0.1614
15876SOL    HW148471   1.499   2.884   4.723  1.0868 -1.5922  2.5170
15876SOL    HW248472   1.465   2.754   4.653  1.9246 -0.8691  0.7047
15877SOL     OW48473   5.873   0.223   1.118  0.3519  0.0244 -0.4032
15877SOL    HW148474   5.871   0.266   1.204  0.2118  0.5913 -0.6867
15877SOL    HW248475   5.886   0.294   1.056  0.6419 -0.4081 -0.8423
15878SOL     OW48476   5.001   8.109   6.886  0.6907  0.0929 -0.6151
15878SOL    HW148477   5.011   8.098   6.981  0.9232  1.0552 -0.5119
15878SOL    HW248478   4.920   8.160   6.877  2.2919  2.7966 -0.7100
15879SOL     OW48479   3.854   1.275   5.276 -0.6189 -0.1336 -0.0403
15879SOL    HW148480   3.937   1.320   5.258 -0.1724 -0.9012  0.0507
15879SOL    HW248481   3.794   1.346   5.301 -0.0927  0.4738 -0.4442
15880SOL     OW48482   1.713   0.933   2.675 -0.0739  0.1057 -0.7684
15880SOL    HW148483   1.796   0.975   2.653  0.4858 -0.6227 -0.0948
15880SOL    HW248484   1.702   0.865   2.608  1.3302 -1.7050  0.6923
15881SOL     OW48485   3.309   7.093   6.177 -0.0626 -0.0748  0.4575
15881SOL    HW148486   3.257   7.165   6.213 -1.2570 -0.4549 -0.4455
15881SOL    HW248487   3.253   7.054   6.111  1.1608 -0.8934 -0.1303
15882SOL     OW48488   4.225   0.319   6.770  1.0000 -0.0165 -0.3080
15882SOL    HW148489   4.302   0.307   6.826  0.5423  1.4317  0.7017
15882SOL    HW248490   4.242   0.264   6.694  1.9936 -1.4768  0.9026
15883SOL     OW48491   3.711   7.167   4.827 -0.3395 -0.6451 -0.3868
15883SOL    HW148492   3.706   7.108   4.752  0.9940 -0.8998 -0.2984
15883SOL    HW248493   3.749   7.248   4.793 -1.3793 -0.1087 -0.3309
15884SOL     OW48494   7.397   8.217   8.208 -0.0630  0.0166 -0.3773
15884SOL    HW148495   7.441   8.299   8.232 -1.8679  1.3826 -1.3946
15884SOL    HW248496   7.407   8.161   8.285  0.8622  1.3564  0.5351
15885SOL     OW48497   4.565   0.495   2.245 -0.1928 -0.0554 -0.2961
15885SOL    HW148498   4.575   0.519   2.153 -0.2463  0.0611 -0.2725
15885SOL    HW248499   4.471   0.499   2.260 -0.0948  1.2620  0.1122
15886SOL     OW48500   7.378   5.186   0.277 -0.0809 -0.1738  0.6405
15886SOL    HW148501   7.293   5.208   0.315 -0.5843  0.5023 -0.8038
15886SOL    HW248502   7.385   5.091   0.286 -1.1767 -0.2910  0.4051
15887SOL     OW48503   2.060   1.908   5.787 -0.1832 -0.4965 -0.2164
15887SOL    HW148504   1.965   1.920   5.800 -0.1951  0.3030 -0.9491
15887SOL    HW248505   2.074   1.928   5.695  0.7023 -0.6156 -0.1113
15888SOL     OW48506   2.055   6.136   7.341 -0.2802 -0.3490 -0.4501
15888SOL    HW148507   2.078   6.108   7.429  1.8038  4.0090  0.6848
15888SOL    HW248508   2.098   6.073   7.283  3.1440 -0.3068  1.7557
15889SOL     OW48509   2.717   8.027   2.041 -0.0968 -0.2536 -0.1871
15889SOL    HW148510   2.719   7.971   2.118  2.3563 -0.8071 -0.5727
15889SOL    HW248511   2.646   7.991   1.987 -0.5825 -1.0427  0.9452
15890SOL     OW48512   7.733   7.003   0.035  0.0385  0.0619  0.3398
15890SOL    HW148513   7.700   6.966  -0.047  1.1766 -2.3514  0.8738
15890SOL    HW248514   7.677   7.078   0.052 -3.6169 -2.3537 -0.0261
15891SOL     OW48515   1.501   4.877   5.844  1.4747 -0.6979  0.0435
15891SOL    HW148516   1.487   4.948   5.781 -0.0524 -0.9900  0.0078
15891SOL    HW248517   1.552   4.916   5.915  3.0094 -0.2994 -1.2343
15892SOL     OW48518   7.349   4.922   0.328  0.1226 -0.2769  0.4028
15892SOL    HW148519   7.412   4.859   0.360 -1.2871 -2.5538 -1.0251
15892SOL    HW248520   7.270   4.907   0.380  0.3656  1.8995  1.5439
15893SOL     OW48521   7.153   2.457   2.552 -0.7855 -0.2293  0.0488
15893SOL    HW148522   7.167   2.377   2.602 -1.1482 -0.1049  0.3619
15893SOL    HW248523   7.088   2.433   2.486 -0.5775 -0.3013 -0.1296
15894SOL     OW48524   7.900   0.502   7.921 -0.6050 -1.0467 -0.1297
15894SOL    HW148525   7.927   0.488   7.831  1.6070 -2.4275  0.6735
15894SOL    HW248526   7.853   0.422   7.945 -2.0290 -0.3022 -0.2750
15895SOL     OW48527   0.492   4.246   6.398 -0.4427 -0.5295 -0.3756
15895SOL    HW148528   0.538   4.163   6.391  1.9230  0.8072 -1.8820
15895SOL    HW248529   0.438   4.251   6.319 -1.4870 -1.0856  0.2765
15896SOL     OW48530   3.444   3.481   7.252 -0.3791  0.0262 -0.8712
15896SOL    HW148531   3.476   3.434   7.175  0.8191 -0.9914  0.1838
15896SOL    HW248532   3.523   3.521   7.289 -0.8982  0.3023 -0.0570
15897SOL     OW48533   3.632   8.144   5.249  0.1188 -0.0467  0.6067
15897SOL    HW148534   3.593   8.107   5.170 -0.5472  0.9625  0.4428
15897SOL    HW248535   3.685   8.218   5.216  1.6647 -0.9762  0.8882
15898SOL     OW48536   5.521   6.617   0.793 -0.0568  0.0618  0.2677
15898SOL    HW148537   5.461   6.624   0.719 -0.5541  1.5005  0.7713
15898SOL    HW248538   5.494   6.539   0.840  0.3872 -0.9911 -1.1480
15899SOL     OW48539   3.818   7.455   0.658 -0.4010 -0.4796  0.3738
15899SOL    HW148540   3.795   7.547   0.670  0.5786 -0.0878 -0.5936
15899SOL    HW248541   3.909   7.456   0.627 -1.0885 -1.6164 -1.9638
15900SOL     OW48542   8.183   6.092   0.837 -0.5274  0.3840 -0.3278
15900SOL    HW148543   8.136   6.120   0.916 -0.6104  0.3286 -0.3571
15900SOL    HW248544   8.275   6.107   0.857 -0.3674 -1.3936  0.5222
15901SOL     OW48545   5.714   3.072   2.346 -0.3795 -0.1398 -0.0085
15901SOL    HW148546   5.655   3.003   2.315 -1.6065  0.3113  1.1945
15901SOL    HW248547   5.736   3.122   2.268 -1.2002 -0.6453 -0.5766
15902SOL     OW48548   3.010   1.486   7.167 -0.2468  0.7163 -0.7636
15902SOL    HW148549   3.076   1.502   7.099  0.4009  0.0557 -0.3123
15902SOL    HW248550   3.043   1.533   7.244  0.8373 -1.2804  0.0884
15903SOL     OW48551   7.496   3.867   5.919  0.3465 -0.3022  0.7598
15903SOL    HW148552   7.421   3.821   5.880  0.8900 -0.9737  0.4680
15903SOL    HW248553   7.458   3.932   5.977 -0.4847  0.5322 -0.6931
15904SOL     OW48554   0.276   7.475   1.537 -0.5761  0.6131 -0.4856
15904SOL    HW148555   0.297   7.556   1.490 -0.0401  1.5455  1.2986
15904SOL    HW248556   0.184   7.459   1.517 -0.1816  0.4938 -2.5020
15905SOL     OW48557   3.361   7.028   4.713 -0.2034 -0.3771 -0.0917
15905SOL    HW148558   3.367   7.123   4.701  0.1010 -0.2922  0.6570
15905SOL    HW248559   3.302   6.999   4.643  0.6685  0.1938 -1.1008
15906SOL     OW48560   0.408   1.062   0.545 -0.0429 -0.2333  0.0924
15906SOL    HW148561   0.358   0.999   0.492  1.7928 -0.9534 -0.8493
15906SOL    HW248562   0.379   1.045   0.635  1.2284 -3.3350  0.0389
15907SOL     OW48563   6.102   5.971   4.809 -0.4226  0.4230  0.1375
15907SOL    HW148564   6.145   6.052   4.833 -0.6683  0.5706  0.0881
15907SOL    HW248565   6.037   5.997   4.744 -1.6145  0.4397  1.2917
15908SOL     OW48566   0.738   0.268   6.243  0.3397  0.2290 -0.0500
15908SOL    HW148567   0.777   0.181   6.251 -0.1456 -0.0258 -0.4007
15908SOL    HW248568   0.769   0.302   6.159 -1.3266 -0.5766 -1.0466
15909SOL     OW48569   2.385   6.597   5.562  0.1156 -0.4426 -0.5108
15909SOL    HW148570   2.434   6.567   5.486 -0.6351 -0.5704 -0.9617
15909SOL    HW248571   2.297   6.614   5.527  0.1225  0.8091  0.0416
15910SOL     OW48572   7.874   1.978   2.638  0.1364  0.0538  0.5872
15910SOL    HW148573   7.865   2.070   2.664  2.1537  0.6507 -0.6033
15910SOL    HW248574   7.811   1.967   2.567 -1.6913 -0.1577  2.1552
15911SOL     OW48575   6.950   6.054   5.426  0.1952 -0.0621  0.0133
15911SOL    HW148576   6.984   5.966   5.408 -0.9273 -0.7119  0.8633
15911SOL    HW248577   6.864   6.055   5.384 -0.4569  0.0600  1.2958
15912SOL     OW48578   1.057   6.127   6.611  0.0966  0.2192 -0.0058
15912SOL    HW148579   1.040   6.167   6.696 -0.8479  1.3285 -0.6871
15912SOL    HW248580   0.986   6.063   6.601  0.3450 -0.0810  0.1344
15913SOL     OW48581   3.018   0.521   3.858 -0.0873 -0.1083  0.2442
15913SOL    HW148582   2.986   0.544   3.945 -0.8296 -1.2737  0.3149
15913SOL    HW248583   3.109   0.550   3.856 -0.9976  3.1565  0.1266
15914SOL     OW48584   4.562   0.053   1.962  0.1522  0.1683  0.9651
15914SOL    HW148585   4.623   0.071   1.890 -0.7980 -2.2052 -0.5372
15914SOL    HW248586   4.583   0.121   2.028  3.3364  0.3962 -0.0764
15915SOL     OW48587   3.791   7.047   4.171  0.2105 -1.0077  0.0567
15915SOL    HW148588   3.762   6.955   4.172 -1.7553 -0.4459 -0.7056
15915SOL    HW248589   3.786   7.072   4.079 -2.2714  0.6987  0.5695
15916SOL     OW48590   1.328   2.358   0.500 -0.4657 -0.0031 -0.2658
15916SOL    HW148591   1.356   2.447   0.523 -0.8383  0.1132 -0.2489
15916SOL    HW248592   1.264   2.335   0.567 -0.2053 -0.3748 -0.1419
15917SOL     OW48593   3.925   5.521   2.620  0.4599 -0.2217  0.3977
15917SOL    HW148594   3.865   5.517   2.695  0.6019 -1.3289  0.4613
15917SOL    HW248595   3.868   5.511   2.544  0.1094  2.4437  0.2278
15918SOL     OW48596   2.102   1.858   3.247 -0.0967  0.3158  0.0526
15918SOL    HW148597   2.022   1.883   3.294  0.4643  1.9634  0.2301
15918SOL    HW248598   2.171   1.870   3.312  0.4060  0.0038 -0.4217
15919SOL     OW48599   5.961   4.783   1.018 -0.6032 -0.1800 -0.0519
15919SOL    HW148600   5.940   4.697   0.982 -0.6000 -0.6616  1.0496
15919SOL    HW248601   5.876   4.818   1.048 -0.4126 -0.4148  0.7833
15920SOL     OW48602   7.468   4.234   2.143  0.3135 -0.5717  0.4788
15920SOL    HW148603   7.386   4.270   2.109  0.4883 -0.9020 -0.3116
15920SOL    HW248604   7.536   4.273   2.088  0.4838 -2.3467 -0.6466
15921SOL     OW48605   2.808   4.715   5.831 -0.2367  0.0822 -0.3255
15921SOL    HW148606   2.827   4.733   5.923 -0.0370 -2.3707  0.1744
15921SOL    HW248607   2.894   4.708   5.789 -0.3065  0.1318 -0.4784
15922SOL     OW48608   6.947   0.798   0.801  0.1078 -0.0423  0.5503
15922SOL    HW148609   6.979   0.752   0.878  0.3064 -2.7692 -1.0386
15922SOL    HW248610   6.852   0.803   0.813  0.2167  0.3048  1.3149
15923SOL     OW48611   3.111   0.933   5.646 -0.2278 -0.0466  0.1319
15923SOL    HW148612   3.082   0.950   5.736  0.2136 -1.2527  0.5193
15923SOL    HW248613   3.039   0.884   5.607 -0.0603 -0.2612  0.0941
15924SOL     OW48614   3.718   6.460   7.896 -0.1868  0.2393  0.1115
15924SOL    HW148615   3.654   6.410   7.845  0.3470 -0.5607  0.2123
15924SOL    HW248616   3.766   6.394   7.945  1.7004  0.6590 -1.0618
15925SOL     OW48617   1.733   6.495   6.998 -0.2672 -0.3073 -0.1104
15925SOL    HW148618   1.681   6.468   7.074  1.0958  0.7176  1.2616
15925SOL    HW248619   1.756   6.413   6.955 -0.2435 -1.0027  1.1704
15926SOL     OW48620   2.069   5.964   5.870  0.1233 -0.7365  0.1537
15926SOL    HW148621   2.060   5.981   5.776 -1.5413 -0.4082  0.3361
15926SOL    HW248622   2.073   5.869   5.877  0.0781 -0.7680 -0.2428
15927SOL     OW48623   0.218   6.417   0.568 -0.0599 -0.1088  0.2806
15927SOL    HW148624   0.279   6.366   0.515  0.0301 -0.8430  1.0924
15927SOL    HW248625   0.141   6.362   0.577 -0.7860  0.7297 -0.5624
15928SOL     OW48626   6.296   2.534   7.164  0.0430  0.0855  0.3043
15928SOL    HW148627   6.273   2.583   7.085 -0.1971  1.1320  0.9978
15928SOL    HW248628   6.270   2.444   7.145 -0.6592  0.4496 -0.5446
15929SOL     OW48629   1.768   6.088   0.322 -0.2091  0.5608 -0.2844
15929SOL    HW148630   1.709   6.136   0.264 -0.5284 -0.0770 -0.4989
15929SOL    HW248631   1.847   6.073   0.270 -0.0816  0.9142 -0.1926
15930SOL     OW48632   0.413   1.651   1.624  0.1286 -0.2837  0.4646
15930SOL    HW148633   0.376   1.738   1.617  0.1075 -0.2638  0.8302
15930SOL    HW248634   0.374   1.614   1.703  0.9352 -0.2359  0.8969
15931SOL     OW48635   0.437   3.213   5.848 -0.2116  0.7253  0.0032
15931SOL    HW148636   0.460   3.127   5.813  1.5628  1.9747 -2.1410
15931SOL    HW248637   0.382   3.194   5.924 -0.8713 -2.2542 -1.0883
15932SOL     OW48638   2.647   8.086   8.074 -0.0434 -0.2148  0.4637
15932SOL    HW148639   2.609   8.103   8.161 -0.3254  2.8839 -0.1555
15932SOL    HW248640   2.571   8.074   8.017  0.1344 -1.7631  0.5256
15933SOL     OW48641   5.027   2.152   2.749 -0.3201 -0.0193  0.0350
15933SOL    HW148642   5.009   2.238   2.712  0.9928 -0.2674 -1.2507
15933SOL    HW248643   5.024   2.166   2.844 -2.0586  0.9906 -0.1272
15934SOL     OW48644   4.033   7.599   3.321  0.2181  0.0822  0.2993
15934SOL    HW148645   4.107   7.628   3.267  0.9010  0.2834  1.2979
15934SOL    HW248646   4.044   7.647   3.404  0.6266 -2.0028  1.5332
15935SOL     OW48647   3.837   3.497   1.002  0.3417 -0.5199 -0.4739
15935SOL    HW148648   3.757   3.445   1.013 -0.6435  0.8642 -0.7456
15935SOL    HW248649   3.904   3.448   1.049 -0.3162 -2.4816 -1.4462
15936SOL     OW48650   0.779   0.103   7.268  0.0062  0.1895  0.3616
15936SOL    HW148651   0.820   0.129   7.185  1.4711 -2.0721  0.2776
15936SOL    HW248652   0.695   0.148   7.268 -0.3948 -0.3177 -2.7292
15937SOL     OW48653   6.090   6.197   4.367 -0.0069  0.1663  0.0240
15937SOL    HW148654   6.085   6.290   4.348 -1.6913  0.1179  0.1043
15937SOL    HW248655   6.021   6.182   4.432  1.4834 -0.8026  1.4846
15938SOL     OW48656   6.994   3.667   3.244  0.1844 -0.6277 -0.0888
15938SOL    HW148657   6.940   3.691   3.319 -0.0503 -0.7213 -0.2254
15938SOL    HW248658   7.070   3.623   3.282 -0.0525 -0.8977  0.0809
15939SOL     OW48659   5.100   1.761   1.235  0.3536 -0.5557 -0.3569
15939SOL    HW148660   5.056   1.677   1.230  2.5166 -1.7531 -0.3201
15939SOL    HW248661   5.193   1.740   1.238  1.1655  1.9149 -3.4010
15940SOL     OW48662   5.755   7.185   7.767  0.3976 -0.8326 -0.1548
15940SOL    HW148663   5.750   7.091   7.783  0.4905 -0.8746 -0.3639
15940SOL    HW248664   5.817   7.218   7.832 -0.6175 -0.7115  0.7629
15941SOL     OW48665   6.255   5.853   2.456 -0.4667 -0.1006 -0.5840
15941SOL    HW148666   6.350   5.860   2.463 -0.2446 -1.9814 -1.2598
15941SOL    HW248667   6.222   5.891   2.538  0.8960 -0.0250 -0.0522
15942SOL     OW48668   1.632   6.028   4.382 -0.4716  0.6543 -0.1089
15942SOL    HW148669   1.670   5.996   4.464 -2.0918 -1.3701 -0.0465
15942SOL    HW248670   1.537   6.022   4.397 -0.7954  0.2327 -2.1120
15943SOL     OW48671   7.737   1.083   1.654  0.5369 -0.6098  0.2254
15943SOL    HW148672   7.749   1.009   1.714  2.1318 -0.7305 -0.2074
15943SOL    HW248673   7.780   1.055   1.573 -0.6629 -0.0240 -0.6487
15944SOL     OW48674   1.152   4.246   7.778  0.6924 -0.2295  0.0841
15944SOL    HW148675   1.245   4.265   7.767  0.6882  0.2823  0.8412
15944SOL    HW248676   1.141   4.232   7.872  0.3683 -2.3514 -0.2309
15945SOL     OW48677   1.785   4.139   7.658 -0.0938  0.3293  0.1877
15945SOL    HW148678   1.811   4.049   7.641 -0.4130  0.2312  0.2102
15945SOL    HW248679   1.754   4.172   7.573 -1.4646 -0.0852  0.4980
15946SOL     OW48680   2.870   4.063   0.255  0.1846 -0.1371  0.5583
15946SOL    HW148681   2.964   4.043   0.249  0.5522  1.6795 -0.7425
15946SOL    HW248682   2.868   4.153   0.289 -1.2477 -1.2552  3.8073
15947SOL     OW48683   4.686   2.131   7.037  0.2960 -0.0473 -0.2783
15947SOL    HW148684   4.737   2.091   6.967  1.2955  0.5700  0.0872
15947SOL    HW248685   4.630   2.060   7.069 -0.3863 -0.2546 -1.8798
15948SOL     OW48686   1.672   5.989   4.656  0.3921 -0.0638  0.0493
15948SOL    HW148687   1.620   6.020   4.730  0.4786 -0.6314  0.3529
15948SOL    HW248688   1.763   6.001   4.684  0.4801 -2.5497  1.0668
15949SOL     OW48689   1.386   4.449   1.396 -0.3204  0.3502  0.3595
15949SOL    HW148690   1.389   4.465   1.490 -0.6353  0.5653  0.3344
15949SOL    HW248691   1.466   4.490   1.363 -0.7430  1.2241  0.3984
15950SOL     OW48692   0.619   0.255   2.528 -0.1238 -0.1504 -0.5651
15950SOL    HW148693   0.620   0.339   2.484 -1.0035 -0.6543 -1.5708
15950SOL    HW248694   0.649   0.192   2.462  0.3423 -0.6705  0.1128
15951SOL     OW48695   6.815   6.979   5.955  0.0060  0.2768 -0.0078
15951SOL    HW148696   6.891   7.015   5.909  0.7598  0.1445  1.0955
15951SOL    HW248697   6.753   7.052   5.961 -0.3020  0.1785 -1.5966
15952SOL     OW48698   5.813   7.178   0.489  0.3255 -0.3711  0.5726
15952SOL    HW148699   5.862   7.231   0.426 -2.4795  0.9642 -0.7253
15952SOL    HW248700   5.875   7.159   0.559  1.9822  3.4001  0.3775
15953SOL     OW48701   1.044   7.916   2.052 -0.6255 -0.6333 -0.6404
15953SOL    HW148702   1.131   7.948   2.078 -1.2340 -0.1648  0.9463
15953SOL    HW248703   1.057   7.881   1.964  1.0508 -0.0748 -0.6578
15954SOL     OW48704   7.688   7.746   7.132 -0.4550  0.2206 -0.0636
15954SOL    HW148705   7.704   7.656   7.160 -0.4791  0.4382  0.6605
15954SOL    HW248706   7.771   7.790   7.144 -1.1920  1.0583  2.5718
15955SOL     OW48707   0.423   7.417   2.872  0.0915 -0.4750 -0.7145
15955SOL    HW148708   0.403   7.498   2.918  0.3079 -0.3687 -0.8054
15955SOL    HW248709   0.506   7.388   2.910 -0.0593 -0.7323 -0.5773
15956SOL     OW48710   4.109   2.154   6.689  0.1667  0.3209 -0.5112
15956SOL    HW148711   4.139   2.198   6.609 -0.9854  1.3233 -0.4155
15956SOL    HW248712   4.036   2.100   6.660  1.9014 -2.0808 -0.7368
15957SOL     OW48713   0.244   6.659   7.813  0.0611  0.0075  0.0120
15957SOL    HW148714   0.230   6.673   7.719 -2.2712  0.9789  0.4344
15957SOL    HW248715   0.205   6.573   7.830  3.4182 -1.7724 -0.3850
15958SOL     OW48716   6.869   7.291   8.136 -0.2873  0.1838  0.5271
15958SOL    HW148717   6.845   7.309   8.045  1.6018  1.9630  0.3148
15958SOL    HW248718   6.964   7.304   8.139 -0.4194  1.0710  2.9415
15959SOL     OW48719   5.415   5.752   4.799 -0.0170 -0.2631  0.4070
15959SOL    HW148720   5.471   5.773   4.874  0.7778 -1.1574  0.0976
15959SOL    HW248721   5.382   5.664   4.818 -0.5045 -0.1463  0.1083
15960SOL     OW48722   8.166   5.457   6.008  0.2197  0.3031 -0.4004
15960SOL    HW148723   8.237   5.501   5.962  1.9687 -0.2700  1.6027
15960SOL    HW248724   8.159   5.503   6.092 -0.6236 -0.7047  0.1098
15961SOL     OW48725   1.384   2.002   0.077 -0.8076  0.1101  0.3487
15961SOL    HW148726   1.354   2.063   0.010 -2.5515  0.1665  1.1088
15961SOL    HW248727   1.322   2.013   0.149  1.8186  1.0961  2.6323
15962SOL     OW48728   3.984   3.486   5.991  0.0905 -0.7972  0.3136
15962SOL    HW148729   3.963   3.436   6.070  1.3493 -0.1720  1.0807
15962SOL    HW248730   4.046   3.431   5.944 -0.3417 -0.9867 -0.0387
15963SOL     OW48731   7.151   7.208   1.589 -0.9425 -0.3844 -0.0010
15963SOL    HW148732   7.226   7.262   1.614 -1.0728 -0.4010  0.4316
15963SOL    HW248733   7.089   7.218   1.662 -0.7957 -1.4523  0.2849
15964SOL     OW48734   2.448   2.069   4.391  0.0450 -0.2576 -0.3647
15964SOL    HW148735   2.527   2.016   4.379  0.4436  0.6019 -1.7766
15964SOL    HW248736   2.378   2.005   4.402  0.6732 -1.0782 -0.9632
15965SOL     OW48737   4.587   3.260   0.609  0.0813  0.1445  0.0620
15965SOL    HW148738   4.566   3.314   0.685  0.4750 -0.0203  0.2917
15965SOL    HW248739   4.574   3.318   0.534  0.4321  0.5401  0.3016
15966SOL     OW48740   6.217   7.832   3.629 -0.1209  0.2604 -0.4332
15966SOL    HW148741   6.189   7.747   3.594  0.1396  0.2893 -0.7130
15966SOL    HW248742   6.182   7.834   3.718 -0.6620  0.1215 -0.6404
15967SOL     OW48743   6.659   4.260   1.488  0.3762  0.3688  0.3168
15967SOL    HW148744   6.616   4.175   1.481 -0.5983  0.8223  0.6959
15967SOL    HW248745   6.588   4.324   1.485  1.1851  1.2345 -1.0328
15968SOL     OW48746   1.225   8.026   2.894  0.4887 -0.1368 -0.4404
15968SOL    HW148747   1.131   8.033   2.914  0.4155 -0.0632 -0.7977
15968SOL    HW248748   1.239   7.934   2.875  0.0147  0.1778 -2.6104
15969SOL     OW48749   6.240   3.934   5.578 -0.2517  0.0162  0.4865
15969SOL    HW148750   6.224   3.919   5.485  1.3697  0.3734  0.1119
15969SOL    HW248751   6.166   3.988   5.607  0.0220  1.2596 -0.9925
15970SOL     OW48752   7.663   8.038   1.498 -0.3048 -0.1414  0.2558
15970SOL    HW148753   7.575   8.026   1.535 -0.4163  0.5689  0.2344
15970SOL    HW248754   7.671   7.968   1.433 -0.8905 -0.1507  0.1867
15971SOL     OW48755   4.566   7.530   2.498  0.3844  0.1283 -0.3965
15971SOL    HW148756   4.562   7.541   2.403 -0.2494  0.5602 -0.3276
15971SOL    HW248757   4.589   7.616   2.532  1.6495 -0.2631 -0.2030
15972SOL     OW48758   1.391   4.058   2.110 -0.2046 -0.4006 -0.0740
15972SOL    HW148759   1.409   3.968   2.084 -1.5572 -0.3711 -1.2017
15972SOL    HW248760   1.297   4.068   2.099 -0.0136  1.3082 -0.4486
15973SOL     OW48761   2.159   7.502   6.465 -0.7474  0.1278 -0.2272
15973SOL    HW148762   2.110   7.497   6.383 -0.3128 -0.5681 -0.4550
15973SOL    HW248763   2.095   7.533   6.529 -2.1146 -2.6832 -0.0729
15974SOL     OW48764   2.684   1.112   5.680 -0.0680  0.5317 -0.3157
15974SOL    HW148765   2.596   1.147   5.692 -0.0519  0.3807  0.2663
15974SOL    HW248766   2.678   1.021   5.708  0.0858  0.2891 -1.0490
15975SOL     OW48767   6.069   2.776   2.987 -0.2729  0.0971  0.3267
15975SOL    HW148768   6.063   2.694   3.036  0.8293  0.1248  0.5369
15975SOL    HW248769   6.104   2.750   2.901 -1.7503  0.1090 -0.3009
15976SOL     OW48770   2.982   0.418   0.487 -0.4577  0.8245  0.3563
15976SOL    HW148771   2.912   0.356   0.508  0.6298 -0.6354 -0.1367
15976SOL    HW248772   3.062   0.377   0.521  0.1687  2.5687  1.1407
15977SOL     OW48773   6.074   4.452   3.523  1.0274 -0.7634 -0.3253
15977SOL    HW148774   6.156   4.474   3.567  0.2513  2.1689 -0.1728
15977SOL    HW248775   6.071   4.510   3.448 -1.2935 -0.2054  0.1477
15978SOL     OW48776   0.021   6.384   4.623 -0.2471 -0.0972  0.3172
15978SOL    HW148777  -0.025   6.345   4.548 -0.0130  0.6122 -0.2008
15978SOL    HW248778  -0.040   6.449   4.657 -0.4948 -0.6592  0.9685
15979SOL     OW48779   6.696   2.629   6.113  0.2001 -0.1613 -0.0678
15979SOL    HW148780   6.775   2.596   6.071 -0.7177 -2.3343 -0.2305
15979SOL    HW248781   6.675   2.710   6.065  2.9754  1.2194  0.8411
15980SOL     OW48782   2.142   0.751   3.403  0.0867 -0.0565  0.2824
15980SOL    HW148783   2.100   0.773   3.486  0.4924  0.8891  0.2527
15980SOL    HW248784   2.205   0.822   3.389  1.1524 -1.0420 -0.0455
15981SOL     OW48785   0.568   4.653   4.759  0.1760  0.6752 -0.2848
15981SOL    HW148786   0.565   4.588   4.689  0.4648 -0.1972  0.4916
15981SOL    HW248787   0.527   4.610   4.834  0.7536  1.2297  0.3678
15982SOL     OW48788   2.592   2.734   3.047  0.0258  0.1264  0.1690
15982SOL    HW148789   2.647   2.688   2.983  1.9950  2.7058 -0.1641
15982SOL    HW248790   2.512   2.756   2.998  0.4881 -0.0095 -0.6671
15983SOL     OW48791   7.083   7.837   4.345 -0.2265  0.6255  0.5132
15983SOL    HW148792   7.141   7.808   4.275 -0.0112  1.4940  0.3191
15983SOL    HW248793   7.043   7.757   4.378 -1.4163  0.2905 -1.5496
15984SOL     OW48794   4.633   5.331   0.018 -0.1687 -0.2234 -0.7446
15984SOL    HW148795   4.660   5.320   0.109 -1.5550  0.3914 -0.2372
15984SOL    HW248796   4.574   5.258   0.002 -0.1064 -0.2010 -1.0782
15985SOL     OW48797   4.923   5.663   2.600  0.6116 -0.0174 -0.1270
15985SOL    HW148798   4.954   5.663   2.509 -0.7349  0.2870 -0.6146
15985SOL    HW248799   4.878   5.747   2.609  0.7281 -0.0542  0.8250
15986SOL     OW48800   5.442   5.840   4.537 -0.8609  0.2774 -0.4072
15986SOL    HW148801   5.458   5.835   4.632 -0.3240  0.4913 -0.4801
15986SOL    HW248802   5.446   5.750   4.507 -1.3356  0.1795 -0.1779
15987SOL     OW48803   7.162   1.563   1.221 -0.2526  0.6469  0.0072
15987SOL    HW148804   7.243   1.515   1.242 -1.0803  0.1328  2.3338
15987SOL    HW248805   7.192   1.642   1.176  1.8331  1.6853  2.9145
15988SOL     OW48806   5.407   0.019   4.943  0.1582  0.4248 -0.2528
15988SOL    HW148807   5.384   0.111   4.957  0.2749  0.5504 -0.8922
15988SOL    HW248808   5.458   0.018   4.862 -0.2485 -0.2602 -0.5102
15989SOL     OW48809   1.126   3.456   2.951  0.0387 -0.3097  0.1418
15989SOL    HW148810   1.217   3.474   2.930 -0.4558  0.7008 -1.2475
15989SOL    HW248811   1.075   3.505   2.887 -1.4774 -2.3618 -0.3441
15990SOL     OW48812   0.232   6.659   7.545  0.2707  0.7637 -0.7985
15990SOL    HW148813   0.247   6.582   7.490  0.9858 -0.0428  0.4576
15990SOL    HW248814   0.138   6.676   7.538 -0.4148 -1.7952  0.7980
15991SOL     OW48815   3.542   7.143   6.319  0.4568 -0.1303 -0.2525
15991SOL    HW148816   3.463   7.123   6.270  1.7125  1.6483 -3.2791
15991SOL    HW248817   3.572   7.058   6.352 -1.3276 -1.1833 -1.2064
15992SOL     OW48818   5.885   6.652   5.275  0.0508  0.5446  0.6471
15992SOL    HW148819   5.832   6.629   5.198  1.4174 -0.1511 -0.1140
15992SOL    HW248820   5.854   6.593   5.343  0.2059 -0.2303  0.0622
15993SOL     OW48821   7.274   7.167   3.070 -0.0949  0.2152 -0.0020
15993SOL    HW148822   7.319   7.083   3.080 -0.3947 -0.0477 -0.7599
15993SOL    HW248823   7.319   7.226   3.129 -0.7540 -0.8229  1.6055
15994SOL     OW48824   2.831   2.470   7.793  0.2366 -0.5078 -0.4426
15994SOL    HW148825   2.849   2.521   7.714  1.0692  0.8065  0.5497
15994SOL    HW248826   2.740   2.444   7.785  0.4613 -0.8873 -2.0882
15995SOL     OW48827   1.890   2.270   2.541  0.0277  0.2893  1.1825
15995SOL    HW148828   1.800   2.268   2.575 -0.0382  0.5713  1.0279
15995SOL    HW248829   1.911   2.363   2.537 -0.6465  0.4094 -1.3461
15996SOL     OW48830   3.028   2.229   0.520  0.1595 -0.2766  0.3992
15996SOL    HW148831   2.949   2.179   0.499  0.5345 -0.8630  0.3596
15996SOL    HW248832   2.995   2.309   0.562 -0.4106 -1.1143  1.6344
15997SOL     OW48833   6.708   1.613   1.846 -0.1123  0.3839  0.9335
15997SOL    HW148834   6.641   1.641   1.908 -0.0648  2.0453  0.2934
15997SOL    HW248835   6.659   1.589   1.767  0.0155  1.4731  0.5095
15998SOL     OW48836   6.475   1.726   1.121 -0.3325  0.4581  0.2054
15998SOL    HW148837   6.549   1.721   1.061  0.2358 -0.3354  0.9517
15998SOL    HW248838   6.433   1.809   1.099 -1.4507 -0.7594 -2.7535
15999SOL     OW48839   7.400   0.822   6.065 -0.3387  0.4122 -0.0673
15999SOL    HW148840   7.342   0.750   6.089  1.0900 -1.3547 -1.6365
15999SOL    HW248841   7.436   0.853   6.149  0.1015 -1.6468  0.5457
16000SOL     OW48842   4.540   7.146   1.269 -0.0010  0.6506 -0.1574
16000SOL    HW148843   4.628   7.112   1.250 -0.4244 -0.2162 -0.6293
16000SOL    HW248844   4.510   7.182   1.186  0.6718  2.8312  0.4563
16001SOL     OW48845   6.341   6.103   4.420  0.1349 -0.3211 -0.4114
16001SOL    HW148846   6.248   6.113   4.402  0.3388 -0.8854 -1.9233
16001SOL    HW248847   6.348   6.022   4.471 -0.1739 -0.5361 -0.7048
16002SOL     OW48848   6.138   1.339   3.659  0.0272  0.3871  0.2367
16002SOL    HW148849   6.214   1.351   3.716 -0.2492 -1.1496  1.0095
16002SOL    HW248850   6.103   1.427   3.646  1.6075  1.0539  0.3150
16003SOL     OW48851   3.825   1.848   4.067 -0.0020  0.1206 -0.2394
16003SOL    HW148852   3.867   1.836   4.152  0.3162 -0.8368 -0.5208
16003SOL    HW248853   3.797   1.760   4.041  0.2735  0.3331 -1.3082
16004SOL     OW48854   7.336   7.664   2.925 -0.6492 -0.1220  0.6691
16004SOL    HW148855   7.340   7.569   2.912  0.0405  0.1156 -1.1185
16004SOL    HW248856   7.427   7.691   2.933 -0.7946  0.4917  0.2963
16005SOL     OW48857   0.175   5.418   0.940  0.2184 -0.0393 -0.0334
16005SOL    HW148858   0.161   5.432   0.846  0.3328  1.3176  0.1357
16005SOL    HW248859   0.265   5.444   0.956  0.4909 -1.1265  0.3167
16006SOL     OW48860   6.870   6.980   6.843 -0.3919 -0.2266  0.3060
16006SOL    HW148861   6.848   7.020   6.759  0.9040 -0.0891  0.0055
16006SOL    HW248862   6.962   7.004   6.858  0.3303 -2.7022  0.3164
16007SOL     OW48863   7.804   7.390   1.171 -0.1970  0.1775 -0.4385
16007SOL    HW148864   7.727   7.368   1.224 -1.0551  0.9964 -1.2860
16007SOL    HW248865   7.781   7.474   1.130  1.7630  1.1755  0.4241
16008SOL     OW48866   6.522   2.006   1.059 -0.6940 -0.1153  0.4098
16008SOL    HW148867   6.615   2.001   1.038 -0.4114 -0.4352  1.6704
16008SOL    HW248868   6.480   2.026   0.975  0.5216  0.2608 -0.1331
16009SOL     OW48869   1.387   2.108   3.507 -0.4691 -0.2450  0.1343
16009SOL    HW148870   1.362   2.183   3.452 -1.2746 -0.5900  0.0139
16009SOL    HW248871   1.355   2.032   3.459 -2.3685 -0.4933  1.6666
16010SOL     OW48872   3.666   7.597   5.464  0.4156 -0.1932 -0.2448
16010SOL    HW148873   3.701   7.510   5.483 -0.7060 -0.5022  0.5341
16010SOL    HW248874   3.630   7.626   5.548  0.0346  0.6729 -0.6993
16011SOL     OW48875   7.774   3.547   2.152  0.3540  0.4140 -0.5688
16011SOL    HW148876   7.796   3.467   2.105  0.2555 -0.3355  0.6225
16011SOL    HW248877   7.762   3.519   2.243 -1.0267  1.5517 -0.3689
16012SOL     OW48878   2.953   1.495   7.606  0.0871  0.0028  0.1649
16012SOL    HW148879   2.998   1.459   7.683  0.6123 -1.1820 -0.6606
16012SOL    HW248880   2.860   1.481   7.623  0.1536  0.3588  0.8662
16013SOL     OW48881   0.920   2.504   7.247  0.6250 -0.0668  0.2697
16013SOL    HW148882   0.918   2.431   7.309  2.4107 -1.0876 -0.7530
16013SOL    HW248883   1.005   2.546   7.263  1.0333 -0.2228 -1.2527
16014SOL     OW48884   5.044   4.114   2.611  0.2921 -0.0137  0.4635
16014SOL    HW148885   5.015   4.146   2.526  1.4755  1.3982  0.5288
16014SOL    HW248886   5.132   4.079   2.595  0.8110  0.8940  1.1873
16015SOL     OW48887   4.607   0.739   0.673 -0.1246  0.2025  0.2787
16015SOL    HW148888   4.611   0.643   0.669  3.2341  0.2706 -0.8243
16015SOL    HW248889   4.582   0.765   0.584  2.3644  0.3439 -0.4366
16016SOL     OW48890   0.751   8.216   5.873 -0.3098 -0.1121 -0.5521
16016SOL    HW148891   0.755   8.133   5.920 -0.1543  0.6671  0.8561
16016SOL    HW248892   0.674   8.261   5.908 -1.1238 -0.1475 -2.1801
16017SOL     OW48893   3.323   0.174   5.761 -0.0688 -0.3349  0.5615
16017SOL    HW148894   3.376   0.217   5.828  0.7057 -0.5441  0.0872
16017SOL    HW248895   3.383   0.156   5.690 -0.3501 -2.1969  0.7359
16018SOL     OW48896   3.191   7.430   2.083 -0.6101  0.0792  0.3456
16018SOL    HW148897   3.211   7.419   2.176  0.6114 -1.5580 -0.0529
16018SOL    HW248898   3.260   7.380   2.038 -1.7955 -0.0707 -1.3980
16019SOL     OW48899   0.571   7.069   3.219  0.3839  0.1623 -0.1201
16019SOL    HW148900   0.650   7.023   3.190 -0.5706 -1.3566 -0.4121
16019SOL    HW248901   0.543   7.118   3.143 -0.5476 -1.6153 -0.9956
16020SOL     OW48902   6.330   0.745   6.368  0.7470 -0.1248  0.5041
16020SOL    HW148903   6.339   0.821   6.426 -1.5125  0.5317  0.1146
16020SOL    HW248904   6.333   0.781   6.280 -1.3516 -0.2457  0.3162
16021SOL     OW48905   1.102   7.300   1.734 -0.0543  0.5043 -0.0692
16021SOL    HW148906   1.121   7.315   1.827  0.3348 -1.4838  0.2140
16021SOL    HW248907   1.031   7.236   1.734 -1.3439  1.8923 -1.1667
16022SOL     OW48908   2.921   7.342   1.733 -0.0329  1.1355  0.2575
16022SOL    HW148909   2.980   7.292   1.675  1.6165  0.5938  2.2978
16022SOL    HW248910   2.853   7.279   1.757  0.3762  0.7598  0.4533
16023SOL     OW48911   1.665   4.115   7.269 -0.2340 -0.2509 -0.0741
16023SOL    HW148912   1.703   4.181   7.328  0.3242 -0.7125  0.0986
16023SOL    HW248913   1.628   4.049   7.328  1.2774 -1.2654 -0.1884
16024SOL     OW48914   7.065   8.007   7.379 -0.0890  0.3097 -0.3428
16024SOL    HW148915   7.026   8.051   7.454 -2.5331 -1.2794 -0.5674
16024SOL    HW248916   7.092   7.921   7.412  1.1043  0.5238 -0.7355
16025SOL     OW48917   3.955   3.181   5.413  0.0289  0.2872  0.3480
16025SOL    HW148918   3.943   3.253   5.351  0.2148 -1.0667 -1.3222
16025SOL    HW248919   3.886   3.119   5.391 -2.1044  1.1787  3.7667
16026SOL     OW48920   2.458   3.532   7.914  0.0322  0.8423 -0.6943
16026SOL    HW148921   2.536   3.477   7.913 -0.9737 -0.7398  1.3259
16026SOL    HW248922   2.428   3.530   8.005 -2.9566  0.5120 -1.5706
16027SOL     OW48923   3.044   5.921   1.091  0.1082  0.1320 -0.8616
16027SOL    HW148924   2.993   5.846   1.060  1.5332 -0.7681 -1.1463
16027SOL    HW248925   3.070   5.897   1.180  0.7159  0.2053 -1.0146
16028SOL     OW48926   7.153   3.589   8.118 -0.3720 -0.6757  0.8760
16028SOL    HW148927   7.236   3.614   8.158  0.8272 -2.2736 -0.4274
16028SOL    HW248928   7.089   3.596   8.188  0.8874  0.4343  1.9695
16029SOL     OW48929   5.901   5.960   1.931 -0.0437  0.1163  0.1189
16029SOL    HW148930   5.883   5.931   2.021  0.6788 -0.9436 -0.0531
16029SOL    HW248931   5.996   5.952   1.922 -0.2941 -2.1086 -1.4552
16030SOL     OW48932   0.257   8.020   2.618 -0.4332  0.3269 -0.0230
16030SOL    HW148933   0.288   8.111   2.615 -1.1547  0.5811  0.1438
16030SOL    HW248934   0.338   7.968   2.623  0.0069  0.9209 -0.7166
16031SOL     OW48935   2.829   6.587   1.809 -0.7436 -0.8834  0.3653
16031SOL    HW148936   2.876   6.656   1.762 -0.7807 -1.0817  0.0352
16031SOL    HW248937   2.898   6.527   1.837 -0.8418 -1.4967 -0.6492
16032SOL     OW48938   0.693   2.413   3.682  0.0251 -0.4970 -0.3306
16032SOL    HW148939   0.787   2.431   3.675  0.1815 -1.0700  0.2937
16032SOL    HW248940   0.678   2.394   3.774 -0.6816 -0.5824 -0.4544
16033SOL     OW48941   7.314   1.657   3.278  0.1192 -0.3669  0.1639
16033SOL    HW148942   7.305   1.749   3.303  2.6200  0.0539 -0.2514
16033SOL    HW248943   7.337   1.659   3.186 -1.1773 -1.5259 -0.2168
16034SOL     OW48944   7.606   1.646   2.536  0.1799 -0.2173  0.4044
16034SOL    HW148945   7.682   1.659   2.593  0.5045  0.3393 -0.1345
16034SOL    HW248946   7.532   1.641   2.595  0.6224 -0.6557  0.9357
16035SOL     OW48947   4.345   3.534   5.710  0.4580 -0.1528  0.1525
16035SOL    HW148948   4.427   3.531   5.660 -0.6553  1.6589 -1.9369
16035SOL    HW248949   4.276   3.534   5.644 -1.1047  3.4175  1.4871
16036SOL     OW48950   5.234   4.368   2.455  0.8148 -0.0428 -0.5350
16036SOL    HW148951   5.233   4.378   2.551 -1.0550  0.5456 -0.5705
16036SOL    HW248952   5.142   4.372   2.430  1.3002  0.1865 -2.4101
16037SOL     OW48953   3.019   6.619   5.318 -0.2394  0.0051  0.1337
16037SOL    HW148954   3.096   6.664   5.285  0.8504 -2.9442 -1.6984
16037SOL    HW248955   2.959   6.615   5.244 -2.2602  2.2398  1.5239
16038SOL     OW48956   5.635   1.905   8.001  0.0538 -0.2334 -0.3592
16038SOL    HW148957   5.676   1.819   7.986  2.8769  1.2071 -1.7227
16038SOL    HW248958   5.676   1.938   8.081 -1.6910 -0.4476  0.6773
16039SOL     OW48959   7.393   5.330   0.997  0.1644  0.2705 -0.0531
16039SOL    HW148960   7.406   5.298   1.086  0.9591 -0.4413 -0.4092
16039SOL    HW248961   7.391   5.251   0.943 -2.0976  0.5684 -0.4950
16040SOL     OW48962   5.051   0.130   4.267 -0.0797  0.0127  0.1646
16040SOL    HW148963   5.107   0.207   4.274  0.0664 -0.0837  0.0538
16040SOL    HW248964   5.050   0.109   4.173  3.8081 -3.0127  0.5502
16041SOL     OW48965   2.956   7.828   3.876  0.2515 -0.0440 -0.2345
16041SOL    HW148966   2.879   7.882   3.862  0.2552 -0.1910 -0.8849
16041SOL    HW248967   2.972   7.831   3.970 -1.0692 -0.7384  0.0324
16042SOL     OW48968   3.531   4.076   0.933 -0.1509  0.4661  0.0399
16042SOL    HW148969   3.535   4.164   0.971 -0.2438  0.8164 -0.7505
16042SOL    HW248970   3.445   4.071   0.893 -1.2696 -0.9784  2.4024
16043SOL     OW48971   5.171   1.549   2.177  0.0728 -0.1266  0.2151
16043SOL    HW148972   5.085   1.536   2.136 -0.0360 -1.6117  0.8474
16043SOL    HW248973   5.232   1.501   2.121  0.7098  1.8408 -0.8562
16044SOL     OW48974   1.108   3.804   1.494 -0.2218  0.6079  0.3573
16044SOL    HW148975   1.194   3.761   1.498 -0.2966  0.3433 -0.4628
16044SOL    HW248976   1.083   3.796   1.401 -2.5103 -2.0754  1.0543
16045SOL     OW48977   2.106   3.801   5.821  0.1596 -0.2269 -0.5261
16045SOL    HW148978   2.047   3.768   5.754 -0.4481  0.3752 -0.2975
16045SOL    HW248979   2.125   3.891   5.794  0.7633 -0.3278 -0.4580
16046SOL     OW48980   4.699   4.706   8.132 -0.0289  0.1494 -0.1463
16046SOL    HW148981   4.616   4.753   8.134 -0.1623  0.1177 -2.3346
16046SOL    HW248982   4.675   4.614   8.147 -0.4773  0.0696 -1.2689
16047SOL     OW48983   5.073   7.467   0.821 -0.7409 -0.6191 -0.4091
16047SOL    HW148984   5.043   7.390   0.773 -0.2664 -0.9673 -0.1516
16047SOL    HW248985   4.992   7.510   0.849 -1.0425 -0.2156 -1.7951
16048SOL     OW48986   2.597   6.414   6.436  0.0310  0.0618  0.3900
16048SOL    HW148987   2.568   6.382   6.351  0.4466  0.4728  0.0844
16048SOL    HW248988   2.616   6.335   6.487 -0.7399 -0.1918  0.2867
16049SOL     OW48989   4.175   6.817   4.862 -0.1493 -0.6878 -0.2727
16049SOL    HW148990   4.098   6.874   4.863  0.2427 -0.0523 -2.5138
16049SOL    HW248991   4.138   6.729   4.856 -0.7336 -0.3715 -1.6338
16050SOL     OW48992   3.676   5.526   6.393 -0.0733  0.7784  0.4017
16050SOL    HW148993   3.609   5.491   6.451 -0.2277  0.0391 -0.1925
16050SOL    HW248994   3.647   5.614   6.371  0.2607  1.2693  1.8483
16051SOL     OW48995   1.248   5.715   5.638 -0.1348  0.5130  0.4026
16051SOL    HW148996   1.261   5.736   5.731  0.3599  3.0459 -0.1612
16051SOL    HW248997   1.160   5.679   5.633 -0.3785  0.8668  1.7690
16052SOL     OW48998   4.467   2.071   4.400 -0.5996  0.2645 -0.3110
16052SOL    HW148999   4.556   2.052   4.369 -0.0713  2.4526 -0.2592
16052SOL    HW249000   4.412   2.057   4.322 -0.3772 -1.8585 -0.1500
16053SOL     OW49001   2.165   7.366   2.305 -0.1725 -0.0120  0.3341
16053SOL    HW149002   2.080   7.361   2.261  0.0457  1.5332 -0.3128
16053SOL    HW249003   2.211   7.437   2.260  0.2976  1.2292  2.6314
16054SOL     OW49004   1.259   8.217   5.717 -0.1913 -0.2958  0.2359
16054SOL    HW149005   1.230   8.126   5.721 -2.1937  0.2232 -1.1658
16054SOL    HW249006   1.186   8.268   5.752  2.1614  0.7097  4.4212
16055SOL     OW49007   1.270   7.127   3.013  0.9261 -0.3947 -0.1857
16055SOL    HW149008   1.329   7.187   2.966  1.1371 -2.0940 -2.2393
16055SOL    HW249009   1.323   7.048   3.028  0.5472 -0.2723  2.1397
16056SOL     OW49010   3.835   2.491   1.413  0.1502 -0.3911  0.0237
16056SOL    HW149011   3.756   2.519   1.459  0.8894 -0.3922  1.3323
16056SOL    HW249012   3.809   2.410   1.368 -0.5476 -0.4753  0.5689
16057SOL     OW49013   0.530   3.051   6.306 -0.3315 -0.1586 -0.4442
16057SOL    HW149014   0.555   2.959   6.308 -2.4127 -0.7920 -0.9172
16057SOL    HW249015   0.503   3.071   6.396 -1.3453 -0.4803 -0.6650
16058SOL     OW49016   6.612   5.098   2.642  0.2554 -0.1564  0.4666
16058SOL    HW149017   6.703   5.118   2.622  0.3258 -0.4041  0.5285
16058SOL    HW249018   6.584   5.168   2.702  1.4085 -1.8188  3.1433
16059SOL     OW49019   3.624   5.125   4.403  0.3746  0.3598  0.4813
16059SOL    HW149020   3.640   5.135   4.309  0.7980  2.0086  0.6904
16059SOL    HW249021   3.541   5.078   4.409 -0.1818  1.1492 -0.7364
16060SOL     OW49022   5.111   0.450   1.296  0.4762  0.1987 -0.2970
16060SOL    HW149023   5.085   0.429   1.206 -1.5811 -2.3916  0.7468
16060SOL    HW249024   5.207   0.454   1.293  0.4826 -0.1989 -2.5308
16061SOL     OW49025   2.590   6.296   4.544 -0.6979  0.5877 -0.0666
16061SOL    HW149026   2.608   6.285   4.450 -0.7890  2.5121 -0.3368
16061SOL    HW249027   2.626   6.381   4.566 -0.2980 -0.0166  1.7749
16062SOL     OW49028   1.794   6.758   3.343  0.0510 -0.0604 -0.0425
16062SOL    HW149029   1.764   6.842   3.378  2.7403  0.8704  0.1964
16062SOL    HW249030   1.735   6.741   3.269 -0.0912  2.4468 -0.6023
16063SOL     OW49031   0.108   2.001   3.533  1.0388  0.1952  0.3844
16063SOL    HW149032   0.174   1.942   3.568  1.1229 -1.5602 -2.4388
16063SOL    HW249033   0.127   2.006   3.440 -0.7642  2.4067  0.0325
16064SOL     OW49034   4.069   5.229   4.544  0.2063  0.8688  0.2784
16064SOL    HW149035   4.092   5.142   4.575 -1.4313  0.2313 -0.1760
16064SOL    HW249036   3.973   5.232   4.550  0.2088  2.5566  0.0582
16065SOL     OW49037   1.320   5.025   4.423  0.0823  0.1232  0.4608
16065SOL    HW149038   1.276   4.942   4.441  0.3352 -0.3314 -0.9213
16065SOL    HW249039   1.344   5.059   4.509 -1.7695 -0.2719  1.1733
16066SOL     OW49040   7.807   3.904   2.730  0.6262  0.2344 -0.0569
16066SOL    HW149041   7.891   3.944   2.709  0.5118  0.0635 -0.8994
16066SOL    HW249042   7.827   3.810   2.739  0.4195  0.0913 -0.9723
16067SOL     OW49043   1.598   4.744   1.495  0.1351 -0.5868  0.1158
16067SOL    HW149044   1.641   4.789   1.422 -3.1243  1.0225 -0.9822
16067SOL    HW249045   1.618   4.799   1.571  1.7900 -1.1121  0.1109
16068SOL     OW49046   3.198   7.608   0.281 -0.0725 -0.2388 -0.3636
16068SOL    HW149047   3.278   7.622   0.230  0.1636  0.7262  0.2518
16068SOL    HW249048   3.128   7.639   0.223  0.0275 -0.7298 -0.7545
16069SOL     OW49049   0.930   3.991   7.912 -0.2414 -0.0843  0.2030
16069SOL    HW149050   0.916   4.065   7.973 -0.1496  1.1459 -1.2155
16069SOL    HW249051   1.016   3.956   7.937 -0.5954 -0.1983  1.3572
16070SOL     OW49052   7.361   2.644   3.085  0.0833 -0.3100 -0.1902
16070SOL    HW149053   7.364   2.717   3.024  0.0699  0.1829  0.3818
16070SOL    HW249054   7.344   2.567   3.031  1.3116 -0.0713 -0.9520
16071SOL     OW49055   2.842   6.432   4.306 -0.0022  0.1773 -0.0706
16071SOL    HW149056   2.927   6.390   4.292 -0.4168 -0.5981 -0.3236
16071SOL    HW249057   2.779   6.361   4.301 -0.7517  0.8606 -0.7428
16072SOL     OW49058   6.736   3.022   1.591  0.3754 -0.6062  0.4588
16072SOL    HW149059   6.775   3.055   1.673  0.5207  1.9254 -0.5327
16072SOL    HW249060   6.650   3.064   1.588 -1.0816 -3.3694  0.8941
16073SOL     OW49061   0.367   8.034   7.743 -0.2337 -0.3487  0.1635
16073SOL    HW149062   0.403   8.091   7.811  1.7210 -0.0923 -1.0106
16073SOL    HW249063   0.440   7.977   7.718 -1.2511 -1.2375 -0.8789
16074SOL     OW49064   0.732   0.003   6.867 -0.1586 -0.0613 -0.4131
16074SOL    HW149065   0.710   0.057   6.790 -0.8711  0.2917  0.0281
16074SOL    HW249066   0.768   0.066   6.930  0.0813 -0.2914 -0.3224
16075SOL     OW49067   4.204   5.756   2.402  0.2715 -0.1651  0.6078
16075SOL    HW149068   4.268   5.712   2.459 -0.6469 -0.4160  1.4700
16075SOL    HW249069   4.167   5.826   2.457 -0.5730 -0.3644  0.3027
16076SOL     OW49070   1.747   7.804   7.861 -0.0022  0.1904  0.8391
16076SOL    HW149071   1.824   7.814   7.917  1.5667 -0.0796 -1.1189
16076SOL    HW249072   1.774   7.842   7.777 -2.6257  1.6369  0.5387
16077SOL     OW49073   3.545   0.914   4.316 -0.4708  0.0978  0.0829
16077SOL    HW149074   3.538   0.819   4.308  1.8974 -0.0076 -1.8397
16077SOL    HW249075   3.493   0.947   4.242 -0.0797  0.2346 -0.1303
16078SOL     OW49076   2.260   1.680   6.117  0.7485 -0.2898 -0.1339
16078SOL    HW149077   2.325   1.693   6.047  1.5791 -1.0010  0.4820
16078SOL    HW249078   2.309   1.636   6.187  0.0673  0.8615  1.1090
16079SOL     OW49079   4.581   4.339   1.651  0.0919  0.2554  0.5196
16079SOL    HW149080   4.543   4.427   1.660  1.0264  0.5495  1.7950
16079SOL    HW249081   4.609   4.316   1.739  2.3994 -0.1785 -0.2784
16080SOL     OW49082   4.256   4.197   3.774 -0.3858  0.2216  0.6546
16080SOL    HW149083   4.347   4.176   3.791  0.4763  0.8021 -2.6184
16080SOL    HW249084   4.210   4.113   3.780  0.4121 -0.1377  1.9135
16081SOL     OW49085   5.768   1.650   6.660  0.2051  1.0389  0.2088
16081SOL    HW149086   5.724   1.717   6.607 -1.4669  0.7079  1.1520
16081SOL    HW249087   5.749   1.674   6.750  0.7265  0.0371  0.5991
16082SOL     OW49088   4.225   7.634   6.161 -0.1522 -0.1380  0.0787
16082SOL    HW149089   4.204   7.577   6.234  2.7101  1.6660  2.5402
16082SOL    HW249090   4.145   7.683   6.145 -1.1687 -1.3557  1.2302
16083SOL     OW49091   2.593   8.050   5.169  0.3885  0.3818  0.2277
16083SOL    HW149092   2.501   8.066   5.147  0.3066 -0.3123  0.0577
16083SOL    HW249093   2.606   7.957   5.153  1.3863  0.6562 -0.7194
16084SOL     OW49094   7.308   5.288   8.154 -0.0968  0.2457 -0.3205
16084SOL    HW149095   7.340   5.378   8.167  0.1935  0.0788  0.1708
16084SOL    HW249096   7.367   5.251   8.088 -2.4977  1.5753 -3.4475
16085SOL     OW49097   5.041   2.597   5.629 -0.4757  0.3748  0.2911
16085SOL    HW149098   5.084   2.646   5.700  0.6324  1.7261 -1.2436
16085SOL    HW249099   4.967   2.652   5.604  0.5102  1.1267 -1.1363
16086SOL     OW49100   4.835   3.028   7.961  0.0687 -0.1207  0.3486
16086SOL    HW149101   4.849   3.121   7.943  0.3774 -0.1681  0.3346
16086SOL    HW249102   4.808   3.025   8.053  0.4103 -0.0490  0.4508
16087SOL     OW49103   7.710   6.825   7.079  0.0599  0.1539 -0.0503
16087SOL    HW149104   7.624   6.859   7.104 -0.2712 -0.0791 -0.8387
16087SOL    HW249105   7.767   6.902   7.080 -0.3079  0.4299 -0.1511
16088SOL     OW49106   1.740   1.401   5.751 -0.3802  0.3066 -0.1790
16088SOL    HW149107   1.740   1.395   5.847 -1.0578  0.0312 -0.1938
16088SOL    HW249108   1.727   1.311   5.721  0.1296  0.3470 -0.5379
16089SOL     OW49109   4.268   5.682   3.911  0.6962 -0.4391 -0.1610
16089SOL    HW149110   4.222   5.705   3.830  1.4323 -2.7305 -1.3360
16089SOL    HW249111   4.201   5.682   3.979 -0.7212 -2.0195 -1.4918
16090SOL     OW49112   1.203   0.733   4.671  0.2436 -0.0950  0.2696
16090SOL    HW149113   1.109   0.712   4.669 -0.0114  0.8613  1.2090
16090SOL    HW249114   1.240   0.672   4.735  0.2996 -0.5785 -0.2167
16091SOL     OW49115   6.870   7.660   7.845 -0.7596 -0.3663 -0.2204
16091SOL    HW149116   6.890   7.690   7.933 -0.5400  1.4193 -0.8305
16091SOL    HW249117   6.776   7.644   7.845 -1.4557  3.0148 -0.5091
16092SOL     OW49118   5.718   1.205   2.292  0.0939 -0.1030 -0.1829
16092SOL    HW149119   5.704   1.124   2.341 -0.7029 -0.3259 -0.7603
16092SOL    HW249120   5.809   1.202   2.266  0.3826 -0.2470  0.7988
16093SOL     OW49121   5.897   2.630   2.582 -0.4967 -0.3122  0.2238
16093SOL    HW149122   5.967   2.569   2.605  1.2594  1.7793  0.7840
16093SOL    HW249123   5.828   2.575   2.545  0.0705 -2.8766  2.6166
16094SOL     OW49124   3.015   2.092   1.596 -0.3216 -0.4565  0.2528
16094SOL    HW149125   3.022   2.134   1.510  0.1727 -0.0669  0.4762
16094SOL    HW249126   2.928   2.053   1.597 -0.7645  0.5119  0.0186
16095SOL     OW49127   5.727   4.881   1.092  0.5282  0.1446 -0.2090
16095SOL    HW149128   5.696   4.912   1.177  1.0904 -1.6444  0.6864
16095SOL    HW249129   5.653   4.832   1.056  1.4722 -2.3366  0.9998
16096SOL     OW49130   2.977   1.869   4.630  0.3898 -0.7504 -0.2680
16096SOL    HW149131   3.052   1.911   4.587  0.8533  0.3719  1.5239
16096SOL    HW249132   2.901   1.920   4.602  0.5204 -0.7528 -0.6369
16097SOL     OW49133   5.756   4.147   5.189 -0.6639 -0.5701  0.1589
16097SOL    HW149134   5.689   4.167   5.254  0.7127 -0.9891  1.7764
16097SOL    HW249135   5.734   4.058   5.160 -1.1739 -0.4647  0.2122
16098SOL     OW49136   5.568   1.851   2.925 -0.0021 -0.3844  0.1700
16098SOL    HW149137   5.622   1.802   2.863 -1.7387 -0.4373 -1.3819
16098SOL    HW249138   5.561   1.938   2.887 -2.3631 -0.8366 -0.6189
16099SOL     OW49139   4.047   1.696   1.096 -0.2193 -0.3722  0.8089
16099SOL    HW149140   3.955   1.696   1.071 -0.9493 -0.3755  3.2453
16099SOL    HW249141   4.055   1.624   1.158  1.4021 -0.2519  0.7796
16100SOL     OW49142   3.705   2.725   8.154  1.1072  0.3442  0.3317
16100SOL    HW149143   3.722   2.774   8.235  0.4361  1.5460 -0.2221
16100SOL    HW249144   3.652   2.651   8.181  1.9124  0.0548  1.1602
16101SOL     OW49145   5.247   3.700   7.060 -0.1401 -0.2590  0.1645
16101SOL    HW149146   5.186   3.629   7.081 -0.7959  0.3111  0.2317
16101SOL    HW249147   5.232   3.718   6.967  0.3876 -0.5465  0.0210
16102SOL     OW49148   1.234   4.427   2.695  0.0218  0.3565 -0.3065
16102SOL    HW149149   1.283   4.345   2.696 -0.2803  0.0692 -2.7749
16102SOL    HW249150   1.298   4.493   2.670 -0.6128  0.0672 -2.9776
16103SOL     OW49151   5.719   5.023   0.799  0.2375  0.0154  0.2572
16103SOL    HW149152   5.787   4.962   0.828 -1.4463 -1.9895  0.2562
16103SOL    HW249153   5.708   5.005   0.706 -0.3991  0.1703  0.2937
16104SOL     OW49154   3.420   1.009   7.445 -0.0698 -0.3172 -0.8110
16104SOL    HW149155   3.371   1.016   7.527 -0.7080 -0.0149 -1.2088
16104SOL    HW249156   3.452   1.098   7.430  0.6827 -0.5321 -0.5097
16105SOL     OW49157   8.110   5.872   4.314 -0.0979  0.2904 -0.1641
16105SOL    HW149158   8.136   5.901   4.402 -1.8252  1.9967 -0.1480
16105SOL    HW249159   8.081   5.952   4.270  2.4825 -0.1886 -3.0064
16106SOL     OW49160   0.548   2.294   3.912  0.2814 -0.5279  0.6270
16106SOL    HW149161   0.461   2.260   3.893 -0.3248  0.3806  1.6789
16106SOL    HW249162   0.585   2.230   3.973  0.2898 -0.8145  0.3276
16107SOL     OW49163   2.641   1.284   3.455 -0.5104  0.8213 -0.4531
16107SOL    HW149164   2.594   1.367   3.455 -2.0018  0.0253  0.7053
16107SOL    HW249165   2.574   1.219   3.477  0.9661 -0.4633  0.4171
16108SOL     OW49166   3.611   8.159   8.181 -0.4587 -0.2903 -0.2533
16108SOL    HW149167   3.570   8.137   8.265 -1.3838 -0.6099 -0.7625
16108SOL    HW249168   3.547   8.130   8.115 -1.0879  2.5645 -1.0380
16109SOL     OW49169   1.240   7.595   3.768 -0.4695  0.5591 -0.1320
16109SOL    HW149170   1.221   7.654   3.841  1.3840 -0.7993  1.5897
16109SOL    HW249171   1.222   7.508   3.803 -0.9221 -0.0591 -1.8223
16110SOL     OW49172   8.076   6.439   0.772 -0.0149  0.3159  0.1124
16110SOL    HW149173   8.081   6.345   0.754  1.2766  0.1322  1.2450
16110SOL    HW249174   8.005   6.471   0.717  1.7564 -0.6578 -2.9572
16111SOL     OW49175   2.304   7.741   5.042 -0.1406 -0.4747  0.1326
16111SOL    HW149176   2.355   7.820   5.031  2.7372 -2.0952  0.8446
16111SOL    HW249177   2.290   7.733   5.137 -0.3853 -0.8375  0.0723
16112SOL     OW49178   8.203   7.958   4.488  0.0407  0.2969  0.0959
16112SOL    HW149179   8.174   8.037   4.443  1.1908  1.1680  0.8455
16112SOL    HW249180   8.297   7.967   4.497 -0.0623 -0.0655  2.1932
16113SOL     OW49181   4.625   2.394   2.478  0.3381 -0.1092  0.3089
16113SOL    HW149182   4.627   2.458   2.408 -1.6109 -0.4077 -0.0773
16113SOL    HW249183   4.555   2.333   2.454  0.7377 -1.1927  1.6866
16114SOL     OW49184   1.423   0.589   8.110 -0.7670 -0.4416 -0.1628
16114SOL    HW149185   1.406   0.639   8.190  0.0493  1.2036 -0.9725
16114SOL    HW249186   1.483   0.520   8.138  0.0012  0.4828  0.5695
16115SOL     OW49187   1.340   4.392   2.205 -0.0245 -0.1678  0.1526
16115SOL    HW149188   1.417   4.409   2.151 -0.9129  1.6475 -0.6373
16115SOL    HW249189   1.276   4.356   2.144 -0.5269  0.4593  0.2932
16116SOL     OW49190   6.523   3.191   6.715 -0.4366 -0.1643 -0.4656
16116SOL    HW149191   6.450   3.178   6.653  0.8733 -1.4292 -1.8376
16116SOL    HW249192   6.532   3.106   6.758 -0.2453  0.2228  0.2791
16117SOL     OW49193   4.886   0.404   2.008  0.2671  0.2869 -0.6919
16117SOL    HW149194   4.914   0.352   1.933 -0.5461 -2.5272  0.7992
16117SOL    HW249195   4.957   0.396   2.071 -0.1825  0.3983 -0.1591
16118SOL     OW49196   2.327   6.598   0.574 -0.4292 -0.1961 -1.3062
16118SOL    HW149197   2.396   6.663   0.562  0.3152 -0.7099 -0.0216
16118SOL    HW249198   2.370   6.514   0.561 -0.4980 -0.5827  0.5781
16119SOL     OW49199   3.600   1.234   6.414  0.3215  0.4356  0.3529
16119SOL    HW149200   3.583   1.195   6.499 -0.3735 -0.5008 -0.1966
16119SOL    HW249201   3.514   1.237   6.371  0.8256 -0.2118 -0.7595
16120SOL     OW49202   0.310   2.034   7.537  0.0577 -0.4585  0.1332
16120SOL    HW149203   0.227   2.020   7.583 -0.3010  0.1234 -0.3247
16120SOL    HW249204   0.299   1.989   7.453  0.6049 -1.2726  0.4849
16121SOL     OW49205   3.870   3.739   4.055  0.4132 -0.3907  0.1240
16121SOL    HW149206   3.953   3.693   4.070 -0.0992 -1.8894 -1.3268
16121SOL    HW249207   3.894   3.812   3.998  0.6109 -1.3972 -1.1141
16122SOL     OW49208   5.345   2.516   4.267  0.4380  0.6348 -0.3071
16122SOL    HW149209   5.328   2.610   4.267  0.6254  0.6745  0.4646
16122SOL    HW249210   5.260   2.475   4.280  0.2261  0.6564 -1.4839
16123SOL     OW49211   7.903   0.250   6.700 -0.5303  0.0607 -0.0507
16123SOL    HW149212   7.951   0.177   6.740 -1.3700 -0.8461 -0.6246
16123SOL    HW249213   7.962   0.284   6.633  0.3381  0.6928  1.0035
16124SOL     OW49214   5.028   3.678   4.545 -0.3952  0.0952 -0.3814
16124SOL    HW149215   5.006   3.588   4.523  1.2014 -0.4635  0.2416
16124SOL    HW249216   4.944   3.718   4.569 -1.3239 -0.8222 -1.9321
16125SOL     OW49217   8.045   1.871   0.421  0.0069 -0.1319 -0.2606
16125SOL    HW149218   7.965   1.897   0.376  0.5733  1.6903 -0.3041
16125SOL    HW249219   8.107   1.942   0.404  1.4627 -1.2205  0.2379
16126SOL     OW49220   2.517   3.175   2.827  0.3875 -0.3061  0.3602
16126SOL    HW149221   2.600   3.127   2.820 -0.2255 -1.1248 -2.0281
16126SOL    HW249222   2.520   3.237   2.755 -0.3332  0.9289  1.3620
16127SOL     OW49223   2.815   8.218   7.908  0.0957 -0.2497  0.7264
16127SOL    HW149224   2.754   8.165   7.959 -0.1233  0.5630  1.3330
16127SOL    HW249225   2.855   8.157   7.847 -2.3930 -0.5883 -0.7095
16128SOL     OW49226   1.595   4.505   7.603 -0.0584 -0.0728  0.1683
16128SOL    HW149227   1.544   4.562   7.545  0.2066  0.8562  0.8098
16128SOL    HW249228   1.532   4.472   7.666  0.0664  0.8593  0.7979
16129SOL     OW49229   1.723   1.513   1.260  0.3592  0.5908 -0.6142
16129SOL    HW149230   1.747   1.605   1.252  0.5245  0.4264 -2.5459
16129SOL    HW249231   1.642   1.514   1.311  2.0698  1.4797  2.3541
16130SOL     OW49232   3.021   5.374   7.477  0.1530 -0.2537  0.2032
16130SOL    HW149233   3.014   5.425   7.396 -0.1376 -1.3182 -0.4664
16130SOL    HW249234   3.115   5.369   7.495  0.4262 -2.1645 -1.5097
16131SOL     OW49235   6.028   5.808   0.459  0.1027  0.5693  0.4537
16131SOL    HW149236   6.087   5.856   0.518  2.1472 -1.1766 -0.0418
16131SOL    HW249237   5.967   5.764   0.518  0.2012  1.2445  1.0820
16132SOL     OW49238   7.107   7.147   4.339  0.6402  0.0049  0.6516
16132SOL    HW149239   7.085   7.218   4.278  2.1453  0.2598  0.3759
16132SOL    HW249240   7.073   7.068   4.296 -1.0133  0.5204  0.9417
16133SOL     OW49241   0.079   2.892   3.691 -0.6596 -0.5979  0.0358
16133SOL    HW149242   0.007   2.932   3.642 -0.1127  0.7412  0.2983
16133SOL    HW249243   0.109   2.820   3.635 -1.4929 -0.5012 -0.5547
16134SOL     OW49244   6.001   2.400   6.659  0.0176 -0.5588 -0.1742
16134SOL    HW149245   6.058   2.468   6.626  0.7860 -1.5063 -0.8514
16134SOL    HW249246   5.945   2.444   6.723  1.1607  0.4927  0.1330
16135SOL     OW49247   7.333   2.036   7.192 -0.4024 -0.4684 -0.2936
16135SOL    HW149248   7.322   2.028   7.287 -1.9251 -1.2636 -0.4976
16135SOL    HW249249   7.325   2.130   7.175  0.4354 -0.2557  0.4093
16136SOL     OW49250   7.703   6.356   6.400  0.4426 -0.2308  0.2497
16136SOL    HW149251   7.710   6.444   6.437  0.4419 -0.2901  0.3936
16136SOL    HW249252   7.610   6.338   6.396  0.4407 -0.2013  0.1658
16137SOL     OW49253   6.234   8.209   6.301  0.0284 -0.0901 -0.1048
16137SOL    HW149254   6.175   8.269   6.346  1.5391  1.9463 -0.7246
16137SOL    HW249255   6.196   8.199   6.214 -0.0366  0.2489 -0.1155
16138SOL     OW49256   3.365   6.094   4.998 -0.2489  0.6013  0.1374
16138SOL    HW149257   3.279   6.051   4.994  0.0399  0.1075 -0.8403
16138SOL    HW249258   3.414   6.043   5.063  0.9691 -2.2557 -2.7510
16139SOL     OW49259   6.442   6.119   3.834 -0.2218 -0.6735 -0.2649
16139SOL    HW149260   6.396   6.114   3.750 -1.4876 -0.6738  0.4180
16139SOL    HW249261   6.378   6.092   3.899  1.2475 -2.3904  0.5689
16140SOL     OW49262   3.673   4.171   0.668  0.2449 -0.7699  0.3472
16140SOL    HW149263   3.723   4.202   0.744  0.6113 -2.1532  0.6970
16140SOL    HW249264   3.667   4.077   0.680 -0.9743 -0.8411 -0.5970
16141SOL     OW49265   1.259   7.594   5.579  0.3449 -0.2415  0.5106
16141SOL    HW149266   1.280   7.629   5.665 -0.5466 -1.3306  1.2004
16141SOL    HW249267   1.327   7.628   5.521  1.0906  0.3039  1.6861
16142SOL     OW49268   3.722   0.624   2.534 -0.2039  0.2508  0.0991
16142SOL    HW149269   3.811   0.592   2.544 -0.2112  0.9398  3.5448
16142SOL    HW249270   3.667   0.547   2.543 -0.0087  0.1204  0.1713
16143SOL     OW49271   1.640   6.828   3.822 -0.3648 -0.1289 -0.2380
16143SOL    HW149272   1.611   6.760   3.762 -0.9049  0.0374 -0.1768
16143SOL    HW249273   1.658   6.904   3.766 -1.4149  0.2032 -0.1498
16144SOL     OW49274   5.103   2.239   7.375 -0.4454 -0.2631  0.1971
16144SOL    HW149275   5.107   2.169   7.310  1.8722 -0.3477  0.3676
16144SOL    HW249276   5.026   2.218   7.428 -1.3610 -1.1519 -1.3950
16145SOL     OW49277   6.450   7.162   2.513 -0.3036  0.3214  0.6113
16145SOL    HW149278   6.463   7.128   2.602 -0.1555  2.0213  1.2638
16145SOL    HW249279   6.382   7.105   2.476 -0.1216 -0.6332  1.6779
16146SOL     OW49280   0.880   1.421   5.625 -0.0848  0.2854 -0.2859
16146SOL    HW149281   0.822   1.463   5.561 -0.2443 -0.9414 -0.9940
16146SOL    HW249282   0.827   1.413   5.704 -0.4101  0.4704 -0.4818
16147SOL     OW49283   4.466   0.777   4.724  0.4517  0.6181  0.2794
16147SOL    HW149284   4.538   0.817   4.772  0.8584 -0.7359  0.8407
16147SOL    HW249285   4.503   0.699   4.684 -0.5530  0.2222  0.0807
16148SOL     OW49286   4.958   4.315   2.401 -0.2903  0.1439 -0.8168
16148SOL    HW149287   4.910   4.342   2.479 -0.9332 -2.8468 -0.0566
16148SOL    HW249288   4.890   4.286   2.340  0.3599 -0.5694 -1.2172
16149SOL     OW49289   7.190   8.126   7.750 -0.4213  0.1760 -0.4733
16149SOL    HW149290   7.258   8.175   7.703 -2.2154  0.6142 -2.7711
16149SOL    HW249291   7.212   8.035   7.735  0.9619  0.2586  0.8452
16150SOL     OW49292   7.876   8.203   3.199  0.2814  0.1284  0.3986
16150SOL    HW149293   7.958   8.224   3.155 -0.5654  0.4598 -1.1100
16150SOL    HW249294   7.873   8.107   3.200  0.4564  0.1124 -0.0410
16151SOL     OW49295   5.121   0.184   5.253  0.8582 -0.2168  0.1256
16151SOL    HW149296   5.152   0.113   5.310 -0.3464 -0.5251  0.4263
16151SOL    HW249297   5.101   0.141   5.170  1.2360 -0.0152 -0.0731
16152SOL     OW49298   2.717   6.404   3.922  0.3240  0.2964  0.1843
16152SOL    HW149299   2.766   6.484   3.940 -0.2846  1.0165 -1.1867
16152SOL    HW249300   2.773   6.333   3.953  1.1263  1.2224  0.8929
16153SOL     OW49301   6.859   3.594   4.784  0.5276 -0.1422 -0.2350
16153SOL    HW149302   6.797   3.523   4.800  1.5737 -1.3332 -1.2514
16153SOL    HW249303   6.944   3.558   4.811  1.3268  0.1144 -2.2772
16154SOL     OW49304   0.559   1.642   1.984 -0.3426 -0.2346  0.7632
16154SOL    HW149305   0.490   1.576   1.989  0.0655 -0.6249  1.3674
16154SOL    HW249306   0.627   1.602   1.930 -1.4606  0.9823 -1.7044
16155SOL     OW49307   2.465   0.625   5.433  0.0502 -0.3760 -0.5770
16155SOL    HW149308   2.468   0.631   5.338  0.8476  1.2159 -0.4915
16155SOL    HW249309   2.374   0.644   5.456  0.1418  0.6248 -0.9772
16156SOL     OW49310   2.790   7.868   5.358 -0.1411  0.1054  0.0140
16156SOL    HW149311   2.723   7.806   5.327  0.7913 -0.7482 -0.3371
16156SOL    HW249312   2.796   7.852   5.452 -0.8797  0.6512  0.1706
16157SOL     OW49313   6.713   6.876   3.570  0.4385  0.5775 -0.4059
16157SOL    HW149314   6.796   6.836   3.595  0.7400  0.4515 -1.5803
16157SOL    HW249315   6.674   6.814   3.508 -0.6770  0.4870  0.3463
16158SOL     OW49316   7.140   0.196   5.631  0.2294  0.0037  0.3294
16158SOL    HW149317   7.136   0.101   5.620  2.4864 -0.1790  0.4455
16158SOL    HW249318   7.154   0.209   5.724 -0.1642  0.4560  0.3264
16159SOL     OW49319   6.822   5.188   0.501  0.1543 -0.2256 -0.6133
16159SOL    HW149320   6.754   5.231   0.449 -0.7195 -0.8901 -0.0545
16159SOL    HW249321   6.774   5.123   0.554  1.2017 -0.5782 -0.0721
16160SOL     OW49322   7.774   1.816   0.352  0.1298 -0.3462 -0.6312
16160SOL    HW149323   7.681   1.796   0.339 -0.3301  0.5208  0.9567
16160SOL    HW249324   7.784   1.819   0.447  1.8376 -0.5655 -0.7769
16161SOL     OW49325   6.339   6.206   0.709  0.4250 -0.0163 -0.3323
16161SOL    HW149326   6.421   6.166   0.680  0.3884  1.6537 -3.0417
16161SOL    HW249327   6.345   6.206   0.805  3.6361  0.1343 -0.4283
16162SOL     OW49328   2.868   2.580   7.552  0.1903 -0.2469 -0.8551
16162SOL    HW149329   2.903   2.508   7.500 -0.5235 -0.7622 -0.6458
16162SOL    HW249330   2.936   2.647   7.550  1.1361 -1.1688 -0.5529
16163SOL     OW49331   6.890   7.096   4.575  0.1135 -1.1443 -0.3578
16163SOL    HW149332   6.932   7.176   4.545  0.3503 -1.3970 -0.7140
16163SOL    HW249333   6.800   7.121   4.594  0.2617 -0.7314 -0.1783
16164SOL     OW49334   0.488   3.576   0.673 -0.4250 -0.3607  0.4174
16164SOL    HW149335   0.537   3.651   0.707  0.3627 -0.4828 -0.3893
16164SOL    HW249336   0.538   3.549   0.596 -0.9683 -1.4164  0.4241
16165SOL     OW49337   3.593   6.130   3.354  0.6607 -0.3355 -0.6233
16165SOL    HW149338   3.573   6.110   3.262 -0.1795 -0.2352 -0.4709
16165SOL    HW249339   3.658   6.201   3.350 -0.4828  0.7189 -1.1513
16166SOL     OW49340   4.473   7.276   1.502  0.6251 -0.2381 -0.1543
16166SOL    HW149341   4.534   7.252   1.432  0.3168  2.8661 -1.6588
16166SOL    HW249342   4.508   7.358   1.537  0.1089 -1.0771  2.6254
16167SOL     OW49343   6.995   2.191   2.481 -0.4142 -0.3669  0.0039
16167SOL    HW149344   7.074   2.137   2.472 -0.2239  0.0853 -1.2896
16167SOL    HW249345   6.951   2.181   2.396 -1.1387  0.3241  0.2994
16168SOL     OW49346   7.116   7.073   6.860 -0.3389 -0.4408 -0.0925
16168SOL    HW149347   7.192   7.078   6.919 -1.6743 -0.3031  1.6911
16168SOL    HW249348   7.129   7.144   6.798 -0.0985  1.0450  1.5753
16169SOL     OW49349   1.226   6.872   2.451 -0.5473  0.3339 -0.5397
16169SOL    HW149350   1.287   6.891   2.380  1.6118 -0.5591  0.9739
16169SOL    HW249351   1.195   6.784   2.432  0.4595 -0.1235 -0.1013
16170SOL     OW49352   7.593   3.144   4.909  0.6702  0.0941 -0.0422
16170SOL    HW149353   7.581   3.122   4.816  0.1073 -2.2766  0.5313
16170SOL    HW249354   7.687   3.155   4.919  1.0746 -2.5703 -0.3616
16171SOL     OW49355   2.152   4.931   3.264 -0.3807  0.7701 -1.0141
16171SOL    HW149356   2.173   4.857   3.208  1.9972  0.6136 -0.0428
16171SOL    HW249357   2.063   4.956   3.239 -0.5049 -1.1426 -2.7295
16172SOL     OW49358   6.127   3.066   2.413 -0.5320  0.4427 -0.2614
16172SOL    HW149359   6.130   2.972   2.396 -0.0932  0.5423 -0.7527
16172SOL    HW249360   6.040   3.092   2.381 -0.0916  0.4532 -1.5155
16173SOL     OW49361   0.382   4.024   7.296  0.4841 -0.1713 -0.2260
16173SOL    HW149362   0.310   3.961   7.293  1.1382 -0.8988 -1.8580
16173SOL    HW249363   0.401   4.043   7.204  1.6411  0.8667  0.2069
16174SOL     OW49364   3.241   1.960   1.704 -0.3083 -0.1857 -0.0320
16174SOL    HW149365   3.229   1.958   1.799  1.5477  1.1302  0.2772
16174SOL    HW249366   3.171   2.016   1.672 -0.4333  0.0671  0.6656
16175SOL     OW49367   0.524   7.703   6.034 -0.2259 -0.1861  0.1010
16175SOL    HW149368   0.497   7.698   5.942  2.4419  1.3000 -0.8591
16175SOL    HW249369   0.618   7.684   6.033 -0.2745 -0.9148  2.6574
16176SOL     OW49370   5.360   5.874   2.479  0.4665 -0.6317  0.0164
16176SOL    HW149371   5.436   5.819   2.461  0.8767 -0.7630  1.9224
16176SOL    HW249372   5.372   5.903   2.569 -0.5398  1.3334 -0.4183
16177SOL     OW49373   3.317   4.472   6.395  0.1393  0.0578  0.0164
16177SOL    HW149374   3.358   4.557   6.411  2.7883 -1.0534 -0.3525
16177SOL    HW249375   3.270   4.484   6.312  2.9017  0.4741 -1.6153
16178SOL     OW49376   7.726   2.266   2.399  0.2421  0.3551  0.0312
16178SOL    HW149377   7.697   2.332   2.336 -1.5138  0.9959  1.4326
16178SOL    HW249378   7.668   2.277   2.474  0.5118 -2.1741  0.7044
16179SOL     OW49379   4.359   6.703   8.132  0.4692  0.1788 -0.1518
16179SOL    HW149380   4.297   6.647   8.086  0.7016 -0.1145 -0.1149
16179SOL    HW249381   4.377   6.775   8.071 -0.7286  0.8575  0.2574
16180SOL     OW49382   2.356   4.829   6.506 -0.1638  0.3704 -0.1672
16180SOL    HW149383   2.393   4.825   6.594  1.2236  0.0027 -0.7516
16180SOL    HW249384   2.261   4.822   6.520  0.0963 -0.7259  1.2291
16181SOL     OW49385   5.418   6.241   5.204  0.2681  0.1654  0.0274
16181SOL    HW149386   5.373   6.158   5.223 -0.5757  0.3181 -1.2239
16181SOL    HW249387   5.494   6.216   5.151  0.0345  0.1811 -0.3177
16182SOL     OW49388   3.968   3.413   1.235  0.4734  0.1005 -0.4348
16182SOL    HW149389   4.027   3.487   1.223  0.9275 -0.3642 -1.1180
16182SOL    HW249390   3.920   3.433   1.316 -0.4331  1.8414 -1.3413
16183SOL     OW49391   7.581   7.170   5.519 -0.0718 -0.3761  0.0094
16183SOL    HW149392   7.604   7.080   5.497  0.7281 -0.1590 -0.0591
16183SOL    HW249393   7.505   7.162   5.578  0.4060 -1.1170  0.5363
16184SOL     OW49394   3.630   6.554   1.172 -0.6882  0.0526  0.2551
16184SOL    HW149395   3.703   6.494   1.189  0.5326  1.1276 -0.9353
16184SOL    HW249396   3.669   6.641   1.176 -2.2043  0.7362  0.9055
16185SOL     OW49397   4.859   3.446   5.760  0.5603  0.1762  0.1797
16185SOL    HW149398   4.800   3.390   5.810  0.4339 -0.0273 -0.1954
16185SOL    HW249399   4.910   3.386   5.706  0.0661  0.4506 -0.6079
16186SOL     OW49400   3.641   5.037   3.861  0.0354  0.5578  0.0264
16186SOL    HW149401   3.662   5.000   3.947  1.2385  1.1369  0.0056
16186SOL    HW249402   3.568   4.984   3.829 -0.6254  0.5172  1.5195
16187SOL     OW49403   7.007   2.081   7.708  0.2456 -0.2789  0.3755
16187SOL    HW149404   7.043   2.142   7.772  1.2791 -1.1401  0.6435
16187SOL    HW249405   6.979   2.136   7.635  3.5128  0.4115 -0.5378
16188SOL     OW49406   3.120   7.262   1.195 -0.5363  0.9062 -0.0331
16188SOL    HW149407   3.075   7.346   1.196 -0.8499  0.7401 -0.2364
16188SOL    HW249408   3.182   7.267   1.268  0.1235  1.6830 -0.6325
16189SOL     OW49409   4.509   7.018   0.057 -0.2944 -0.7840 -0.0649
16189SOL    HW149410   4.572   7.015  -0.015 -1.1855 -1.9311 -0.8441
16189SOL    HW249411   4.559   6.995   0.135  0.3920 -0.9789 -0.5553
16190SOL     OW49412   2.748   1.116   2.637 -0.1737  0.2092 -0.0067
16190SOL    HW149413   2.746   1.075   2.550  0.4415  0.5503 -0.1930
16190SOL    HW249414   2.731   1.209   2.619 -1.3356  0.0783  0.3825
16191SOL     OW49415   0.325   0.649   0.119 -0.0642  0.4910  0.2683
16191SOL    HW149416   0.380   0.588   0.071  1.1173  0.1757  1.9462
16191SOL    HW249417   0.249   0.596   0.145 -0.5556  0.5809 -0.8997
16192SOL     OW49418   6.765   5.256   6.303 -0.1743  0.0748 -0.7832
16192SOL    HW149419   6.711   5.225   6.375  0.3732  2.4152  0.7580
16192SOL    HW249420   6.719   5.333   6.269  0.0973 -0.3900 -2.2887
16193SOL     OW49421   1.282   2.171   6.770  0.3182 -0.3949 -0.0924
16193SOL    HW149422   1.244   2.208   6.850  1.3162 -0.2939  0.3436
16193SOL    HW249423   1.333   2.243   6.733 -2.7571  0.6894 -2.6596
16194SOL     OW49424   7.814   3.600   5.087  0.0157  0.0148  0.3183
16194SOL    HW149425   7.830   3.584   5.180  1.3718  0.1699  0.1354
16194SOL    HW249426   7.818   3.695   5.079 -0.6750  0.0366  0.1875
16195SOL     OW49427   7.335   3.724   5.733 -0.8322  1.0496  0.1857
16195SOL    HW149428   7.242   3.705   5.742 -0.6007  0.4037  1.6030
16195SOL    HW249429   7.349   3.737   5.640 -1.6665 -2.4326 -0.5413
16196SOL     OW49430   0.930   2.887   0.520 -0.2624  0.0421 -0.0512
16196SOL    HW149431   0.845   2.895   0.476 -0.0717 -0.0432 -0.4379
16196SOL    HW249432   0.916   2.820   0.587 -1.0322  1.3649  1.1816
16197SOL     OW49433   5.796   4.532   5.178  0.4282 -0.5216  0.3353
16197SOL    HW149434   5.799   4.577   5.094 -1.0297 -1.4060 -0.2339
16197SOL    HW249435   5.860   4.461   5.169  1.4013  0.3042  0.5687
16198SOL     OW49436   0.785   2.267   7.828  0.0320 -0.1421 -0.0441
16198SOL    HW149437   0.713   2.283   7.890 -0.1613 -0.1055 -0.2753
16198SOL    HW249438   0.743   2.221   7.754  0.5252 -1.4883  0.4803
16199SOL     OW49439   4.149   6.521   3.623 -0.5271 -0.3034 -0.5825
16199SOL    HW149440   4.109   6.591   3.675 -0.4122 -1.2853  0.9069
16199SOL    HW249441   4.082   6.452   3.621  1.1390 -2.2520  2.5168
16200SOL     OW49442   8.137   4.629   4.725  0.7034 -0.1323 -0.5866
16200SOL    HW149443   8.202   4.577   4.773  0.4663  0.2781  0.2083
16200SOL    HW249444   8.055   4.583   4.738  0.2653  1.0044  1.1299
16201SOL     OW49445   6.936   4.494   6.530  0.5507 -0.1007  0.1483
16201SOL    HW149446   6.995   4.419   6.527 -1.3903 -1.6774 -0.7054
16201SOL    HW249447   6.873   4.474   6.599  0.0963  0.8216  0.0283
16202SOL     OW49448   5.287   6.941   5.492 -0.2280 -0.4446 -0.6779
16202SOL    HW149449   5.272   6.916   5.583  0.3469  0.2174 -0.3950
16202SOL    HW249450   5.336   6.868   5.455 -1.5472 -1.3067 -0.8268
16203SOL     OW49451   0.945   5.558   0.146  0.1387  0.0427  0.7542
16203SOL    HW149452   1.003   5.487   0.175 -1.0446 -0.6416  1.5470
16203SOL    HW249453   0.903   5.589   0.227 -0.8688  0.2546  0.1688
16204SOL     OW49454   1.912   2.038   0.893  0.2222  0.4038 -0.3651
16204SOL    HW149455   1.964   2.032   0.813 -0.0772 -0.4621 -0.5136
16204SOL    HW249456   1.827   2.070   0.864  0.9780  3.0427  0.0455
16205SOL     OW49457   3.578   4.021   7.819  0.2918 -0.2090  0.3858
16205SOL    HW149458   3.635   3.944   7.814  1.6652  0.7842  0.0806
16205SOL    HW249459   3.548   4.035   7.729 -1.5778 -1.5007  0.7448
16206SOL     OW49460   3.909   7.193   1.568  0.5044  0.2589 -0.4563
16206SOL    HW149461   3.903   7.108   1.525  2.6074  0.1825 -0.7010
16206SOL    HW249462   3.949   7.251   1.503 -0.2345  1.2726 -0.0510
16207SOL     OW49463   0.407   0.808   8.096 -0.1284 -0.1221 -0.1307
16207SOL    HW149464   0.392   0.716   8.120  0.5203 -1.1961 -3.2953
16207SOL    HW249465   0.323   0.851   8.110 -0.5157 -1.2322  1.1707
16208SOL     OW49466   7.799   4.335   1.036 -0.5425 -0.7345  0.4751
16208SOL    HW149467   7.713   4.299   1.017 -1.3887  0.5776  1.6562
16208SOL    HW249468   7.806   4.413   0.981 -0.7647  0.0112  1.4692
16209SOL     OW49469   6.445   3.682   8.021  0.3099 -0.4583 -0.0482
16209SOL    HW149470   6.447   3.770   7.982 -0.4549 -0.4244 -0.0122
16209SOL    HW249471   6.477   3.696   8.110  1.2779 -0.4065 -0.3874
16210SOL     OW49472   7.523   2.220   4.773  0.1552 -0.2301 -0.3839
16210SOL    HW149473   7.588   2.289   4.766  0.5085 -0.5952 -0.7182
16210SOL    HW249474   7.448   2.252   4.722  0.7695 -0.6196 -1.5434
16211SOL     OW49475   5.730   6.989   0.906  0.2021  0.5187 -0.5632
16211SOL    HW149476   5.655   6.961   0.853 -1.0414  0.3727  1.1845
16211SOL    HW249477   5.759   6.909   0.950  1.0475  0.6881 -0.8030
16212SOL     OW49478   2.056   2.720   0.092  0.1161 -0.7996 -0.0792
16212SOL    HW149479   2.021   2.801   0.130 -1.4155 -0.6020 -1.7640
16212SOL    HW249480   2.145   2.742   0.068 -0.3639  0.5083 -0.7592
16213SOL     OW49481   3.291   0.611   3.676 -0.5465  0.0078  0.3051
16213SOL    HW149482   3.258   0.522   3.691  0.9225 -0.7129 -0.5031
16213SOL    HW249483   3.336   0.634   3.757 -1.7613  0.4397  0.8858
16214SOL     OW49484   6.254   1.161   5.818  0.0399  0.3429  0.1847
16214SOL    HW149485   6.207   1.097   5.765 -1.7179  2.1332 -0.5395
16214SOL    HW249486   6.292   1.222   5.755  0.4147  0.8644  0.8937
16215SOL     OW49487   2.400   3.241   3.292  0.8210 -0.2437 -0.2698
16215SOL    HW149488   2.375   3.202   3.209 -0.5450 -0.9877  0.4476
16215SOL    HW249489   2.345   3.320   3.298  1.9137  0.5695 -0.6762
16216SOL     OW49490   7.888   1.414   7.637  0.4033 -0.3005  0.1215
16216SOL    HW149491   7.793   1.400   7.645  0.1649  1.3766  0.4233
16216SOL    HW249492   7.897   1.500   7.596  1.8098 -0.4240  0.1223
16217SOL     OW49493   0.122   4.216   6.001 -0.1669  0.2995 -0.2584
16217SOL    HW149494   0.154   4.126   6.014 -1.4254 -0.4117 -1.7973
16217SOL    HW249495   0.129   4.230   5.907  2.0099  2.6491  0.1622
16218SOL     OW49496   5.097   0.740   5.969  0.3226  0.0596  0.1622
16218SOL    HW149497   5.045   0.752   5.890 -0.3418 -1.1747  0.3865
16218SOL    HW249498   5.033   0.738   6.040  0.8716  0.6810  0.6915
16219SOL     OW49499   2.969   1.535   3.995 -0.1445  0.2289  0.1676
16219SOL    HW149500   3.053   1.490   3.987 -0.4952 -1.0091  2.4638
16219SOL    HW249501   2.915   1.498   3.926 -0.1100 -2.3063  1.3745
16220SOL     OW49502   7.399   1.517   8.181  0.4294 -0.2078 -0.1876
16220SOL    HW149503   7.490   1.536   8.205  1.2667 -2.0871 -1.6693
16220SOL    HW249504   7.354   1.601   8.193  2.2227  0.6553  1.0428
16221SOL     OW49505   6.350   2.980   0.869  0.0252 -0.2697  0.2065
16221SOL    HW149506   6.281   3.045   0.855  0.3588  0.1262  0.3661
16221SOL    HW249507   6.309   2.912   0.922 -0.2568 -0.0633  0.2554
16222SOL     OW49508   6.018   7.796   7.543  0.0608 -0.6239  0.3626
16222SOL    HW149509   6.071   7.849   7.484 -1.0297 -0.4100 -0.4460
16222SOL    HW249510   5.928   7.818   7.521 -0.4014 -0.3225  2.2931
16223SOL     OW49511   0.272   0.365   7.998  0.4885 -0.4577 -0.3381
16223SOL    HW149512   0.299   0.285   7.952 -1.6178 -1.9696  0.8728
16223SOL    HW249513   0.240   0.423   7.929 -0.7058 -1.8673 -1.0201
16224SOL     OW49514   7.852   5.831   6.338 -0.3056  0.2872  0.4366
16224SOL    HW149515   7.778   5.794   6.291 -0.0147  2.3607 -1.8570
16224SOL    HW249516   7.928   5.786   6.303 -0.1864  0.9993 -0.2478
16225SOL     OW49517   6.158   6.280   4.074 -0.3802  0.0762  0.3095
16225SOL    HW149518   6.232   6.235   4.116  0.4909  0.4787 -0.7247
16225SOL    HW249519   6.165   6.370   4.105 -1.2390 -0.1515  1.2232
16226SOL     OW49520   6.090   1.955   1.459  0.2823 -0.1252 -0.5073
16226SOL    HW149521   6.166   1.957   1.517  0.5954  1.7023 -0.9347
16226SOL    HW249522   6.125   1.979   1.373 -0.7421  0.5720 -0.7415
16227SOL     OW49523   6.213   0.805   0.819 -0.1557  0.3021  0.1988
16227SOL    HW149524   6.298   0.762   0.812 -0.0437  0.4318  0.7403
16227SOL    HW249525   6.155   0.753   0.764  0.1504 -0.1020  0.2574
16228SOL     OW49526   5.074   5.622   3.064  0.5834 -0.1625 -0.7993
16228SOL    HW149527   5.104   5.638   2.975 -1.4997 -1.0460 -1.7405
16228SOL    HW249528   5.066   5.527   3.070  2.0979 -0.2359  0.8735
16229SOL     OW49529   4.552   2.127   1.412  0.4894  0.4522  0.2751
16229SOL    HW149530   4.601   2.049   1.386 -1.2780 -0.4123 -0.6728
16229SOL    HW249531   4.500   2.149   1.335  1.5595  3.1490  0.1859
16230SOL     OW49532   6.560   3.966   2.722  0.5804 -0.2481  0.0027
16230SOL    HW149533   6.603   4.029   2.664  0.7222 -0.2115  0.1483
16230SOL    HW249534   6.604   3.883   2.704 -0.9073 -0.7498 -1.6330
16231SOL     OW49535   0.899   3.936   3.792 -0.6828 -0.5095 -0.7245
16231SOL    HW149536   0.930   4.026   3.782 -2.2408  0.2488  0.9040
16231SOL    HW249537   0.976   3.888   3.824 -0.5757  0.8928  1.2899
16232SOL     OW49538   2.262   8.185   8.208 -0.1575  0.1497 -0.1053
16232SOL    HW149539   2.226   8.209   8.293 -0.8972 -0.8373 -0.1275
16232SOL    HW249540   2.220   8.246   8.147 -1.4551 -0.6523 -0.0622
16233SOL     OW49541   7.486   0.720   0.056  0.0759 -0.0465 -0.3120
16233SOL    HW149542   7.582   0.722   0.060  0.4046 -4.1053 -1.8343
16233SOL    HW249543   7.464   0.627   0.067 -3.9363  0.9973  2.6421
16234SOL     OW49544   2.072   5.258   7.443  0.2204 -0.3129  0.2215
16234SOL    HW149545   2.158   5.301   7.449  1.0098 -1.8190  0.1212
16234SOL    HW249546   2.056   5.249   7.349 -0.9238  1.5850  0.1892
16235SOL     OW49547   2.883   5.124   0.975 -0.5503  0.4083  0.5035
16235SOL    HW149548   2.964   5.163   1.009 -1.7961  2.2311  1.6030
16235SOL    HW249549   2.868   5.048   1.031 -0.5053  1.1007  1.4996
16236SOL     OW49550   7.390   7.930   7.984 -0.1073  0.0194  0.1481
16236SOL    HW149551   7.439   7.877   7.921  0.2801 -0.9927  1.2457
16236SOL    HW249552   7.435   8.014   7.985 -0.9136  0.5418 -1.8554
16237SOL     OW49553   3.044   5.847   6.192 -0.2629  0.1012 -0.2391
16237SOL    HW149554   3.062   5.896   6.272  0.5759 -0.5397 -0.0172
16237SOL    HW249555   2.983   5.901   6.143 -1.6522 -0.0075  1.3241
16238SOL     OW49556   2.182   5.665   8.214 -0.5941 -0.2598 -0.0920
16238SOL    HW149557   2.272   5.633   8.212 -0.8487 -0.9613 -1.8318
16238SOL    HW249558   2.135   5.612   8.150 -2.2808  0.0593  0.7972
16239SOL     OW49559   6.831   5.273   7.385 -0.0240  0.1884  0.0106
16239SOL    HW149560   6.825   5.191   7.433 -2.0307  0.1806 -0.1440
16239SOL    HW249561   6.781   5.335   7.438  1.8489  1.4676  0.3635
16240SOL     OW49562   5.399   7.758   6.053  0.0195  0.6703 -0.3018
16240SOL    HW149563   5.414   7.844   6.013  0.9058  1.0551  0.7904
16240SOL    HW249564   5.481   7.710   6.040  0.6767  1.1241  1.7318
16241SOL     OW49565   8.064   5.281   3.159 -0.0442 -0.3803 -0.2762
16241SOL    HW149566   8.045   5.189   3.141  0.0460  0.0770 -3.2526
16241SOL    HW249567   8.156   5.292   3.135 -0.6666  0.9262 -2.3404
16242SOL     OW49568   7.739   1.877   7.508 -0.2897 -0.5051 -0.1520
16242SOL    HW149569   7.683   1.933   7.562 -1.6604 -1.0979 -0.9049
16242SOL    HW249570   7.816   1.931   7.489 -0.7227  0.4306  0.6862
16243SOL     OW49571   4.329   3.528   6.902 -0.5414 -0.1968  0.1057
16243SOL    HW149572   4.395   3.577   6.855  0.5230 -2.1617 -0.5488
16243SOL    HW249573   4.309   3.453   6.846 -1.8746 -0.7063  1.1844
16244SOL     OW49574   2.441   0.457   3.567  0.0712  0.0325  0.2052
16244SOL    HW149575   2.505   0.406   3.517  0.4927  2.3940 -1.8812
16244SOL    HW249576   2.359   0.408   3.560  0.7910 -1.1012 -0.4279
16245SOL     OW49577   3.679   6.219   1.722  0.1400  0.1794  0.4719
16245SOL    HW149578   3.613   6.155   1.694 -1.7633  1.2333  2.2477
16245SOL    HW249579   3.671   6.291   1.660 -1.1744  0.7346  1.2316
16246SOL     OW49580   6.599   6.801   4.103  0.2585  0.4467 -0.3408
16246SOL    HW149581   6.552   6.775   4.024 -0.9936  1.9002 -0.1165
16246SOL    HW249582   6.536   6.853   4.152  0.1003 -2.4581  2.9094
16247SOL     OW49583   1.460   6.030   5.176 -0.0059 -0.2250  0.2549
16247SOL    HW149584   1.430   5.942   5.152 -0.4543  0.2802 -1.2032
16247SOL    HW249585   1.553   6.031   5.155  0.2878 -0.7286  1.4828
16248SOL     OW49586   3.875   8.107   3.894  0.1837 -0.1642  0.1677
16248SOL    HW149587   3.840   8.194   3.912 -2.0013 -0.6744 -1.2209
16248SOL    HW249588   3.944   8.121   3.831 -0.4112  0.5532 -0.3375
16249SOL     OW49589   7.562   8.203   5.087 -0.3808  0.0153  0.0371
16249SOL    HW149590   7.624   8.141   5.050 -0.6092  0.2155 -0.7042
16249SOL    HW249591   7.543   8.263   5.015 -0.2505  0.8761  0.7119
16250SOL     OW49592   2.043   7.818   7.562  0.0447 -0.5057  0.2232
16250SOL    HW149593   2.071   7.890   7.619  0.6936 -0.4822 -0.1233
16250SOL    HW249594   2.122   7.790   7.517 -0.3704 -0.8653 -0.2959
16251SOL     OW49595   4.877   1.151   6.411  0.5208 -0.2813  0.4036
16251SOL    HW149596   4.821   1.196   6.474  0.6836 -0.9851  1.0652
16251SOL    HW249597   4.853   1.058   6.420  0.0785 -0.3390 -1.0392
16252SOL     OW49598   0.941   3.715   6.082  0.5854  0.0852 -0.0074
16252SOL    HW149599   0.912   3.733   6.172 -1.6006  1.4334 -0.8956
16252SOL    HW249600   0.942   3.800   6.040  3.3433 -0.2864 -0.8630
16253SOL     OW49601   3.465   3.475   6.684 -0.0318 -0.7045 -0.3903
16253SOL    HW149602   3.388   3.510   6.639  0.8345  0.1440 -1.2767
16253SOL    HW249603   3.539   3.521   6.644  0.9733 -1.8034  0.1374
16254SOL     OW49604   0.546   7.429   1.694 -0.4516 -0.6668 -0.1811
16254SOL    HW149605   0.536   7.362   1.627 -0.0801 -1.0898  0.1858
16254SOL    HW249606   0.592   7.501   1.650  1.4992 -1.6794  0.0917
16255SOL     OW49607   4.680   0.160   5.082  0.0099 -0.7211  0.6000
16255SOL    HW149608   4.711   0.247   5.109  0.2831 -0.5987 -0.0786
16255SOL    HW249609   4.589   0.174   5.057  0.8701  0.0975 -2.5629
16256SOL     OW49610   2.638   2.469   6.379 -0.6329 -0.0626 -0.0637
16256SOL    HW149611   2.662   2.385   6.341 -1.2738  0.0020 -0.6410
16256SOL    HW249612   2.717   2.522   6.372 -0.3289 -0.5032 -0.0106
16257SOL     OW49613   2.878   1.154   4.819  0.1849 -0.1268  0.8148
16257SOL    HW149614   2.952   1.099   4.794  0.1778 -0.1821  0.9134
16257SOL    HW249615   2.918   1.234   4.854  0.2092  0.8903 -1.3499
16258SOL     OW49616   3.579   6.698   7.664  0.1520 -0.1854  0.2753
16258SOL    HW149617   3.500   6.644   7.660  0.0269  0.0544 -0.7043
16258SOL    HW249618   3.557   6.767   7.727 -0.9468  0.6721 -0.9911
16259SOL     OW49619   7.410   4.066   6.056  0.2251  0.2552  0.4068
16259SOL    HW149620   7.444   4.073   6.146 -0.0630 -0.9306  0.6233
16259SOL    HW249621   7.460   4.131   6.007 -0.0261  1.3600  1.5393
16260SOL     OW49622   5.860   0.823   2.848 -0.2849 -0.0104 -0.4267
16260SOL    HW149623   5.828   0.909   2.873 -0.5037 -0.2034 -0.0341
16260SOL    HW249624   5.922   0.840   2.777 -0.1536  0.4882 -0.1974
16261SOL     OW49625   3.198   3.433   6.295 -0.2020  0.3487 -0.2534
16261SOL    HW149626   3.287   3.431   6.261 -0.8670 -0.2293 -2.1224
16261SOL    HW249627   3.146   3.467   6.222 -1.6161 -0.0858  0.5090
16262SOL     OW49628   6.388   7.323   3.564 -0.1782  0.1614  0.1562
16262SOL    HW149629   6.438   7.404   3.577  1.5322 -0.8765  0.3612
16262SOL    HW249630   6.448   7.254   3.591 -1.0790 -1.2773 -1.3891
16263SOL     OW49631   2.831   1.854   7.749 -0.2435  0.1612  0.3870
16263SOL    HW149632   2.800   1.932   7.794  1.0278  0.9809 -0.0930
16263SOL    HW249633   2.891   1.887   7.682 -1.2196 -1.0905 -1.1815
16264SOL     OW49634   4.164   7.883   1.240  0.2668 -0.1473  0.0071
16264SOL    HW149635   4.253   7.889   1.276  0.1985 -1.3306  0.4223
16264SOL    HW249636   4.135   7.973   1.232  0.9199  0.2137  1.3947
16265SOL     OW49637   1.891   1.748   1.188  0.1475 -0.3136  0.2130
16265SOL    HW149638   1.882   1.843   1.181 -0.8495 -0.1499  2.6858
16265SOL    HW249639   1.958   1.735   1.255 -0.2704 -1.3305  0.4566
16266SOL     OW49640   3.263   2.757   4.025 -0.4388  0.1569  0.3274
16266SOL    HW149641   3.223   2.815   4.090 -1.1052 -0.3847  0.4169
16266SOL    HW249642   3.190   2.732   3.968 -0.0668 -0.2426  0.0226
16267SOL     OW49643   0.828   7.063   7.485  0.0852 -0.2141 -0.1478
16267SOL    HW149644   0.735   7.040   7.486 -0.2793  1.0880 -1.1027
16267SOL    HW249645   0.867   7.001   7.424 -0.1391 -0.7787  0.2683
16268SOL     OW49646   2.348   3.768   3.862  0.1948  0.9384  0.2321
16268SOL    HW149647   2.321   3.701   3.799 -0.5972  0.3979  1.1176
16268SOL    HW249648   2.338   3.851   3.814  0.7237  0.4669 -0.7165
16269SOL     OW49649   5.653   6.135   7.436 -0.1264 -0.2412 -0.2193
16269SOL    HW149650   5.734   6.160   7.480  0.3665 -1.1399 -0.5963
16269SOL    HW249651   5.584   6.166   7.495  0.4889  0.2391  0.2695
16270SOL     OW49652   6.124   2.936   6.264  0.4715 -0.1371  0.5001
16270SOL    HW149653   6.081   2.922   6.348 -0.1564 -2.8889 -0.1670
16270SOL    HW249654   6.076   2.879   6.203  2.6023 -0.3427 -1.1043
16271SOL     OW49655   6.691   6.653   1.040 -0.0408  0.4912 -0.0578
16271SOL    HW149656   6.774   6.609   1.022  0.5100  1.4788  0.0240
16271SOL    HW249657   6.713   6.722   1.103 -1.0669  0.2454  0.5931
16272SOL     OW49658   3.497   1.737   4.685  1.0104 -0.3209  1.0887
16272SOL    HW149659   3.418   1.698   4.722 -0.1349 -0.2309 -1.0864
16272SOL    HW249660   3.468   1.823   4.653  1.3950 -1.1176 -1.6121
16273SOL     OW49661   7.549   3.490   6.598 -0.3867  0.4358 -0.3939
16273SOL    HW149662   7.639   3.494   6.564 -0.1999  1.3402  0.1756
16273SOL    HW249663   7.507   3.424   6.544  1.1185 -1.3539  0.5209
16274SOL     OW49664   6.915   1.197   4.605  0.5258 -0.1834  0.0999
16274SOL    HW149665   6.927   1.173   4.513  0.1923 -0.6800  0.1800
16274SOL    HW249666   6.836   1.149   4.632  0.0720  0.7020  0.3834
16275SOL     OW49667   2.742   1.996   4.607  0.2362  0.1995 -0.4483
16275SOL    HW149668   2.705   1.961   4.687  0.8624 -1.4444 -0.8489
16275SOL    HW249669   2.732   2.091   4.616 -0.6297 -0.0050  1.0944
16276SOL     OW49670   3.892   4.644   5.286 -0.2988  0.3181 -0.3670
16276SOL    HW149671   3.947   4.578   5.329 -1.3535 -0.1144  0.3502
16276SOL    HW249672   3.929   4.728   5.315 -0.1660  0.0338  0.3176
16277SOL     OW49673   5.865   8.079   4.741 -0.2653 -0.2084  0.0970
16277SOL    HW149674   5.834   8.151   4.685  1.9943 -0.0403 -1.0556
16277SOL    HW249675   5.889   8.009   4.679 -2.3545 -2.0194  1.1847
16278SOL     OW49676   3.703   1.924   6.275  0.0120 -0.7267 -0.3569
16278SOL    HW149677   3.624   1.883   6.312  0.3408 -0.3870  0.7660
16278SOL    HW249678   3.770   1.856   6.283  0.0905 -0.6417 -0.2992
16279SOL     OW49679   6.428   2.297   0.492  0.2560 -0.2870  0.5781
16279SOL    HW149680   6.358   2.331   0.436  1.3329  0.5873 -0.2922
16279SOL    HW249681   6.414   2.342   0.576 -1.2425 -1.4503  0.9918
16280SOL     OW49682   2.936   8.149   6.726 -0.0097  0.0974  0.3791
16280SOL    HW149683   2.864   8.087   6.716  0.6133 -0.4777 -0.6867
16280SOL    HW249684   3.014   8.099   6.702  0.3959  1.5809 -1.6686
16281SOL     OW49685   2.295   0.929   2.645  0.3033  0.5249  0.2015
16281SOL    HW149686   2.212   0.919   2.691 -0.1255 -0.9876 -0.8281
16281SOL    HW249687   2.327   1.014   2.673  0.4716 -0.5780  3.8917
16282SOL     OW49688   4.402   0.886   2.129 -0.3043  0.1624  0.7555
16282SOL    HW149689   4.448   0.877   2.213  0.2969 -0.8326  0.3305
16282SOL    HW249690   4.461   0.848   2.065 -1.5277 -0.7510  0.1214
16283SOL     OW49691   2.063   7.637   3.967  0.2417  0.4131  0.1119
16283SOL    HW149692   2.091   7.549   3.942 -0.0857  0.4319 -0.3457
16283SOL    HW249693   1.972   7.642   3.937 -0.1415  0.4786  1.2341
16284SOL     OW49694   6.529   5.020   1.100  0.2626  0.4776  0.1720
16284SOL    HW149695   6.605   5.077   1.090  1.9888 -1.8344 -0.6377
16284SOL    HW249696   6.454   5.079   1.096  1.9753  2.9217  1.4986
16285SOL     OW49697   5.376   0.724   7.063  0.0116 -0.3931  0.1864
16285SOL    HW149698   5.459   0.719   7.109  0.2120 -2.5738 -0.2937
16285SOL    HW249699   5.312   0.692   7.126 -0.5214  1.3552  0.5839
16286SOL     OW49700   6.937   1.402   0.354 -0.1961  0.3285 -0.1239
16286SOL    HW149701   6.959   1.344   0.281 -0.4918 -0.5975  0.5160
16286SOL    HW249702   6.899   1.480   0.312  2.0125  0.9681 -1.1315
16287SOL     OW49703   0.895   5.617   0.706 -0.5500 -0.0656 -0.2200
16287SOL    HW149704   0.840   5.693   0.688  1.2038  1.9002  2.0433
16287SOL    HW249705   0.833   5.546   0.723 -2.4128  1.8747  1.6438
16288SOL     OW49706   3.851   2.941   5.568  0.6086  0.3242  0.3833
16288SOL    HW149707   3.837   2.857   5.612  1.8835  0.4810  1.1330
16288SOL    HW249708   3.763   2.969   5.541  0.3481 -2.2451 -1.8085
16289SOL     OW49709   4.698   1.102   4.920 -0.2061 -0.3125 -1.0696
16289SOL    HW149710   4.729   1.151   4.996 -0.2664 -0.1542 -1.1485
16289SOL    HW249711   4.615   1.064   4.947 -1.3693  1.5953 -1.7993
16290SOL     OW49712   7.032   0.966   7.963  0.1199  0.3180 -0.0086
16290SOL    HW149713   6.977   1.044   7.964  0.9230  0.9133 -1.1084
16290SOL    HW249714   7.067   0.962   7.874  2.2659  0.2571  0.7899
16291SOL     OW49715   5.616   0.391   3.086 -0.0509 -0.3372 -0.2054
16291SOL    HW149716   5.631   0.320   3.023  0.5715 -0.4052  0.0212
16291SOL    HW249717   5.546   0.358   3.142 -1.7830  0.3605 -1.8348
16292SOL     OW49718   1.768   6.262   4.416 -0.3214 -0.9813 -0.0267
16292SOL    HW149719   1.745   6.171   4.400  0.2604 -0.8956 -1.5311
16292SOL    HW249720   1.755   6.305   4.331  0.2147  0.1610  0.4453
16293SOL     OW49721   1.869   5.843   2.185 -0.2561  0.5082 -0.0571
16293SOL    HW149722   1.856   5.863   2.092  0.2763  1.8524  0.1329
16293SOL    HW249723   1.901   5.925   2.222  1.1803 -0.4978  0.9930
16294SOL     OW49724   0.116   1.779   2.420 -0.0096  0.5227  0.6389
16294SOL    HW149725   0.154   1.865   2.442 -0.8692  0.9474  0.4901
16294SOL    HW249726   0.136   1.767   2.327 -0.7815  1.0408  0.3968
16295SOL     OW49727   0.380   6.484   5.823  0.2135  0.0089 -0.7310
16295SOL    HW149728   0.454   6.545   5.832  1.6136 -1.8523  2.5328
16295SOL    HW249729   0.303   6.536   5.842  1.2729  1.0881  0.9231
16296SOL     OW49730   3.699   7.936   7.840 -0.1861  0.2779 -0.5787
16296SOL    HW149731   3.665   7.942   7.750 -1.4498 -0.1318 -0.1526
16296SOL    HW249732   3.726   7.844   7.848 -1.9159 -0.2080  0.0622
16297SOL     OW49733   4.871   4.350   3.206  0.5579  0.1633 -0.1664
16297SOL    HW149734   4.939   4.389   3.152  0.4024 -0.8955 -1.1620
16297SOL    HW249735   4.789   4.380   3.167  0.3864  2.3465  1.6929
16298SOL     OW49736   3.619   2.310   2.096  0.5322 -0.4344 -0.1827
16298SOL    HW149737   3.542   2.278   2.049  0.8588 -3.0318  0.9097
16298SOL    HW249738   3.583   2.376   2.156 -0.4949 -0.0859 -1.1367
16299SOL     OW49739   2.135   8.178   4.862  0.2850 -0.4007 -0.5569
16299SOL    HW149740   2.159   8.269   4.879 -1.9510  0.4571 -1.6643
16299SOL    HW249741   2.077   8.155   4.934 -0.2376 -0.4707 -0.9908
16300SOL     OW49742   2.416   7.799   6.937 -0.0518 -0.0656 -0.2097
16300SOL    HW149743   2.418   7.798   7.033 -1.0345 -2.8148 -0.1424
16300SOL    HW249744   2.491   7.853   6.912 -0.1767  1.2986  2.0633
16301SOL     OW49745   0.342   6.121   5.497 -0.3428  0.0910  0.1788
16301SOL    HW149746   0.320   6.036   5.457  2.0096 -0.6542  0.3144
16301SOL    HW249747   0.386   6.169   5.428 -0.0214  0.4666  0.6407
16302SOL     OW49748   4.528   4.833   0.670  0.3377  0.0193 -0.0282
16302SOL    HW149749   4.542   4.923   0.640 -0.4586 -0.3324 -1.5804
16302SOL    HW249750   4.468   4.841   0.744  1.0104  0.8130  0.4443
16303SOL     OW49751   5.118   6.726   6.093  0.3496  0.3825 -0.0139
16303SOL    HW149752   5.142   6.817   6.080  0.2971  0.5002  0.6764
16303SOL    HW249753   5.068   6.726   6.175  1.8491 -0.5221  0.9355
16304SOL     OW49754   3.761   3.422   3.082 -0.2211  0.4707 -0.4139
16304SOL    HW149755   3.814   3.369   3.022 -0.5004 -0.5325  0.1997
16304SOL    HW249756   3.672   3.413   3.050 -0.1366  1.5924 -1.0300
16305SOL     OW49757   4.189   5.166   3.793  0.1634 -0.3210 -0.5429
16305SOL    HW149758   4.200   5.078   3.829  0.9703 -0.2657 -0.6394
16305SOL    HW249759   4.159   5.153   3.703  2.3831 -0.5706 -1.3046
16306SOL     OW49760   7.752   1.509   8.029  0.3682 -0.9878 -0.0262
16306SOL    HW149761   7.679   1.458   7.994 -1.4072  1.5405 -0.3087
16306SOL    HW249762   7.742   1.502   8.124 -1.9178  1.3320  0.0113
16307SOL     OW49763   2.774   7.775   0.330  0.2883 -0.5668  0.3331
16307SOL    HW149764   2.833   7.781   0.405  1.6713  0.2165 -0.7769
16307SOL    HW249765   2.704   7.716   0.360  0.5628  0.0562  2.3590
16308SOL     OW49766   6.804   6.996   7.751 -0.2116  0.2065 -0.0176
16308SOL    HW149767   6.758   7.074   7.723  1.1442  0.9408 -0.2849
16308SOL    HW249768   6.838   6.958   7.670 -0.5367 -0.4636  0.1488
16309SOL     OW49769   4.372   8.075   7.606 -0.1728 -0.0597 -0.2727
16309SOL    HW149770   4.411   7.999   7.562 -0.6085  0.2620 -1.2463
16309SOL    HW249771   4.278   8.062   7.595 -0.2393  1.3588 -1.7977
16310SOL     OW49772   7.924   7.859   5.150  0.4888  0.8150  0.3191
16310SOL    HW149773   7.985   7.880   5.221 -1.0216 -0.0543  1.9267
16310SOL    HW249774   7.964   7.783   5.107 -0.1402 -0.7524  2.3431
16311SOL     OW49775   5.176   7.269   1.885  0.0404  0.2007 -0.0272
16311SOL    HW149776   5.121   7.196   1.915 -0.6759  0.5046 -0.5780
16311SOL    HW249777   5.235   7.286   1.958 -0.9453  0.2106  0.7926
16312SOL     OW49778   0.226   7.875   7.951 -0.0330  0.2808  0.2341
16312SOL    HW149779   0.290   7.925   7.899 -0.2381 -0.1098 -0.4105
16312SOL    HW249780   0.278   7.824   8.012  0.3389 -0.5842 -0.7653
16313SOL     OW49781   3.903   3.943   0.399  0.3546  0.1619  0.3314
16313SOL    HW149782   3.913   3.931   0.493  0.2150  1.5786  0.5447
16313SOL    HW249783   3.837   4.011   0.390 -1.0855 -1.3007 -0.8477
16314SOL     OW49784   2.753   4.185   2.816 -0.1821  0.2476 -0.1913
16314SOL    HW149785   2.693   4.134   2.871  0.8267 -0.2955  0.4462
16314SOL    HW249786   2.840   4.166   2.852  0.3999  0.8066 -1.2518
16315SOL     OW49787   6.477   4.930   7.139  0.5018 -0.0907 -0.3314
16315SOL    HW149788   6.500   4.990   7.069 -0.1760  0.9888  0.3479
16315SOL    HW249789   6.543   4.946   7.207  0.2968 -0.0844 -0.1319
16316SOL     OW49790   1.783   5.692   0.388 -0.7945  0.0044 -0.0406
16316SOL    HW149791   1.828   5.766   0.429  0.9574 -1.4962  0.9138
16316SOL    HW249792   1.734   5.652   0.459 -2.2518  0.5737 -0.6932
16317SOL     OW49793   5.887   5.191   0.668  0.1025  0.0820  0.0404
16317SOL    HW149794   5.887   5.276   0.624  1.6968  0.1742  0.1861
16317SOL    HW249795   5.840   5.207   0.750  0.8403  0.9516  0.3053
16318SOL     OW49796   7.411   6.451   7.462  0.1195  0.0420  0.4432
16318SOL    HW149797   7.353   6.469   7.536 -0.9529 -0.0999 -0.3448
16318SOL    HW249798   7.432   6.538   7.427  1.3112  0.1677  1.3905
16319SOL     OW49799   6.389   2.099   5.659  0.1950  0.5702 -0.2840
16319SOL    HW149800   6.457   2.166   5.669 -0.2110  1.0584 -0.7233
16319SOL    HW249801   6.387   2.081   5.565 -0.8704  1.1884 -0.3879
16320SOL     OW49802   6.793   3.025   8.076 -0.0180 -0.0773  0.2409
16320SOL    HW149803   6.709   3.009   8.118  0.0296 -0.7794  0.0894
16320SOL    HW249804   6.771   3.043   7.984  0.1211 -2.6905 -0.3687
16321SOL     OW49805   7.763   7.085   6.098  0.4937  0.0591 -0.5768
16321SOL    HW149806   7.758   7.173   6.136 -0.8300  0.1786 -0.9598
16321SOL    HW249807   7.801   7.098   6.012  1.5542  0.0638 -0.1233
16322SOL     OW49808   4.880   3.843   0.419 -0.0215 -0.6048 -0.2350
16322SOL    HW149809   4.937   3.783   0.371  0.1970  0.1562 -0.9562
16322SOL    HW249810   4.805   3.789   0.445 -0.1729 -1.0515 -1.4906
16323SOL     OW49811   7.419   2.159   3.599  0.1432  0.2668 -0.3759
16323SOL    HW149812   7.369   2.082   3.572  1.3255 -0.2266 -1.2600
16323SOL    HW249813   7.356   2.231   3.598 -0.7526 -0.5121 -0.5246
16324SOL     OW49814   0.679   4.746   1.260 -0.8133  0.4305  0.1726
16324SOL    HW149815   0.601   4.791   1.291 -2.0088 -0.5627 -1.2540
16324SOL    HW249816   0.665   4.736   1.166  0.4980 -0.8209  0.0747
16325SOL     OW49817   5.530   1.149   2.050  0.2932  0.1542 -0.4461
16325SOL    HW149818   5.496   1.098   1.977 -0.9361 -0.5872  0.6004
16325SOL    HW249819   5.542   1.086   2.121 -1.2580  1.2709  0.8828
16326SOL     OW49820   7.210   5.620   3.918 -0.0211 -0.5051 -0.0837
16326SOL    HW149821   7.172   5.549   3.970 -0.2720  0.6050  1.3178
16326SOL    HW249822   7.270   5.664   3.978  2.3077 -1.1965 -1.7686
16327SOL     OW49823   7.402   1.710   0.350 -0.2764 -0.0676  0.4823
16327SOL    HW149824   7.409   1.801   0.379 -0.2319 -0.4725  1.8407
16327SOL    HW249825   7.356   1.666   0.422 -0.4207 -1.0860 -0.2152
16328SOL     OW49826   7.839   8.012   6.238  0.1619  0.6379 -0.8389
16328SOL    HW149827   7.852   8.090   6.291  0.1356  1.5363 -2.0945
16328SOL    HW249828   7.783   7.956   6.291  2.9033 -0.0626  1.5179
16329SOL     OW49829   3.472   6.258   6.744 -0.0405  0.2532 -0.5011
16329SOL    HW149830   3.492   6.321   6.813  0.6316  1.2910 -1.5915
16329SOL    HW249831   3.396   6.210   6.776 -0.0650  1.0658  0.7208
16330SOL     OW49832   2.944   1.357   6.227 -0.2274  0.5228  0.4725
16330SOL    HW149833   2.931   1.267   6.198 -0.0048  0.6166  0.0826
16330SOL    HW249834   2.866   1.376   6.279  0.7292 -0.6515  2.4922
16331SOL     OW49835   4.598   4.391   7.500  0.4464 -0.4937 -0.3837
16331SOL    HW149836   4.546   4.350   7.431 -1.3700 -0.5089  0.9443
16331SOL    HW249837   4.644   4.319   7.542  0.4765 -0.6552 -0.6918
16332SOL     OW49838   6.270   5.868   6.165  0.5570  0.7054  0.2057
16332SOL    HW149839   6.182   5.905   6.172  0.4012  0.0899  2.0172
16332SOL    HW249840   6.325   5.926   6.218  1.0721  0.5501 -0.1423
16333SOL     OW49841   1.118   0.237   6.382  0.4810 -0.0325  0.5097
16333SOL    HW149842   1.076   0.317   6.350  0.9109  0.1894  0.4901
16333SOL    HW249843   1.073   0.166   6.336  2.9234  0.3635 -2.9089
16334SOL     OW49844   2.009   1.875   6.507  0.1358  0.1105 -0.2599
16334SOL    HW149845   1.962   1.800   6.471 -0.0048 -0.6956  1.4853
16334SOL    HW249846   2.059   1.910   6.433  0.7866 -2.1413 -0.9741
16335SOL     OW49847   2.210   5.470   2.396 -0.2489  0.3098  0.4122
16335SOL    HW149848   2.134   5.413   2.410  1.5149 -1.5811  3.2082
16335SOL    HW249849   2.229   5.461   2.302 -2.4766 -0.3914 -0.0432
16336SOL     OW49850   1.957   7.515   1.202 -0.0256 -0.0203 -0.0988
16336SOL    HW149851   1.985   7.429   1.232 -0.6402 -0.7678 -1.5640
16336SOL    HW249852   1.862   7.509   1.196  0.0536 -0.0501 -2.3695
16337SOL     OW49853   5.361   3.943   3.874  0.1615  0.5074 -0.3218
16337SOL    HW149854   5.270   3.949   3.846  0.3044 -0.0867 -0.9469
16337SOL    HW249855   5.356   3.929   3.969 -0.4408 -0.6193 -0.5037
16338SOL     OW49856   1.506   2.876   3.752  0.3812 -0.3168  0.4243
16338SOL    HW149857   1.528   2.967   3.737  0.4362 -0.6853 -2.0514
16338SOL    HW249858   1.421   2.878   3.796  1.1904  0.9042  2.0596
16339SOL     OW49859   6.736   4.045   3.944 -0.0642  0.0749  0.1691
16339SOL    HW149860   6.831   4.053   3.936 -0.0101 -0.2199  0.4842
16339SOL    HW249861   6.720   4.045   4.039 -0.5270  1.7691  0.1227
16340SOL     OW49862   5.706   3.908   4.423  0.3618  0.0716  0.5976
16340SOL    HW149863   5.705   3.895   4.328  1.5482  0.3740  0.5287
16340SOL    HW249864   5.674   3.825   4.459  3.2174 -1.4018  0.0190
16341SOL     OW49865   6.790   7.319   0.447  0.9189 -0.2096  0.4524
16341SOL    HW149866   6.750   7.394   0.491  1.0483  0.2323 -0.1625
16341SOL    HW249867   6.795   7.345   0.355 -1.6448 -2.0295 -0.3450
16342SOL     OW49868   2.173   2.340   6.279 -0.0070 -0.2186 -0.0753
16342SOL    HW149869   2.255   2.306   6.245 -0.5373 -1.4262 -0.1934
16342SOL    HW249870   2.193   2.364   6.369 -0.1297 -3.1131  0.8409
16343SOL     OW49871   8.102   3.325   0.530 -0.3851  0.2600  0.2270
16343SOL    HW149872   8.147   3.261   0.586 -0.2687 -0.2277 -0.4016
16343SOL    HW249873   8.125   3.410   0.567 -0.0854 -0.0430  0.7514
16344SOL     OW49874   4.583   1.863   2.719  0.0710  0.0486 -0.2636
16344SOL    HW149875   4.587   1.846   2.813  3.0306 -0.0989 -0.3123
16344SOL    HW249876   4.490   1.859   2.698 -0.5982 -1.1141  2.4313
16345SOL     OW49877   3.295   3.294   4.435  0.4499 -0.0480 -0.0725
16345SOL    HW149878   3.328   3.240   4.506 -0.1657 -0.2174  0.0885
16345SOL    HW249879   3.209   3.257   4.414 -0.3528  1.3645  0.6029
16346SOL     OW49880   2.652   3.907   0.313 -0.0911 -0.2882 -0.2464
16346SOL    HW149881   2.698   3.832   0.349 -0.6163 -0.4328  0.1298
16346SOL    HW249882   2.721   3.962   0.275  0.3729 -0.5606  0.2010
16347SOL     OW49883   1.340   2.699   7.791 -0.5032 -0.1137  0.6462
16347SOL    HW149884   1.334   2.627   7.853  0.6176 -1.2032 -0.4466
16347SOL    HW249885   1.264   2.688   7.734 -0.0610 -0.7765  0.1637
16348SOL     OW49886   4.876   2.089   2.441 -0.1837  0.1851 -0.1998
16348SOL    HW149887   4.834   2.085   2.527  0.2230 -2.7626 -0.0564
16348SOL    HW249888   4.943   2.157   2.451 -0.2424  0.0159  1.7730
16349SOL     OW49889   1.198   5.470   6.469  0.0106 -0.4715 -0.1897
16349SOL    HW149890   1.114   5.479   6.513  0.3088  0.5296  0.2123
16349SOL    HW249891   1.190   5.390   6.416  0.0236 -2.4251  2.5403
16350SOL     OW49892   5.940   7.787   3.880 -0.2373  0.3068 -0.2341
16350SOL    HW149893   5.875   7.762   3.946  1.1975  0.7318  1.4459
16350SOL    HW249894   5.998   7.711   3.874 -0.0316  0.4894 -0.5701
16351SOL     OW49895   0.239   1.421   4.699 -0.3792  0.5251  0.1284
16351SOL    HW149896   0.254   1.454   4.611 -1.0839  1.5583  0.3795
16351SOL    HW249897   0.306   1.464   4.752  0.7764 -0.9573 -0.0611
16352SOL     OW49898   5.521   3.141   5.048 -0.0756  0.5141  0.0667
16352SOL    HW149899   5.583   3.131   5.120 -0.1700  2.3844  0.4682
16352SOL    HW249900   5.490   3.052   5.029 -0.6900  0.0447  2.8804
16353SOL     OW49901   3.878   7.906   6.458 -0.2995 -0.4279 -0.2508
16353SOL    HW149902   3.912   7.882   6.372  0.8461  0.6873 -0.1251
16353SOL    HW249903   3.784   7.888   6.452  0.0441 -2.2248 -1.0645
16354SOL     OW49904   5.930   5.468   4.368 -0.0711 -0.5824 -0.7319
16354SOL    HW149905   5.956   5.536   4.306 -0.1758 -1.5313 -1.8662
16354SOL    HW249906   5.903   5.394   4.312 -1.8047 -0.8882  0.4357
16355SOL     OW49907   7.308   3.051   1.667 -0.3923 -0.2957  0.0870
16355SOL    HW149908   7.336   2.964   1.637  0.6786 -0.4019  1.3147
16355SOL    HW249909   7.247   3.032   1.739 -0.2815 -0.0312  0.2494
16356SOL     OW49910   2.834   3.903   6.434 -0.2433 -0.4563 -0.3081
16356SOL    HW149911   2.886   3.980   6.409  2.3475 -1.8489  0.3801
16356SOL    HW249912   2.760   3.903   6.373 -0.3644  2.5437 -0.3076
16357SOL     OW49913   4.127   5.800   6.365  0.1166 -0.4468  0.2426
16357SOL    HW149914   4.185   5.874   6.343 -1.9264  1.2695  0.3728
16357SOL    HW249915   4.116   5.753   6.282 -0.1912  0.5985 -0.3155
16358SOL     OW49916   3.143   2.675   0.883 -0.4754 -0.3555  0.0761
16358SOL    HW149917   3.050   2.678   0.863 -0.6322  1.3147  0.8735
16358SOL    HW249918   3.153   2.600   0.941 -1.0815 -1.3457 -1.0706
16359SOL     OW49919   2.786   4.353   8.106 -0.0625 -0.8473 -0.0289
16359SOL    HW149920   2.834   4.275   8.134 -0.7391 -1.3387 -0.2110
16359SOL    HW249921   2.850   4.424   8.111  0.1102 -1.0760  1.8340
16360SOL     OW49922   7.916   0.905   0.751  0.3241 -0.0483  0.5424
16360SOL    HW149923   7.852   0.938   0.688 -0.3198  0.5377  1.4711
16360SOL    HW249924   7.999   0.907   0.704 -0.4329 -1.6730 -0.9988
16361SOL     OW49925   7.514   7.434   5.839  0.3996  0.3397  0.0972
16361SOL    HW149926   7.423   7.429   5.810  1.1888 -1.7571 -2.3990
16361SOL    HW249927   7.538   7.526   5.829 -1.3171  0.8545  0.4422
16362SOL     OW49928   6.573   7.160   7.960  0.4340 -0.0273 -0.3245
16362SOL    HW149929   6.480   7.143   7.973  0.5216 -0.7423 -0.5492
16362SOL    HW249930   6.612   7.148   8.047  0.3284  0.1928 -0.2466
16363SOL     OW49931   7.635   6.572   2.380  0.3329  0.3379  0.2766
16363SOL    HW149932   7.614   6.642   2.319 -1.5642 -0.5947 -0.2306
16363SOL    HW249933   7.646   6.494   2.325 -0.1850 -0.2790  1.0098
16364SOL     OW49934   1.337   5.712   7.203  0.4117 -0.7623 -0.5910
16364SOL    HW149935   1.293   5.767   7.268  1.1730  2.5892 -2.6191
16364SOL    HW249936   1.266   5.674   7.152 -0.1905  0.0730 -0.4010
16365SOL     OW49937   2.717   3.417   7.902  0.5744 -0.3605 -0.2868
16365SOL    HW149938   2.702   3.323   7.914 -0.7029  0.0352  1.6023
16365SOL    HW249939   2.735   3.450   7.990  0.5903  1.2411 -0.8584
16366SOL     OW49940   7.404   4.880   2.709 -0.8140  0.0110  0.1853
16366SOL    HW149941   7.460   4.952   2.680 -0.8794  0.2070  0.5432
16366SOL    HW249942   7.320   4.922   2.728 -0.8584 -0.1652  0.3753
16367SOL     OW49943   2.082   5.196   7.045  0.0226  0.7396 -0.3342
16367SOL    HW149944   2.049   5.130   7.106 -0.3937 -0.6666 -2.0207
16367SOL    HW249945   2.158   5.155   7.004 -1.2135  0.5898 -2.6191
16368SOL     OW49946   2.446   4.152   4.813  0.4839  0.9484  0.0121
16368SOL    HW149947   2.445   4.085   4.881  0.3216  2.2609  1.3802
16368SOL    HW249948   2.361   4.144   4.770 -0.3377  1.5049  1.4684
16369SOL     OW49949   2.228   3.164   6.884  0.1071 -0.5156 -0.1732
16369SOL    HW149950   2.305   3.198   6.929  0.4753 -0.8509 -0.5413
16369SOL    HW249951   2.239   3.194   6.793  0.9665 -2.4470 -0.7635
16370SOL     OW49952   4.917   1.367   7.658  0.0773  0.2918  0.1917
16370SOL    HW149953   4.898   1.443   7.714  1.6010 -0.2465  1.4903
16370SOL    HW249954   4.986   1.397   7.600 -1.0109  0.6231 -0.9781
16371SOL     OW49955   2.138   2.481   0.261  0.0119  0.1839  0.1028
16371SOL    HW149956   2.203   2.485   0.331  1.1733  1.8119 -0.9926
16371SOL    HW249957   2.098   2.568   0.260  0.7684  0.5675 -1.8903
16372SOL     OW49958   2.624   0.190   1.234 -0.1564 -0.2265 -0.3593
16372SOL    HW149959   2.646   0.124   1.300  1.0376 -0.1998 -0.6972
16372SOL    HW249960   2.709   0.225   1.207 -0.7246  0.8152 -0.8362
16373SOL     OW49961   8.045   7.646   0.983  0.0693 -0.1726  0.4351
16373SOL    HW149962   8.067   7.561   0.943  0.3408  1.5051 -3.4329
16373SOL    HW249963   7.954   7.661   0.959  0.4227  1.1960 -0.1189
16374SOL     OW49964   0.597   5.996   4.507  0.4733  0.0651  0.0375
16374SOL    HW149965   0.686   6.021   4.530  1.1270 -1.9141 -0.1429
16374SOL    HW249966   0.589   5.905   4.536 -1.3237  0.0418 -0.3996
16375SOL     OW49967   2.310   3.055   0.429  0.2130  0.2324  0.3715
16375SOL    HW149968   2.280   2.985   0.371 -0.2896  0.4854  0.3194
16375SOL    HW249969   2.377   3.014   0.483 -0.2041 -0.3386  0.4703
16376SOL     OW49970   3.059   5.288   1.882  0.0641 -0.2616  0.0123
16376SOL    HW149971   3.035   5.204   1.921 -0.7778 -0.2997 -0.5759
16376SOL    HW249972   3.086   5.342   1.956 -0.1308 -0.7982  0.4773
16377SOL     OW49973   5.664   0.814   3.117  0.1515  0.5490 -0.4332
16377SOL    HW149974   5.658   0.896   3.069  2.0195 -0.0323 -1.7467
16377SOL    HW249975   5.699   0.839   3.203  1.9959  1.0091 -1.2880
16378SOL     OW49976   2.856   6.189   5.489  0.4894  0.1306  0.1554
16378SOL    HW149977   2.820   6.255   5.548  0.5850  0.9799 -0.7040
16378SOL    HW249978   2.948   6.183   5.514  0.4613  0.2682  0.2945
16379SOL     OW49979   4.833   0.953   0.751  0.0443 -0.5177  0.4095
16379SOL    HW149980   4.915   0.958   0.702 -1.5958  0.8577 -2.4475
16379SOL    HW249981   4.778   0.892   0.701 -0.7022 -1.5536  2.3538
16380SOL     OW49982   2.716   5.424   1.890 -0.0209 -0.1919  0.1303
16380SOL    HW149983   2.672   5.432   1.975  0.5556  0.2857  0.3960
16380SOL    HW249984   2.663   5.477   1.830 -0.7224 -0.9501  0.0632
16381SOL     OW49985   0.675   5.703   1.567 -0.0850 -0.8616  0.1810
16381SOL    HW149986   0.634   5.781   1.532  1.8765  0.5890  0.9099
16381SOL    HW249987   0.687   5.645   1.492 -1.1826 -0.2907 -0.4460
16382SOL     OW49988   5.576   2.144   4.500  0.2745 -0.1251  0.4497
16382SOL    HW149989   5.552   2.053   4.516  1.4527 -0.7453 -1.1248
16382SOL    HW249990   5.574   2.154   4.405  0.0198  1.5480  0.5918
16383SOL     OW49991   1.139   3.155   3.574 -0.1934 -0.3182 -0.3275
16383SOL    HW149992   1.111   3.118   3.658  2.2265 -0.5224  0.4928
16383SOL    HW249993   1.114   3.089   3.510  0.4060 -1.5363  0.6258
16384SOL     OW49994   0.275   3.352   1.065  0.4366  0.5464  0.3113
16384SOL    HW149995   0.337   3.290   1.028 -0.2380  0.1113 -0.1160
16384SOL    HW249996   0.257   3.413   0.993 -0.9996 -0.3914 -0.1545
16385SOL     OW49997   7.031   7.811   2.217  0.0300  0.0405 -0.2988
16385SOL    HW149998   7.107   7.862   2.244 -1.0662  2.0348 -0.8059
16385SOL    HW249999   7.041   7.728   2.264  1.6879  0.8350  0.8695
16386SOL     OW50000   0.225   6.301   7.962  0.3519 -0.0149 -0.0731
16386SOL    HW150001   0.235   6.318   7.868  1.0591  0.5197  0.0893
16386SOL    HW250002   0.145   6.249   7.968  0.5830 -0.5152 -1.0240
16387SOL     OW50003   3.230   6.222   7.651  0.1817  0.7198 -0.8694
16387SOL    HW150004   3.314   6.238   7.694  0.2494  2.1166 -1.4565
16387SOL    HW250005   3.203   6.135   7.680  2.1442 -0.0280 -1.1952
16388SOL     OW50006   6.109   7.850   1.809  0.4395  0.6773  0.2134
16388SOL    HW150007   6.190   7.896   1.830  0.8707 -0.3798  0.9788
16388SOL    HW250008   6.093   7.793   1.885 -1.2126  1.1068  0.2351
16389SOL     OW50009   1.868   3.320   7.436 -0.0516  0.0459 -0.5815
16389SOL    HW150010   1.949   3.362   7.408  0.9203 -0.9401  0.6412
16389SOL    HW250011   1.888   3.227   7.436 -1.3557 -0.2549 -0.7378
16390SOL     OW50012   4.358   0.600   4.407  0.0038  0.3973  0.4675
16390SOL    HW150013   4.322   0.566   4.325 -2.1539 -0.3399  1.6265
16390SOL    HW250014   4.437   0.548   4.422 -0.7445 -0.9647 -0.1056
16391SOL     OW50015   6.825   1.791   6.640  0.4593  0.0799  0.3301
16391SOL    HW150016   6.856   1.817   6.553 -0.1579 -0.0318  0.0708
16391SOL    HW250017   6.862   1.857   6.699  1.7221 -0.4247  0.1199
16392SOL     OW50018   5.331   1.570   2.724  0.3867  0.7268 -0.3926
16392SOL    HW150019   5.260   1.593   2.665 -0.3805  1.0695  0.6288
16392SOL    HW250020   5.340   1.647   2.781  2.6481  1.3530 -1.4707
16393SOL     OW50021   6.661   7.375   2.303  0.0153 -0.2848 -0.3130
16393SOL    HW150022   6.687   7.427   2.379 -0.0241 -1.2976  0.4025
16393SOL    HW250023   6.738   7.379   2.245 -0.1393  0.8998 -0.4651
16394SOL     OW50024   7.701   6.411   7.580 -0.5301  0.2087  0.7460
16394SOL    HW150025   7.627   6.455   7.539  0.2236  0.2839 -0.5914
16394SOL    HW250026   7.770   6.478   7.585  0.2067 -0.4540 -0.1608
16395SOL     OW50027   3.301   0.553   1.484 -0.0071  0.2724 -0.5736
16395SOL    HW150028   3.365   0.589   1.545  0.8976 -1.5774 -0.3497
16395SOL    HW250029   3.256   0.485   1.534 -0.8180  0.2528 -1.3065
16396SOL     OW50030   5.550   8.051   6.659  0.2273 -0.5595 -0.3661
16396SOL    HW150031   5.522   8.075   6.571 -0.5130  0.5500  0.1503
16396SOL    HW250032   5.549   8.133   6.709  2.8356 -0.7273  0.1393
16397SOL     OW50033   5.364   5.983   5.245 -0.0840 -0.6226 -0.1308
16397SOL    HW150034   5.340   5.952   5.332 -2.3022 -0.5190 -0.6402
16397SOL    HW250035   5.304   5.938   5.185  0.0433  0.7826 -1.3926
16398SOL     OW50036   3.674   7.959   2.135  0.3562  0.1316 -0.0753
16398SOL    HW150037   3.605   8.017   2.165 -0.0027 -0.4989  0.3471
16398SOL    HW250038   3.755   8.010   2.145  0.1851  0.1308  1.4705
16399SOL     OW50039   0.665   1.044   4.856  0.3913 -0.4397 -0.0206
16399SOL    HW150040   0.605   1.012   4.923 -2.0522  0.6637 -1.5511
16399SOL    HW250041   0.620   1.029   4.774  0.9277  2.9415 -1.0833
16400SOL     OW50042   1.819   2.069   4.669  0.3389  0.5532  0.3139
16400SOL    HW150043   1.729   2.055   4.641  0.8065  2.0581 -2.3104
16400SOL    HW250044   1.817   2.154   4.713  0.5787  0.9404 -0.4115
16401SOL     OW50045   5.342   2.760   4.663  0.0160  0.1712 -0.6964
16401SOL    HW150046   5.319   2.802   4.581  1.0848 -0.0200 -1.1176
16401SOL    HW250047   5.394   2.683   4.638 -0.0003 -0.1295  0.1337
16402SOL     OW50048   4.660   1.377   1.294  0.5076 -0.2525 -0.1513
16402SOL    HW150049   4.594   1.312   1.270  1.4280 -0.8395 -1.2125
16402SOL    HW250050   4.641   1.453   1.240  0.0191  0.0093  0.3810
16403SOL     OW50051   2.323   6.155   5.007  0.4347  0.5250  0.3656
16403SOL    HW150052   2.313   6.166   5.102 -0.6017  0.1509  0.3167
16403SOL    HW250053   2.238   6.181   4.971  0.2724 -0.8224 -0.3070
16404SOL     OW50054   1.120   1.045   2.203 -0.0387  0.3615 -0.6801
16404SOL    HW150055   1.081   0.970   2.159 -1.4579  0.3440  0.5313
16404SOL    HW250056   1.045   1.100   2.227  0.8420  1.2745  0.0488
16405SOL     OW50057   2.910   0.338   0.203  0.3061 -0.7105  0.1149
16405SOL    HW150058   2.952   0.376   0.281  1.8883  0.2325 -1.1250
16405SOL    HW250059   2.981   0.291   0.159 -0.3357 -0.4408 -1.2440
16406SOL     OW50060   3.801   3.668   0.539  0.4619  0.6220 -0.0547
16406SOL    HW150061   3.829   3.603   0.475 -1.1702 -1.2785  1.0361
16406SOL    HW250062   3.833   3.634   0.623  0.7077  1.9474  0.4179
16407SOL     OW50063   7.210   2.568   1.792 -0.4206  0.5699  0.1059
16407SOL    HW150064   7.262   2.644   1.817  2.2872  0.5477 -4.3684
16407SOL    HW250065   7.168   2.593   1.710  0.1852 -2.4586 -1.2876
16408SOL     OW50066   3.253   3.968   2.486 -0.1312  0.0856  0.5378
16408SOL    HW150067   3.200   3.913   2.429 -2.3558  1.9940  0.6355
16408SOL    HW250068   3.320   4.005   2.429  0.0896 -1.0261  0.0482
16409SOL     OW50069   4.855   6.576   6.334  0.1057 -0.2406 -0.5016
16409SOL    HW150070   4.826   6.558   6.423 -0.9757 -1.3649 -1.0438
16409SOL    HW250071   4.935   6.627   6.344 -0.6439  0.6803  1.0882
16410SOL     OW50072   6.832   0.144   6.092  0.4435  0.2014  0.4580
16410SOL    HW150073   6.766   0.090   6.135  1.5535 -0.8987  0.8384
16410SOL    HW250074   6.824   0.122   5.999  2.3793 -2.4616  0.7959
16411SOL     OW50075   1.479   6.894   1.372 -0.0521 -0.3345  0.4516
16411SOL    HW150076   1.532   6.972   1.353 -2.2921  0.8636 -1.5330
16411SOL    HW250077   1.433   6.877   1.290 -2.6839 -1.3068  2.0309
16412SOL     OW50078   1.790   3.945   4.994 -0.0778  0.2590 -0.8068
16412SOL    HW150079   1.736   4.004   5.047  0.9117  0.0064  0.5420
16412SOL    HW250080   1.867   3.998   4.970 -1.2299  0.9042 -3.4720
16413SOL     OW50081   3.531   1.375   6.086  0.2916 -0.4613  0.1963
16413SOL    HW150082   3.541   1.451   6.029  0.4094 -1.2462 -0.8436
16413SOL    HW250083   3.466   1.320   6.042 -0.7938 -0.3604  1.5983
16414SOL     OW50084   4.636   8.013   1.835 -0.1212 -0.0728 -0.0584
16414SOL    HW150085   4.616   8.065   1.913  1.3745  1.0977 -0.4027
16414SOL    HW250086   4.553   7.973   1.811 -0.6946 -0.2446  1.9674
16415SOL     OW50087   0.577   1.123   5.410 -0.0183 -0.5124 -0.2736
16415SOL    HW150088   0.501   1.075   5.379 -2.8816  1.9167  2.3734
16415SOL    HW250089   0.594   1.087   5.497 -0.5371  1.3368  0.6468
16416SOL     OW50090   1.761   4.368   8.004 -0.1222  0.5084  0.1977
16416SOL    HW150091   1.849   4.340   8.032 -0.5118 -0.4002  0.5492
16416SOL    HW250092   1.777   4.430   7.933  0.7867 -1.1741 -1.1407
16417SOL     OW50093   0.478   4.459   3.914 -0.5527  0.4060  1.0823
16417SOL    HW150094   0.467   4.554   3.913  0.3242  0.5088  1.3165
16417SOL    HW250095   0.400   4.426   3.868 -0.9341  1.2230  1.1300
16418SOL     OW50096   2.127   0.887   0.689  0.1217  0.4268 -0.2026
16418SOL    HW150097   2.039   0.918   0.709 -0.0084  1.0081 -1.5584
16418SOL    HW250098   2.177   0.967   0.674  1.0336  0.1297  1.0212
16419SOL     OW50099   0.059   3.666   0.186  0.1279 -0.1834 -0.2318
16419SOL    HW150100   0.041   3.700   0.274  0.2169  0.6515 -0.5235
16419SOL    HW250101  -0.028   3.652   0.148  0.0222 -2.7098  0.7515
16420SOL     OW50102   0.709   2.378   5.643 -0.2032  0.1401 -0.6600
16420SOL    HW150103   0.774   2.308   5.635 -0.5426 -0.1101 -1.3236
16420SOL    HW250104   0.756   2.458   5.618 -0.2622 -0.1016 -1.5481
16421SOL     OW50105   4.828   6.972   1.526  0.3330 -0.3084 -0.0934
16421SOL    HW150106   4.759   7.029   1.561  0.1426  0.7534 -2.0487
16421SOL    HW250107   4.784   6.917   1.462  1.3446  0.8304 -1.8467
16422SOL     OW50108   2.505   2.553   4.530  0.5699  0.2630 -0.2943
16422SOL    HW150109   2.464   2.470   4.555  1.3588  0.1298  0.6150
16422SOL    HW250110   2.488   2.561   4.436 -0.5534 -0.3315 -0.1634
16423SOL     OW50111   2.661   2.225   0.208  0.1253 -0.0546  0.1646
16423SOL    HW150112   2.614   2.306   0.225  0.8916  0.2240  0.9593
16423SOL    HW250113   2.754   2.249   0.209  0.3357 -0.7673 -0.5191
16424SOL     OW50114   6.176   5.828   1.476  0.5789  0.4927 -0.2220
16424SOL    HW150115   6.148   5.845   1.386  0.8098  1.7132 -0.0819
16424SOL    HW250116   6.258   5.779   1.467  0.7733  0.8972 -0.6828
16425SOL     OW50117   7.215   6.169   2.102 -0.1117 -0.8836  0.1195
16425SOL    HW150118   7.232   6.075   2.112  0.6040 -0.6885  0.8275
16425SOL    HW250119   7.119   6.175   2.103 -0.2061 -1.7421 -1.4236
16426SOL     OW50120   1.080   3.496   6.996  0.0904 -0.4248 -0.2994
16426SOL    HW150121   1.032   3.480   7.076  2.0353  0.4607  1.1444
16426SOL    HW250122   1.145   3.425   6.992 -0.3664 -0.8112 -1.4524
16427SOL     OW50123   2.849   2.953   4.769 -0.5654  0.1968 -0.2341
16427SOL    HW150124   2.805   2.915   4.692  0.7327  0.0127 -0.9039
16427SOL    HW250125   2.844   3.047   4.755 -1.4658  0.2072  0.1098
16428SOL     OW50126   6.643   1.275   1.491 -0.3211 -0.0602  0.5077
16428SOL    HW150127   6.692   1.198   1.520 -0.3015 -0.2475 -0.0040
16428SOL    HW250128   6.664   1.343   1.555 -1.2970 -0.8144  1.6657
16429SOL     OW50129   1.550   2.261   0.771 -0.2686 -0.3030 -0.6691
16429SOL    HW150130   1.563   2.174   0.809  0.0105 -0.0623 -0.1979
16429SOL    HW250131   1.482   2.301   0.827 -2.7439 -1.3322 -2.7387
16430SOL     OW50132   6.901   0.016   2.655  0.1471 -0.5258 -0.0596
16430SOL    HW150133   6.985   0.004   2.699 -1.3388 -2.6830  2.5069
16430SOL    HW250134   6.892  -0.062   2.600 -0.6222 -0.8885  0.5620
16431SOL     OW50135   2.846   7.092   1.070 -0.1698  0.4753  0.0769
16431SOL    HW150136   2.931   7.049   1.082 -0.9650 -1.2169 -0.1188
16431SOL    HW250137   2.795   7.067   1.147 -1.2750 -0.5271 -0.9426
16432SOL     OW50138   4.308   5.441   4.857 -0.3574  0.3282 -0.2598
16432SOL    HW150139   4.223   5.411   4.889  0.2125  0.0813  1.1021
16432SOL    HW250140   4.355   5.361   4.835  0.5457  0.2376  1.7629
16433SOL     OW50141   8.057   1.459   3.095 -0.6640  0.2570 -0.0060
16433SOL    HW150142   8.141   1.451   3.050 -0.6987 -2.8688  0.2272
16433SOL    HW250143   7.992   1.446   3.026 -0.8277 -0.5158  0.2839
16434SOL     OW50144   7.777   0.018   1.607  0.0069  0.4683 -0.2547
16434SOL    HW150145   7.797   0.056   1.522 -1.3618  0.6960 -0.4943
16434SOL    HW250146   7.731  -0.064   1.587  1.7264 -0.7026  0.2701
16435SOL     OW50147   4.901   5.453   6.687  0.4019 -0.0663  0.6749
16435SOL    HW150148   4.931   5.542   6.707  0.2400 -0.2496  1.8178
16435SOL    HW250149   4.872   5.418   6.771  0.1903 -1.1046  0.1911
16436SOL     OW50150   8.008   3.018   2.596 -0.6773  0.2109  0.5087
16436SOL    HW150151   8.016   3.073   2.674  2.0138 -2.2030  2.1405
16436SOL    HW250152   8.002   2.928   2.630 -0.7621 -0.8511 -2.0564
16437SOL     OW50153   3.177   5.708   4.990  0.2868 -0.3882 -0.1848
16437SOL    HW150154   3.193   5.762   5.067  0.3937  0.5808 -0.8697
16437SOL    HW250155   3.088   5.732   4.963  0.6185  0.0172 -0.9339
16438SOL     OW50156   2.383   1.015   7.715  0.1949  0.0260 -0.0544
16438SOL    HW150157   2.340   0.952   7.658  1.0735  0.4236 -1.1878
16438SOL    HW250158   2.334   1.096   7.703 -0.6256 -0.2939  1.0210
16439SOL     OW50159   4.950   5.327   1.250 -0.4169  0.0901  0.0488
16439SOL    HW150160   5.000   5.407   1.264  1.6410 -1.0856 -0.1627
16439SOL    HW250161   4.977   5.269   1.322  3.1266 -2.6464 -3.1042
16440SOL     OW50162   0.509   3.860   1.473 -0.0440 -0.6825  0.2126
16440SOL    HW150163   0.503   3.913   1.553 -0.5934  1.3639 -1.1134
16440SOL    HW250164   0.441   3.895   1.416  0.1968 -2.2418 -1.0956
16441SOL     OW50165   5.400   1.031   5.599 -0.1936  0.3602  0.4384
16441SOL    HW150166   5.306   1.020   5.613 -0.0372 -2.0172  0.0448
16441SOL    HW250167   5.408   1.111   5.548 -2.0121  0.5897  0.4716
16442SOL     OW50168   3.045   3.118   1.406  0.3910 -0.4819 -0.0049
16442SOL    HW150169   3.137   3.144   1.403  0.3734 -0.4488 -0.3330
16442SOL    HW250170   3.017   3.119   1.315 -0.1816  0.4041  0.1637
16443SOL     OW50171   7.590   6.027   3.974 -0.0640 -0.1086  0.8301
16443SOL    HW150172   7.519   5.988   3.924  0.4496 -1.1606  0.8900
16443SOL    HW250173   7.625   6.096   3.918  0.7645 -1.5234 -0.4602
16444SOL     OW50174   1.397   2.241   4.206 -0.1217  0.2889 -0.1477
16444SOL    HW150175   1.342   2.280   4.138 -0.9200 -0.0240  0.3029
16444SOL    HW250176   1.478   2.292   4.203 -0.9593  1.7030  0.1155
16445SOL     OW50177   0.948   0.234   4.241  0.1556 -0.2614  0.0976
16445SOL    HW150178   0.984   0.228   4.329 -0.2347  0.9320  0.3572
16445SOL    HW250179   0.920   0.325   4.232 -2.3153 -0.9592 -0.2420
16446SOL     OW50180   1.174   0.037   1.493  0.6092  0.0524  0.5992
16446SOL    HW150181   1.201   0.129   1.483  0.6645  0.0373  0.6109
16446SOL    HW250182   1.239  -0.001   1.552  1.4965 -0.3905 -0.6124
16447SOL     OW50183   0.123   0.909   6.851 -0.2991 -0.3200 -0.4379
16447SOL    HW150184   0.171   0.846   6.797 -0.4769 -0.2460 -0.6811
16447SOL    HW250185   0.160   0.897   6.939 -0.4925 -0.9337 -0.4353
16448SOL     OW50186   6.709   2.846   7.062  0.1929 -0.1650  0.2108
16448SOL    HW150187   6.647   2.907   7.102  1.2187  0.5240  0.8086
16448SOL    HW250188   6.674   2.759   7.082 -0.2639  0.2027  1.0390
16449SOL     OW50189   3.229   3.132   7.250  0.0191 -0.3847  0.1404
16449SOL    HW150190   3.146   3.181   7.254  1.1964  1.7022  0.7130
16449SOL    HW250191   3.271   3.151   7.334  1.5932 -0.4110 -0.6150
16450SOL     OW50192   7.642   3.878   2.282  0.4384  0.7598 -0.4122
16450SOL    HW150193   7.630   3.920   2.367 -1.1188  0.8942 -0.6763
16450SOL    HW250194   7.625   3.786   2.297  0.4344  0.7396 -0.5351
16451SOL     OW50195   7.213   2.945   6.783  0.4642 -0.3412  0.4889
16451SOL    HW150196   7.133   2.910   6.823  0.9747  0.9609  2.8704
16451SOL    HW250197   7.279   2.879   6.803  0.4297 -0.3478  0.5856
16452SOL     OW50198   6.163   3.138   5.747  0.5174 -0.3276 -0.1477
16452SOL    HW150199   6.069   3.120   5.751  0.4635 -0.2964 -1.1873
16452SOL    HW250200   6.203   3.055   5.724  0.9694 -0.8560  2.2482
16453SOL     OW50201   3.101   3.779   2.354  0.5095  0.0937 -0.0031
16453SOL    HW150202   3.163   3.707   2.361 -0.4281 -0.6226  1.2686
16453SOL    HW250203   3.072   3.777   2.263  0.8176 -0.8651 -0.0887
16454SOL     OW50204   4.481   1.910   7.134  0.1208  0.3755  0.1931
16454SOL    HW150205   4.423   1.900   7.059  2.6461 -0.3875 -1.8330
16454SOL    HW250206   4.458   1.838   7.193  0.5719 -1.4443 -1.7367
16455SOL     OW50207   4.335   1.004   4.572 -0.4458 -0.1038 -0.0709
16455SOL    HW150208   4.384   0.944   4.628  0.4805 -0.2144 -0.9740
16455SOL    HW250209   4.340   1.088   4.616 -3.1319 -0.9116  2.0670
16456SOL     OW50210   6.998   7.190   2.983 -0.0721  0.0840  0.5154
16456SOL    HW150211   7.081   7.188   3.030  0.5469 -0.3885 -0.5800
16456SOL    HW250212   6.956   7.272   3.012  1.3395  0.9734  0.1034
16457SOL     OW50213   8.041   5.545   0.575  0.1844 -0.3078 -0.3342
16457SOL    HW150214   7.947   5.531   0.585  0.0558  0.2425 -0.7638
16457SOL    HW250215   8.051   5.588   0.490  0.8640 -0.7586 -0.4900
16458SOL     OW50216   2.839   4.782   3.281 -0.2892  0.1564  0.0848
16458SOL    HW150217   2.879   4.861   3.317  0.4287 -0.1841  0.0611
16458SOL    HW250218   2.745   4.800   3.281 -0.1765  0.7727  0.6363
16459SOL     OW50219   4.535   2.686   6.303 -0.1718  0.0841  0.5063
16459SOL    HW150220   4.590   2.622   6.348  0.8211  0.2691 -0.3967
16459SOL    HW250221   4.527   2.651   6.214  2.3159  2.2498 -0.7242
16460SOL     OW50222   6.613   1.218   7.715 -0.5106  0.3515  0.5138
16460SOL    HW150223   6.599   1.248   7.626  1.3780  0.7434  0.3047
16460SOL    HW250224   6.558   1.275   7.769 -0.7784  0.8751 -0.2977
16461SOL     OW50225   4.217   4.956   4.659  0.4392  0.1571 -0.0046
16461SOL    HW150226   4.292   4.958   4.598  0.0202 -1.4970 -0.6200
16461SOL    HW250227   4.235   4.881   4.716 -1.6907 -1.5897 -1.4732
16462SOL     OW50228   2.220   5.776   6.946  0.9027 -0.3070 -0.3465
16462SOL    HW150229   2.247   5.839   6.880  0.8286  0.6372  0.4896
16462SOL    HW250230   2.176   5.829   7.013 -1.6831 -1.5833 -0.9165
16463SOL     OW50231   5.063   0.172   2.052 -0.5886  0.1101 -0.0769
16463SOL    HW150232   5.067   0.166   2.147 -1.4230  1.6390  0.0798
16463SOL    HW250233   4.980   0.129   2.029  0.2276 -1.4432 -0.2699
16464SOL     OW50234   6.406   6.441   2.802  0.5292  0.0481  0.9800
16464SOL    HW150235   6.332   6.480   2.847  1.5732  1.6696  1.3908
16464SOL    HW250236   6.435   6.508   2.740  1.6671 -0.5395  0.8416
16465SOL     OW50237   3.759   4.698   7.904  0.1516  0.0420 -0.3312
16465SOL    HW150238   3.711   4.615   7.900 -0.4309  0.4038 -1.1026
16465SOL    HW250239   3.851   4.672   7.915  0.2703 -0.8109 -2.7215
16466SOL     OW50240   7.119   3.369   2.648 -0.2819  0.2406  0.0014
16466SOL    HW150241   7.198   3.369   2.594 -0.0361 -0.1492  0.3513
16466SOL    HW250242   7.113   3.458   2.682  1.9119 -0.4859  2.6777
16467SOL     OW50243   0.156   1.332   2.090  0.5579  0.1762  0.2366
16467SOL    HW150244   0.062   1.324   2.107  0.2585  0.6095 -1.0545
16467SOL    HW250245   0.190   1.243   2.099 -0.0824 -0.0867  0.1227
16468SOL     OW50246   4.755   4.799   6.468  0.0501 -0.0441 -0.1140
16468SOL    HW150247   4.695   4.830   6.401  0.4597  1.0685  0.0045
16468SOL    HW250248   4.814   4.740   6.422  1.7114  2.3503 -1.3287
16469SOL     OW50249   2.400   4.569   3.311  0.2197 -0.1763 -0.5689
16469SOL    HW150250   2.386   4.642   3.371 -3.2469 -0.3816 -0.9414
16469SOL    HW250251   2.459   4.604   3.244 -0.9606  2.1843 -0.4751
16470SOL     OW50252   5.544   7.548   3.160  0.4313  0.5024  0.1068
16470SOL    HW150253   5.465   7.506   3.124  0.3500  0.3256  0.4869
16470SOL    HW250254   5.513   7.634   3.190  0.2983  0.2847  0.6044
16471SOL     OW50255   1.280   4.153   2.594  0.0108  0.6805 -0.1040
16471SOL    HW150256   1.328   4.174   2.514 -1.2892 -0.3492 -1.1931
16471SOL    HW250257   1.188   4.149   2.568 -0.2806 -1.7280  0.9440
16472SOL     OW50258   4.801   1.496   8.141 -0.0363  0.5782  0.0993
16472SOL    HW150259   4.877   1.440   8.156 -0.1618  0.1606 -0.7857
16472SOL    HW250260   4.817   1.573   8.196  0.5030  0.0224  0.7418
16473SOL     OW50261   5.670   1.490   7.757 -0.0593 -0.1005 -0.8352
16473SOL    HW150262   5.700   1.410   7.714 -0.4825 -2.0540  2.1673
16473SOL    HW250263   5.576   1.475   7.771  0.0455  0.4866  0.6094
16474SOL     OW50264   2.094   0.520   7.806 -0.1153  0.1059  0.2141
16474SOL    HW150265   2.017   0.479   7.767 -1.7343  1.3973  1.8656
16474SOL    HW250266   2.155   0.447   7.820 -2.3492 -1.6250  1.8433
16475SOL     OW50267   7.613   2.704   7.454  0.0344  0.6149 -0.0825
16475SOL    HW150268   7.569   2.731   7.535  2.4614 -2.0921  2.3921
16475SOL    HW250269   7.552   2.645   7.411 -1.0240  1.5406  0.1183
16476SOL     OW50270   4.574   5.654   2.878  0.3516  0.6070 -0.8765
16476SOL    HW150271   4.650   5.608   2.842 -0.7778 -2.1825  0.0553
16476SOL    HW250272   4.612   5.724   2.931  2.4033 -1.2946  0.3734
16477SOL     OW50273   3.705   6.010   4.034 -0.1214  0.4920  0.3513
16477SOL    HW150274   3.611   6.004   4.014  0.0246  0.2151 -0.3050
16477SOL    HW250275   3.713   6.085   4.092 -0.5026  1.8422 -1.2373
16478SOL     OW50276   2.445   1.660   8.153  0.3194 -0.0559  0.6165
16478SOL    HW150277   2.483   1.746   8.139  2.7238 -1.2257 -0.7025
16478SOL    HW250278   2.479   1.631   8.238  0.4316 -0.1376  0.5444
16479SOL     OW50279   4.981   2.312   6.643 -0.3845 -0.8269  0.3140
16479SOL    HW150280   4.927   2.377   6.689 -1.6757 -2.4219  1.1384
16479SOL    HW250281   5.031   2.270   6.713  1.5786  0.2368 -0.3769
16480SOL     OW50282   4.359   5.303   1.540  0.6198 -0.8196 -0.3331
16480SOL    HW150283   4.445   5.302   1.582  0.6715  1.7152 -0.2536
16480SOL    HW250284   4.363   5.376   1.479 -1.2012 -1.2197 -0.9839
16481SOL     OW50285   6.670   7.221   5.618  0.7775 -0.2342 -0.1716
16481SOL    HW150286   6.665   7.245   5.711  1.7299  0.0188 -0.1795
16481SOL    HW250287   6.748   7.264   5.586  1.4396 -1.7301 -0.6645
16482SOL     OW50288   6.392   4.611   6.037 -0.1296 -0.0114  0.5942
16482SOL    HW150289   6.329   4.646   6.100  0.2878  1.7810  0.0475
16482SOL    HW250290   6.476   4.619   6.081 -0.0545 -0.5905  0.5605
16483SOL     OW50291   6.360   4.273   6.840  0.1390 -0.2121  0.2754
16483SOL    HW150292   6.438   4.328   6.830 -0.5054  0.2765 -3.0873
16483SOL    HW250293   6.395   4.184   6.844  0.9316  0.0125 -0.9504
16484SOL     OW50294   2.203   2.030   6.020 -0.5097  0.0048  0.1720
16484SOL    HW150295   2.200   1.987   5.934 -2.0062  1.0172 -0.3170
16484SOL    HW250296   2.211   2.123   6.000  3.2663  0.0648  1.2222
16485SOL     OW50297   3.354   2.796   3.552 -0.2032  0.0814  0.5761
16485SOL    HW150298   3.302   2.738   3.607  1.2123 -1.6779  0.1357
16485SOL    HW250299   3.414   2.840   3.612  0.8695 -1.3233  0.5913
16486SOL     OW50300   5.565   7.460   3.783  0.5944  0.0627 -0.1737
16486SOL    HW150301   5.580   7.469   3.877 -0.0942  1.4969 -0.1736
16486SOL    HW250302   5.585   7.547   3.747 -1.8383  0.3874 -0.9442
16487SOL     OW50303   7.555   3.534   4.948 -0.5206 -0.2496  0.1412
16487SOL    HW150304   7.634   3.538   5.002 -1.3526 -0.7885  1.4655
16487SOL    HW250305   7.586   3.541   4.858  0.8659  1.5203  0.7054
16488SOL     OW50306   4.168   2.190   3.978 -0.1620 -0.3285 -0.0716
16488SOL    HW150307   4.212   2.275   3.973  0.7123 -0.8139 -0.6956
16488SOL    HW250308   4.112   2.188   3.901 -1.5848  0.4165  0.8739
16489SOL     OW50309   5.535   0.821   2.744 -0.2807 -0.3171  0.2218
16489SOL    HW150310   5.592   0.790   2.674 -2.7321 -1.4036 -1.4460
16489SOL    HW250311   5.533   0.748   2.806  0.6539  0.0146  0.6629
16490SOL     OW50312   3.830   3.028   0.092  0.1145 -0.0819  0.7586
16490SOL    HW150313   3.853   3.114   0.126 -0.3623  0.2885  0.1749
16490SOL    HW250314   3.819   3.041  -0.003 -0.6561 -0.6267  0.7591
16491SOL     OW50315   7.252   6.921   1.127  0.0662 -0.1752 -0.1544
16491SOL    HW150316   7.282   6.886   1.211 -0.2621 -2.7053 -1.0135
16491SOL    HW250317   7.161   6.945   1.142  0.1084 -0.2785  0.2810
16492SOL     OW50318   1.063   3.336   3.203  0.0512 -0.6639  0.3408
16492SOL    HW150319   1.052   3.345   3.109  0.6098 -0.3755  0.2965
16492SOL    HW250320   0.986   3.289   3.233 -1.0635  0.8841  0.0145
16493SOL     OW50321   0.263   1.357   7.108  0.3112 -0.7319  0.1692
16493SOL    HW150322   0.193   1.293   7.099 -2.0925  1.4409  1.6167
16493SOL    HW250323   0.249   1.394   7.196  0.0075  3.2715 -1.3478
16494SOL     OW50324   0.988   4.865   5.076 -0.5614 -0.5350  0.2907
16494SOL    HW150325   1.051   4.932   5.101 -0.2248 -0.9451  0.5604
16494SOL    HW250326   1.030   4.818   5.004 -0.5133 -0.8677  0.5329
16495SOL     OW50327   0.393   1.758   3.885  0.1767  0.2659  0.0050
16495SOL    HW150328   0.486   1.774   3.900  0.1252 -0.4700  1.2377
16495SOL    HW250329   0.373   1.806   3.804  2.2818 -1.8487 -1.9386
16496SOL     OW50330   4.481   3.102   2.106 -0.5324  0.6653  0.4913
16496SOL    HW150331   4.488   3.042   2.032  1.0939  1.4240 -0.0160
16496SOL    HW250332   4.388   3.101   2.129 -0.8943 -0.3754 -0.8844
16497SOL     OW50333   0.055   1.228   7.513  0.2366 -0.1290  0.2070
16497SOL    HW150334   0.082   1.137   7.528 -1.5437 -1.0127 -1.4997
16497SOL    HW250335   0.120   1.263   7.453 -0.3704 -1.0883 -1.0493
16498SOL     OW50336   4.015   7.673   5.986  0.0262  0.1000  0.1475
16498SOL    HW150337   3.937   7.619   5.974  0.7992 -1.0673  0.2671
16498SOL    HW250338   4.070   7.653   5.910  0.4409  0.5374  0.3268
16499SOL     OW50339   5.709   7.172   6.327  0.4639 -0.0210 -0.2590
16499SOL    HW150340   5.721   7.175   6.422  1.4045  0.5309 -0.3881
16499SOL    HW250341   5.719   7.079   6.304  0.3650 -0.1361  0.1515
16500SOL     OW50342   7.300   0.506   0.052 -0.1137 -0.0994 -0.3584
16500SOL    HW150343   7.318   0.485  -0.040 -2.0926 -0.7294 -0.6598
16500SOL    HW250344   7.354   0.444   0.102  0.2176 -0.4362 -1.1152
16501SOL     OW50345   2.196   2.556   4.622 -0.3103  0.2796  0.3628
16501SOL    HW150346   2.216   2.506   4.543 -0.6431  0.8385 -0.0857
16501SOL    HW250347   2.262   2.528   4.686  0.0796 -0.0372 -0.1701
16502SOL     OW50348   3.039   0.195   1.973  0.9944  0.1877  0.4163
16502SOL    HW150349   3.071   0.124   1.917  0.4927  0.2596  0.0380
16502SOL    HW250350   3.031   0.155   2.060  1.2729 -0.0610  0.3327
16503SOL     OW50351   0.769   6.883   0.274 -0.0860 -0.0407 -0.8040
16503SOL    HW150352   0.862   6.903   0.263 -0.1864  0.8316 -0.1530
16503SOL    HW250353   0.743   6.844   0.190  0.7099  0.3258 -1.2319
16504SOL     OW50354   3.325   7.857   3.690  0.4615 -0.2252 -0.2583
16504SOL    HW150355   3.272   7.935   3.708  3.1934  1.3417  1.8980
16504SOL    HW250356   3.385   7.883   3.621  2.6079  0.3747  1.6930
16505SOL     OW50357   3.979   0.515   7.352  0.9016 -0.5429  0.5032
16505SOL    HW150358   4.063   0.560   7.362  1.0790 -0.8090  0.2275
16505SOL    HW250359   4.002   0.427   7.325  0.4812 -0.0942 -1.4821
16506SOL     OW50360   4.856   2.211   1.255  0.2403 -0.4509  0.3835
16506SOL    HW150361   4.777   2.239   1.210  0.0319  0.5972  1.3482
16506SOL    HW250362   4.866   2.119   1.231 -0.5126 -0.2428 -0.8131
16507SOL     OW50363   6.204   3.471   2.681  0.0037  0.0406 -0.3897
16507SOL    HW150364   6.266   3.498   2.614  1.4798 -1.2106  0.4139
16507SOL    HW250365   6.212   3.376   2.686 -4.2304 -0.6474 -2.3507
16508SOL     OW50366   1.615   3.444   1.066  0.2305  0.3565  0.3743
16508SOL    HW150367   1.613   3.360   1.112 -1.6602  0.1794  0.0320
16508SOL    HW250368   1.569   3.504   1.125  0.4272  0.8415  0.0358
16509SOL     OW50369   3.608   1.930   6.587  0.0663  0.5194 -0.1596
16509SOL    HW150370   3.589   2.024   6.584  0.2294  0.5754  0.5034
16509SOL    HW250371   3.630   1.908   6.496  1.0080  1.3253 -0.1448
16510SOL     OW50372   6.485   0.334   5.283  0.5202 -0.5593 -0.0396
16510SOL    HW150373   6.477   0.287   5.365 -0.0491  1.7315  1.3143
16510SOL    HW250374   6.451   0.422   5.302  3.8508  1.2676 -1.6260
16511SOL     OW50375   0.725   6.863   2.742  0.7946 -0.1214  0.1265
16511SOL    HW150376   0.780   6.798   2.699  1.0750  0.4147 -0.3506
16511SOL    HW250377   0.690   6.916   2.670  0.9320  0.5290  0.5242
16512SOL     OW50378   5.017   1.225   4.819  0.6632  0.5232 -0.3118
16512SOL    HW150379   5.020   1.296   4.755  0.7776  0.3081 -0.5472
16512SOL    HW250380   5.008   1.145   4.766  0.4662  0.3669 -0.0470
16513SOL     OW50381   6.938   1.525   1.698 -0.2986 -0.2619 -0.1190
16513SOL    HW150382   6.957   1.599   1.641 -0.1852  0.6493  1.0696
16513SOL    HW250383   6.866   1.555   1.753 -2.3573 -2.1137 -1.6220
16514SOL     OW50384   6.803   4.492   2.430 -0.3040  0.2003 -0.0620
16514SOL    HW150385   6.898   4.483   2.429 -0.1919  1.1695  0.6680
16514SOL    HW250386   6.770   4.402   2.433  0.5862 -0.1378 -0.3045
16515SOL     OW50387   6.934   8.191   1.824 -0.2509  0.2504  0.5755
16515SOL    HW150388   6.895   8.137   1.756  2.1106 -0.0298 -0.6693
16515SOL    HW250389   6.880   8.175   1.902 -1.6246 -1.2577 -0.6220
16516SOL     OW50390   5.460   4.955   5.567  0.6488  0.2081  0.3004
16516SOL    HW150391   5.402   4.933   5.640 -1.0580 -0.5334 -1.2218
16516SOL    HW250392   5.407   5.010   5.509  2.4985  2.1813  0.3595
16517SOL     OW50393   4.248   5.776   1.049  0.1764 -0.8514 -0.1385
16517SOL    HW150394   4.215   5.854   1.003  1.5417  0.2556  0.6919
16517SOL    HW250395   4.268   5.807   1.137  0.5591 -2.2148  0.2790
16518SOL     OW50396   3.458   0.410   4.421  0.5733  0.4372 -0.1621
16518SOL    HW150397   3.494   0.322   4.419  1.3736  0.7551 -0.8846
16518SOL    HW250398   3.363   0.399   4.412  0.7761 -0.3012 -1.7399
16519SOL     OW50399   8.178   4.824   1.266  0.4221 -0.0718 -0.5590
16519SOL    HW150400   8.252   4.776   1.302 -2.0497 -0.5584  5.0554
16519SOL    HW250401   8.122   4.757   1.226  0.9714 -0.4646 -0.6681
16520SOL     OW50402   8.172   5.632   0.052 -0.5052 -0.8902 -0.6272
16520SOL    HW150403   8.204   5.542   0.046  0.4668 -0.4817 -3.0164
16520SOL    HW250404   8.247   5.682   0.083 -0.9457 -0.8388  0.3780
16521SOL     OW50405   5.126   2.633   0.933 -0.3547 -0.0888  0.3356
16521SOL    HW150406   5.100   2.563   0.993  0.6707 -2.7963 -2.1640
16521SOL    HW250407   5.214   2.658   0.963  0.0835 -1.3001  0.1227
16522SOL     OW50408   7.781   3.768   0.862 -0.2318 -0.5469  0.5876
16522SOL    HW150409   7.862   3.739   0.905  0.1766 -2.2891 -1.2313
16522SOL    HW250410   7.734   3.817   0.930  1.7509 -0.5956  2.0665
16523SOL     OW50411   0.608   1.503   6.400 -0.3552  0.3889  0.4635
16523SOL    HW150412   0.519   1.508   6.366 -0.3089 -2.3195 -0.3335
16523SOL    HW250413   0.606   1.430   6.463  1.1024  0.8721  1.1290
16524SOL     OW50414   3.744   7.961   1.315  0.4955  0.1359  0.1317
16524SOL    HW150415   3.829   7.997   1.342  0.1090 -0.2149  1.8858
16524SOL    HW250416   3.739   7.983   1.222  2.0261  1.1216  0.2274
16525SOL     OW50417   6.342   5.296   0.391 -0.0433 -0.2481 -0.2330
16525SOL    HW150418   6.305   5.356   0.455 -0.6249  0.4410 -1.1910
16525SOL    HW250419   6.282   5.222   0.390 -0.3120 -0.0312 -0.3411
16526SOL     OW50420   5.892   6.088   4.704  0.2888 -0.5329  0.6811
16526SOL    HW150421   5.852   6.071   4.619  2.6893 -0.4713 -0.5577
16526SOL    HW250422   5.823   6.128   4.756 -0.7547  1.2317 -1.8909
16527SOL     OW50423   2.000   3.808   3.424 -0.0255  0.2509 -0.3709
16527SOL    HW150424   2.055   3.874   3.382  0.7435  0.8229  1.4401
16527SOL    HW250425   1.915   3.817   3.382  0.0509  2.4557 -0.1520
16528SOL     OW50426   0.985   2.774   2.591 -0.2914 -0.7496 -0.6733
16528SOL    HW150427   0.906   2.828   2.596 -0.1886 -0.4124 -2.2431
16528SOL    HW250428   1.054   2.834   2.565  0.0121 -1.4636 -1.5615
16529SOL     OW50429   5.312   8.092   1.304  0.0594 -0.2519 -0.1400
16529SOL    HW150430   5.369   8.128   1.235  0.1260 -0.6271 -0.2788
16529SOL    HW250431   5.225   8.094   1.265  0.0996 -0.4809 -0.2408
16530SOL     OW50432   4.866   4.719   4.956 -0.2106 -0.1018 -0.2439
16530SOL    HW150433   4.888   4.794   5.011  0.1756 -0.6442  0.3526
16530SOL    HW250434   4.948   4.672   4.945 -0.4528 -0.4550 -0.5842
16531SOL     OW50435   1.922   4.394   6.318  0.2057 -0.0891  0.6138
16531SOL    HW150436   1.937   4.488   6.331  1.5590  0.0522 -1.4538
16531SOL    HW250437   1.829   4.388   6.294  0.3058  0.8603 -0.0836
16532SOL     OW50438   6.811   2.708   2.332 -0.9834  0.1472  0.0114
16532SOL    HW150439   6.901   2.742   2.334 -0.2784 -1.4600 -1.6413
16532SOL    HW250440   6.756   2.783   2.356  0.7681  1.1906  0.9916
16533SOL     OW50441   6.946   2.354   1.126 -0.4194  0.2881 -0.2017
16533SOL    HW150442   6.853   2.336   1.136 -0.8707  1.4177 -1.9079
16533SOL    HW250443   6.956   2.446   1.151  0.0215  0.4923 -1.0706
16534SOL     OW50444   0.920   4.249   2.896  0.8891  0.4088 -0.3500
16534SOL    HW150445   0.935   4.253   2.991  1.2823 -2.3134 -0.2106
16534SOL    HW250446   0.827   4.230   2.887  0.2494  3.3333 -0.6817
16535SOL     OW50447   1.032   5.807   0.083  0.7318 -0.3379  0.1463
16535SOL    HW150448   1.013   5.715   0.102  0.4642 -0.4231 -0.5107
16535SOL    HW250449   1.102   5.804   0.018  0.1929 -0.0962 -0.4568
16536SOL     OW50450   4.385   1.339   5.690 -0.3073 -0.2219  0.7296
16536SOL    HW150451   4.373   1.412   5.628  2.1799  0.2732  0.6913
16536SOL    HW250452   4.341   1.265   5.648  0.3788  0.3606 -1.1545
16537SOL     OW50453   3.087   2.477   8.176  0.3267 -0.1568 -0.1285
16537SOL    HW150454   3.147   2.424   8.123  2.2562 -0.9119  2.5830
16537SOL    HW250455   3.119   2.567   8.167  1.6479 -0.4941  0.9293
16538SOL     OW50456   6.650   1.894   7.942  0.0270  0.2686 -0.6600
16538SOL    HW150457   6.636   1.926   7.853  2.4202 -1.8643 -1.9472
16538SOL    HW250458   6.622   1.803   7.940  4.0646 -1.1713 -0.6353
16539SOL     OW50459   1.598   5.939   6.074  0.1952  0.3412  0.3435
16539SOL    HW150460   1.564   5.892   6.151 -1.2472  1.8846  0.6942
16539SOL    HW250461   1.689   5.957   6.096 -0.4686  1.7279  2.2198
16540SOL     OW50462   4.829   4.779   2.430 -0.0885 -0.9071 -0.5819
16540SOL    HW150463   4.911   4.738   2.456  0.1493 -0.2319 -0.2690
16540SOL    HW250464   4.796   4.821   2.509 -1.0451 -1.6652 -0.5467
16541SOL     OW50465   1.966   7.395   5.456  0.0245 -0.0058 -0.5498
16541SOL    HW150466   1.907   7.334   5.412  0.0453  0.2043 -0.8774
16541SOL    HW250467   2.050   7.349   5.460  0.1259  0.1187 -1.0922
16542SOL     OW50468   7.294   6.924   6.615 -0.1862  0.6093 -0.0339
16542SOL    HW150469   7.263   6.960   6.532 -0.8354  0.8235  0.2997
16542SOL    HW250470   7.215   6.898   6.661  0.2480 -1.3396 -0.2973
16543SOL     OW50471   5.548   7.203   0.589 -0.2289  0.0419  0.2246
16543SOL    HW150472   5.562   7.249   0.672  2.2935 -0.8845  0.4375
16543SOL    HW250473   5.635   7.201   0.548 -0.7741 -2.0820 -1.0281
16544SOL     OW50474   2.310   6.109   4.656 -0.0168  0.2174 -0.1338
16544SOL    HW150475   2.237   6.106   4.595 -0.9187 -4.5513  0.7698
16544SOL    HW250476   2.280   6.165   4.727 -1.5742  0.6611 -1.0955
16545SOL     OW50477   0.504   6.207   3.218  0.0427 -0.2856  0.3274
16545SOL    HW150478   0.496   6.246   3.131 -1.1085 -0.4200  0.3562
16545SOL    HW250479   0.593   6.172   3.221 -0.4182 -1.7338 -1.4018
16546SOL     OW50480   5.415   2.567   1.008  0.5336  0.1248 -0.2932
16546SOL    HW150481   5.395   2.624   1.082  0.6731  3.3190 -2.5237
16546SOL    HW250482   5.502   2.596   0.979  0.0560 -0.3447 -2.2893
16547SOL     OW50483   3.243   7.517   2.866  0.3768 -0.0194  0.6947
16547SOL    HW150484   3.325   7.527   2.915  1.6097 -2.7420 -0.6118
16547SOL    HW250485   3.220   7.425   2.876  0.0173 -0.4177 -2.6722
16548SOL     OW50486   2.843   2.980   6.254 -0.2026  0.1609  0.0198
16548SOL    HW150487   2.914   3.044   6.259 -0.3108  0.2272  0.8662
16548SOL    HW250488   2.865   2.915   6.320 -0.1324 -0.6570 -0.7885
16549SOL     OW50489   4.142   5.415   0.612  0.6860 -1.2188  0.4648
16549SOL    HW150490   4.223   5.465   0.604 -0.3679  0.3660 -1.1983
16549SOL    HW250491   4.114   5.400   0.521 -1.1905 -1.1695  0.9908
16550SOL     OW50492   2.046   5.500   5.315 -0.0249 -0.8343 -0.1476
16550SOL    HW150493   2.132   5.535   5.290 -0.3280 -0.4078 -0.6370
16550SOL    HW250494   1.986   5.574   5.303 -0.2184 -0.6424  1.7669
16551SOL     OW50495   1.482   0.615   4.993  0.6022 -0.3012 -0.1288
16551SOL    HW150496   1.425   0.551   5.036 -0.2704  0.7565  0.3514
16551SOL    HW250497   1.451   0.700   5.026  3.3687  0.2765  1.2996
16552SOL     OW50498   6.045   4.101   2.899  0.2553  0.5356  0.0816
16552SOL    HW150499   6.122   4.140   2.941 -0.4993  1.1177  0.9824
16552SOL    HW250500   6.057   4.007   2.909 -0.4468  0.6427  2.7782
16553SOL     OW50501   7.011   3.126   5.208 -0.2650  0.4497  0.2293
16553SOL    HW150502   6.959   3.113   5.288 -1.0154  2.3337  0.0961
16553SOL    HW250503   6.953   3.096   5.138 -0.0123 -0.2125  0.2955
16554SOL     OW50504   1.935   2.393   7.530  0.6220  0.0893 -0.2515
16554SOL    HW150505   1.979   2.365   7.610 -1.8845 -0.7487  0.9557
16554SOL    HW250506   1.949   2.488   7.528  1.6424 -0.0172  0.5762
16555SOL     OW50507   3.316   3.252   7.476  0.0616 -0.3926 -0.2232
16555SOL    HW150508   3.321   3.346   7.465  1.1984 -0.3895  0.1201
16555SOL    HW250509   3.249   3.238   7.543  0.0460  0.1885 -0.1185
16556SOL     OW50510   5.920   1.750   3.821  0.0604 -0.5531  0.0656
16556SOL    HW150511   5.882   1.834   3.796 -0.1087 -0.4378  0.6956
16556SOL    HW250512   5.849   1.704   3.867  0.3926 -0.7151  0.4217
16557SOL     OW50513   4.213   4.144   6.186  0.1987 -0.5199 -0.6388
16557SOL    HW150514   4.146   4.204   6.153  2.4965  3.2627  0.9738
16557SOL    HW250515   4.288   4.157   6.127  1.9417  1.0504  1.7442
16558SOL     OW50516   6.937   0.074   4.906 -0.2055  0.4749  0.3001
16558SOL    HW150517   6.876   0.115   4.845 -2.5211  0.9214  2.7009
16558SOL    HW250518   7.023   0.103   4.877 -1.2542  1.5171 -2.0591
16559SOL     OW50519   6.098   5.863   1.730 -0.5121  0.4310  0.0472
16559SOL    HW150520   6.169   5.813   1.771 -1.3199 -0.6019  0.2128
16559SOL    HW250521   6.097   5.832   1.639  0.5582  1.9224 -0.5094
16560SOL     OW50522   3.822   8.136   3.230  0.4756  0.3666 -0.3564
16560SOL    HW150523   3.812   8.139   3.135 -0.6065  1.3656 -0.2403
16560SOL    HW250524   3.776   8.057   3.257 -0.4304  0.8021 -0.5644
16561SOL     OW50525   0.373   5.234   4.636 -0.3177  0.4241 -0.4667
16561SOL    HW150526   0.444   5.293   4.663  0.5617 -0.7327 -0.1743
16561SOL    HW250527   0.312   5.234   4.710  0.1482  0.2508 -0.0826
16562SOL     OW50528   1.231   3.728   4.621 -0.0649  0.2561  0.2906
16562SOL    HW150529   1.320   3.756   4.599 -0.4796  0.7682 -0.8327
16562SOL    HW250530   1.182   3.740   4.540 -0.7675 -1.7403  0.3806
16563SOL     OW50531   3.453   8.032   7.927 -0.0560  0.1142  0.0506
16563SOL    HW150532   3.411   7.947   7.914 -2.0008  1.2162 -1.4445
16563SOL    HW250533   3.546   8.016   7.910 -0.4858 -1.5499 -0.9797
16564SOL     OW50534   5.793   4.558   1.564 -0.1343  0.8310 -0.1904
16564SOL    HW150535   5.710   4.586   1.603  0.0279  0.4853  0.4089
16564SOL    HW250536   5.767   4.505   1.488 -0.4577  0.9254 -0.1480
16565SOL     OW50537   3.715   5.473   5.305 -0.1781  0.3365  0.3960
16565SOL    HW150538   3.794   5.486   5.357 -0.8700  2.4565  0.9924
16565SOL    HW250539   3.686   5.384   5.327  1.5641 -0.1755  0.7607
16566SOL     OW50540   5.277   5.364   4.574 -0.0108  0.1447 -0.0302
16566SOL    HW150541   5.353   5.360   4.516  0.1915  0.5763  0.1956
16566SOL    HW250542   5.207   5.322   4.525  0.4114 -0.3967 -0.1799
16567SOL     OW50543   3.204   4.525   0.623  0.2504  0.1031 -0.2960
16567SOL    HW150544   3.186   4.515   0.530 -0.9949 -0.1618 -0.0516
16567SOL    HW250545   3.145   4.463   0.666  0.1847  0.8248  0.7062
16568SOL     OW50546   0.957   7.849   4.490 -0.1539  0.3258  0.4442
16568SOL    HW150547   1.038   7.901   4.489 -0.4259  0.7512 -0.3771
16568SOL    HW250548   0.895   7.903   4.539 -0.1506  0.3259  0.4482
16569SOL     OW50549   2.091   0.412   5.350 -0.4983  0.0338  0.2104
16569SOL    HW150550   2.168   0.407   5.294 -0.6486 -0.9759  0.0743
16569SOL    HW250551   2.019   0.434   5.291 -0.5523 -0.4190  0.1076
16570SOL     OW50552   0.609   0.562   7.567 -0.3904 -0.5514  0.3301
16570SOL    HW150553   0.685   0.616   7.587 -0.0279 -1.0037  0.1951
16570SOL    HW250554   0.558   0.560   7.648 -1.2653  1.3186 -0.0997
16571SOL     OW50555   1.187   5.196   4.857  0.3778 -0.3051  0.0119
16571SOL    HW150556   1.096   5.220   4.836  0.3664 -1.2654 -1.1430
16571SOL    HW250557   1.224   5.167   4.774  0.9076 -2.5769  0.9631
16572SOL     OW50558   6.440   4.845   4.768 -0.3594  0.2132  0.3512
16572SOL    HW150559   6.507   4.886   4.822  1.7513  0.1484 -2.0623
16572SOL    HW250560   6.433   4.756   4.802 -0.6646  0.7650  1.8248
16573SOL     OW50561   1.047   1.189   0.123 -0.0434 -0.0382  0.3196
16573SOL    HW150562   0.962   1.149   0.104 -0.1079 -0.3502  1.2084
16573SOL    HW250563   1.111   1.122   0.099 -0.0888 -0.1210  0.4261
16574SOL     OW50564   1.990   2.381   0.543  0.0560 -0.3143  0.1807
16574SOL    HW150565   1.964   2.318   0.476  0.4626  0.1733 -0.4489
16574SOL    HW250566   1.912   2.390   0.598 -0.7761  0.2901 -1.0331
16575SOL     OW50567   5.629   7.549   6.029  0.5944  0.0501 -0.5260
16575SOL    HW150568   5.638   7.531   6.122 -0.3183 -1.1248 -0.6352
16575SOL    HW250569   5.702   7.502   5.988  0.6677  0.0959 -0.4464
16576SOL     OW50570   6.539   1.104   5.941  0.5755  0.4426  0.0554
16576SOL    HW150571   6.539   1.156   6.021 -0.4863 -0.0265  0.3893
16576SOL    HW250572   6.448   1.111   5.909  1.0456  0.8449 -1.2559
16577SOL     OW50573   7.814   2.380   7.570 -0.6066 -0.3065 -0.0236
16577SOL    HW150574   7.755   2.326   7.517 -2.2329  1.2755  0.0558
16577SOL    HW250575   7.900   2.365   7.533 -1.6032  0.3303 -2.8419
16578SOL     OW50576   1.946   0.602   6.515 -0.1516 -0.9393  0.0064
16578SOL    HW150577   1.996   0.530   6.553 -0.8436 -1.8363 -0.7266
16578SOL    HW250578   1.854   0.579   6.531 -0.3934 -0.4244 -0.5821
16579SOL     OW50579   6.698   7.472   0.946  0.2683  0.6854 -0.1152
16579SOL    HW150580   6.750   7.534   0.997 -2.1678  2.9808 -0.1733
16579SOL    HW250581   6.656   7.416   1.011  1.2170  0.1478  0.0443
16580SOL     OW50582   2.644   2.526   6.703 -0.6161  0.0018 -0.2713
16580SOL    HW150583   2.586   2.463   6.660 -0.3734  1.1844 -2.4536
16580SOL    HW250584   2.650   2.599   6.642  1.6286  0.7676  0.7594
16581SOL     OW50585   7.622   7.023   7.964  0.5516 -0.1778 -0.5057
16581SOL    HW150586   7.717   7.019   7.963  0.5929  0.4136 -2.3333
16581SOL    HW250587   7.594   6.946   7.914 -0.0207 -1.2410  1.3415
16582SOL     OW50588   2.229   2.861   4.011 -0.3939  0.0220  0.0289
16582SOL    HW150589   2.167   2.818   4.070 -0.3613  0.8089  0.6584
16582SOL    HW250590   2.206   2.954   4.015  0.1916  0.1989 -0.4981
16583SOL     OW50591   3.084   2.720   7.586  0.2320 -0.0828  0.0774
16583SOL    HW150592   3.108   2.811   7.605 -2.5405  0.6831  0.2448
16583SOL    HW250593   3.164   2.671   7.606  1.1159  2.0214  2.3745
16584SOL     OW50594   2.020   4.280   2.094  0.3027 -0.5311  0.4403
16584SOL    HW150595   2.116   4.280   2.095  0.3114  0.3556  0.0494
16584SOL    HW250596   1.997   4.198   2.049  0.8974 -0.0503 -0.7712
16585SOL     OW50597   2.211   1.251   4.932  0.3223 -0.0954  0.1625
16585SOL    HW150598   2.157   1.325   4.905 -0.3799 -0.8587 -0.5860
16585SOL    HW250599   2.149   1.185   4.963  0.9610 -0.2240  1.2170
16586SOL     OW50600   4.889   0.274   6.678  0.1833 -0.0066 -0.2211
16586SOL    HW150601   4.909   0.229   6.596  0.2304  0.9123 -0.7257
16586SOL    HW250602   4.850   0.207   6.734  1.6894 -1.0497 -0.3770
16587SOL     OW50603   1.983   0.128   2.890 -0.2783 -0.3249  0.0306
16587SOL    HW150604   2.064   0.080   2.871  0.7814  0.9598  1.1138
16587SOL    HW250605   1.977   0.192   2.819 -0.9539 -1.1149 -0.6483
16588SOL     OW50606   7.232   3.455   1.863  0.3748 -0.3691  0.5189
16588SOL    HW150607   7.292   3.393   1.904  0.3700 -1.2479 -0.7378
16588SOL    HW250608   7.223   3.423   1.773 -2.1617 -0.3877  0.7248
16589SOL     OW50609   1.601   7.001   2.548  0.0134  0.3446 -0.3083
16589SOL    HW150610   1.618   6.973   2.458  0.8155  0.5214 -0.2135
16589SOL    HW250611   1.560   7.087   2.540 -1.4330 -0.3447 -0.5589
16590SOL     OW50612   3.258   0.513   0.124  0.0447 -0.9888  0.2754
16590SOL    HW150613   3.207   0.449   0.074  0.4980 -1.3732  0.2932
16590SOL    HW250614   3.304   0.460   0.190 -0.0090 -0.5751  0.6550
16591SOL     OW50615   7.277   0.909   4.773  0.1741 -0.8940 -0.0798
16591SOL    HW150616   7.243   0.999   4.769  0.7867 -0.6884 -0.8148
16591SOL    HW250617   7.239   0.866   4.696 -2.0144 -1.9771  1.4683
16592SOL     OW50618   2.457   4.157   6.471 -0.2034  0.0279  0.1422
16592SOL    HW150619   2.439   4.077   6.521 -1.0060  1.6954  2.7530
16592SOL    HW250620   2.430   4.136   6.382 -0.7272 -2.4881  0.8121
16593SOL     OW50621   6.464   3.496   0.113  0.2573 -0.0597 -0.2598
16593SOL    HW150622   6.385   3.523   0.160  0.4009 -0.9571  0.5276
16593SOL    HW250623   6.516   3.576   0.107 -0.2435  0.3092  0.1639
16594SOL     OW50624   4.479   4.816   0.094 -0.2532  0.5783 -0.4430
16594SOL    HW150625   4.419   4.777   0.157  0.0005 -0.3667 -0.7724
16594SOL    HW250626   4.436   4.803   0.009  0.3198  0.0617 -0.6611
16595SOL     OW50627   6.118   2.628   2.038 -0.8716 -0.2789 -0.5360
16595SOL    HW150628   6.024   2.618   2.053 -0.5992 -1.3780  0.5796
16595SOL    HW250629   6.159   2.580   2.110  0.5567  1.3551 -0.1807
16596SOL     OW50630   2.184   6.043   4.022  0.5662 -0.3423  0.1131
16596SOL    HW150631   2.142   6.127   4.039  0.1675 -0.5452  0.1357
16596SOL    HW250632   2.215   6.013   4.107  0.6104 -0.2717  0.1214
16597SOL     OW50633   4.720   7.700   6.495  0.1244  0.2135 -0.2840
16597SOL    HW150634   4.750   7.728   6.409  1.0134 -0.6054 -0.2529
16597SOL    HW250635   4.645   7.643   6.477 -0.2608  0.7654 -0.4563
16598SOL     OW50636   5.654   7.747   2.733  0.7503 -0.3339  0.0736
16598SOL    HW150637   5.641   7.768   2.826  1.8408 -0.6411  0.3111
16598SOL    HW250638   5.743   7.712   2.729  0.0610 -2.0719 -0.8036
16599SOL     OW50639   7.943   0.687   1.083  0.2878 -0.7228 -0.1160
16599SOL    HW150640   7.957   0.634   1.004  1.4128  1.4284 -1.4978
16599SOL    HW250641   7.855   0.723   1.073  0.5034 -0.2934 -0.5315
16600SOL     OW50642   0.660   7.380   5.969 -0.1568 -0.0269 -0.0187
16600SOL    HW150643   0.604   7.351   6.041 -1.7482  0.4680 -1.0152
16600SOL    HW250644   0.716   7.447   6.009 -1.4161  0.6715  0.6599
16601SOL     OW50645   1.003   3.164   0.459 -0.2508  0.3367 -0.7615
16601SOL    HW150646   0.978   3.239   0.512 -1.0869  0.7246 -1.6734
16601SOL    HW250647   0.946   3.093   0.489 -1.1646  0.7249 -1.5672
16602SOL     OW50648   5.061   4.502   6.309 -0.4529 -0.1947 -0.2053
16602SOL    HW150649   4.995   4.452   6.357 -0.7252 -0.1079 -0.4824
16602SOL    HW250650   5.088   4.445   6.238  1.2086 -1.0072  1.0181
16603SOL     OW50651   5.048   1.465   5.815  0.5825  0.5107 -0.3548
16603SOL    HW150652   5.132   1.423   5.798  0.6292 -0.1475  1.3409
16603SOL    HW250653   5.055   1.496   5.905 -0.5219  1.6131 -0.6313
16604SOL     OW50654   5.493   4.211   0.504 -0.0850 -0.3238  0.1073
16604SOL    HW150655   5.401   4.193   0.527 -0.9992  2.3939 -1.0235
16604SOL    HW250656   5.499   4.190   0.411  0.3637 -0.2201  0.1117
16605SOL     OW50657   5.053   6.997   3.985  0.6004 -0.4802 -0.3587
16605SOL    HW150658   5.015   6.909   3.987  3.9742 -2.0759  1.7955
16605SOL    HW250659   5.135   6.986   3.937  0.8992  1.6545 -0.4320
16606SOL     OW50660   3.756   0.151   4.878  0.6881 -0.0551 -0.1491
16606SOL    HW150661   3.752   0.059   4.853  0.5829 -0.2325  0.5108
16606SOL    HW250662   3.665   0.177   4.889  0.7440 -0.0783  0.3938
16607SOL     OW50663   1.245   4.431   1.777 -0.3972  0.1473  0.4615
16607SOL    HW150664   1.230   4.500   1.842 -0.5976  1.2274 -0.6757
16607SOL    HW250665   1.334   4.448   1.745  0.2862 -1.3074  1.4919
16608SOL     OW50666   6.693   7.754   4.473  0.5579 -0.5309 -0.3277
16608SOL    HW150667   6.754   7.789   4.408  1.6161 -1.5539  0.0893
16608SOL    HW250668   6.632   7.700   4.421  1.8884 -2.0096 -0.4352
16609SOL     OW50669   2.010   6.341   4.545  0.2583 -0.6177  0.1520
16609SOL    HW150670   1.940   6.317   4.485  0.1897  2.7124 -1.3365
16609SOL    HW250671   1.974   6.413   4.596  1.6824 -0.7229  1.3806
16610SOL     OW50672   5.290   1.137   5.958 -0.4601 -0.2420 -0.1530
16610SOL    HW150673   5.384   1.143   5.973 -0.7469  0.3464  1.6653
16610SOL    HW250674   5.256   1.095   6.037 -1.9419  1.3242  0.0921
16611SOL     OW50675   2.772   5.836   4.153 -0.6938 -0.2258  0.4231
16611SOL    HW150676   2.677   5.847   4.155 -0.9238 -1.8981  0.7237
16611SOL    HW250677   2.793   5.822   4.061 -0.7435  0.1629  0.3542
16612SOL     OW50678   4.951   0.967   8.091 -0.0473  0.2739 -0.0454
16612SOL    HW150679   4.968   0.873   8.090  0.8322  0.4314 -0.1253
16612SOL    HW250680   5.022   1.004   8.142 -0.3341  0.9117 -0.1043
16613SOL     OW50681   5.921   0.725   8.086  0.1219 -0.4709 -0.3574
16613SOL    HW150682   5.954   0.644   8.048  0.0641 -0.7384  0.1662
16613SOL    HW250683   5.970   0.794   8.041  0.8705 -0.8352 -0.1073
16614SOL     OW50684   5.977   3.754   6.944 -0.0439 -0.2666  0.4960
16614SOL    HW150685   5.937   3.798   6.869  1.4103  0.2569 -0.0118
16614SOL    HW250686   5.914   3.764   7.014 -0.6185  0.8916 -0.1594
16615SOL     OW50687   7.633   6.488   6.800 -0.5661  0.3541 -0.3177
16615SOL    HW150688   7.634   6.520   6.710  0.3395  0.5481 -0.2464
16615SOL    HW250689   7.722   6.458   6.816 -0.4940  1.1103  0.7919
16616SOL     OW50690   4.808   2.545   6.685  0.2342  0.1240  0.0039
16616SOL    HW150691   4.867   2.604   6.732  0.4873 -0.7692  0.8512
16616SOL    HW250692   4.745   2.516   6.751 -1.4769  1.4262 -0.9887
16617SOL     OW50693   1.172   1.263   4.177 -0.2594 -0.1376 -0.0035
16617SOL    HW150694   1.256   1.219   4.189 -0.0502  0.0688 -0.6317
16617SOL    HW250695   1.115   1.198   4.137 -0.4328 -0.3091  0.5183
16618SOL     OW50696   2.662   0.401   0.777  0.2747  0.0972  0.3141
16618SOL    HW150697   2.645   0.309   0.759  0.4596 -0.2693  1.8853
16618SOL    HW250698   2.580   0.445   0.758  0.4960 -0.1873 -1.5449
16619SOL     OW50699   6.103   0.450   4.734  0.3047  0.0159 -0.3425
16619SOL    HW150700   6.108   0.399   4.653 -2.0527 -1.0764  0.1033
16619SOL    HW250701   6.111   0.385   4.804 -0.8849  0.4835  0.2523
16620SOL     OW50702   6.220   3.702   3.390  0.4524 -0.3639  0.2836
16620SOL    HW150703   6.207   3.796   3.383 -0.5125 -0.4891  0.1646
16620SOL    HW250704   6.210   3.683   3.484  0.9978 -0.3007  0.3538
16621SOL     OW50705   7.127   3.762   3.009 -0.5627 -0.5670  0.4333
16621SOL    HW150706   7.192   3.759   2.939 -1.7292  0.1935 -0.7335
16621SOL    HW250707   7.175   3.796   3.085  0.3992  0.0234 -0.4135
16622SOL     OW50708   4.722   2.650   6.041  0.0254 -0.1486  0.1920
16622SOL    HW150709   4.789   2.714   6.066 -0.2188  0.0138  0.4373
16622SOL    HW250710   4.647   2.703   6.017 -0.2653 -0.3478  0.6491
16623SOL     OW50711   7.451   5.828   2.448 -0.2471 -0.8384  0.2067
16623SOL    HW150712   7.453   5.754   2.509  1.4604 -0.6254  0.4513
16623SOL    HW250713   7.492   5.794   2.368  0.4685 -0.2053  0.2919
16624SOL     OW50714   1.020   1.965   7.598 -0.2018 -0.0536 -0.1659
16624SOL    HW150715   1.035   1.896   7.662  0.3923  0.0100 -0.2316
16624SOL    HW250716   0.967   1.924   7.530  0.4369 -0.5528 -0.3782
16625SOL     OW50717   4.222   6.562   7.623  0.5970 -0.5420  0.1390
16625SOL    HW150718   4.142   6.565   7.570  0.9838  0.5983 -0.4187
16625SOL    HW250719   4.193   6.591   7.710  0.5786  1.0200 -0.3469
16626SOL     OW50720   4.897   6.799   2.368  0.2852 -1.4073 -0.0310
16626SOL    HW150721   4.907   6.862   2.439  1.7339 -0.8460 -0.6886
16626SOL    HW250722   4.970   6.737   2.379 -0.2976 -2.1449 -0.2099
16627SOL     OW50723   6.988   2.765   0.669 -0.5495  0.3711  0.0600
16627SOL    HW150724   7.035   2.699   0.618  0.2289  1.3412 -0.5164
16627SOL    HW250725   6.924   2.802   0.609 -1.8450 -0.6686  0.7328
16628SOL     OW50726   4.787   2.888   1.352 -0.2748  0.1707  0.0812
16628SOL    HW150727   4.777   2.967   1.405  0.3385  0.1477  0.2411
16628SOL    HW250728   4.720   2.828   1.385 -0.2579  0.3569  0.4562
16629SOL     OW50729   2.814   0.197   0.527 -0.1950 -0.1203 -0.2616
16629SOL    HW150730   2.785   0.164   0.613 -1.4645 -0.7131 -0.8886
16629SOL    HW250731   2.822   0.118   0.473  1.9486  0.0959 -0.3399
16630SOL     OW50732   6.045   0.941   6.657 -0.6613 -0.3109  0.1145
16630SOL    HW150733   6.076   1.015   6.606  0.4565 -0.7080  0.1915
16630SOL    HW250734   5.949   0.951   6.658 -0.4849  1.9916  1.4408
16631SOL     OW50735   7.174   7.433   4.910  0.2684  0.7368  0.7018
16631SOL    HW150736   7.237   7.446   4.840 -1.1142  0.7632 -0.5873
16631SOL    HW250737   7.159   7.520   4.946  3.2026  0.4160  3.1688
16632SOL     OW50738   1.979   4.950   6.827 -0.4439 -0.3237 -0.0992
16632SOL    HW150739   1.956   4.890   6.899  2.2150 -2.2806 -0.7286
16632SOL    HW250740   2.068   4.977   6.846 -0.1355  0.1234 -2.0302
16633SOL     OW50741   2.776   7.238   6.986  0.5724  0.4699 -0.3036
16633SOL    HW150742   2.794   7.219   7.078  0.1743  0.7693 -0.1587
16633SOL    HW250743   2.698   7.294   6.988  1.1096  1.2628 -0.7621
16634SOL     OW50744   2.071   1.384   2.194  0.0322 -0.5972  0.6528
16634SOL    HW150745   2.065   1.416   2.284  1.1979  2.3316 -0.1941
16634SOL    HW250746   2.160   1.349   2.187 -0.4718 -2.0049  0.9278
16635SOL     OW50747   6.107   0.079   1.145 -0.1008 -0.2931 -0.1133
16635SOL    HW150748   6.094  -0.002   1.194  0.7597  0.5277  1.5525
16635SOL    HW250749   6.020   0.120   1.145 -0.7958 -1.6195 -1.8545
16636SOL     OW50750   0.598   7.031   1.875 -0.3880 -0.0478  0.0683
16636SOL    HW150751   0.625   7.054   1.786 -1.1898 -0.1973 -0.2207
16636SOL    HW250752   0.663   6.967   1.904 -0.2014 -0.0997 -0.4530
16637SOL     OW50753   5.299   1.922   3.800 -0.9180  0.1773 -0.5920
16637SOL    HW150754   5.392   1.900   3.793 -1.4087 -1.9441 -1.2778
16637SOL    HW250755   5.262   1.896   3.715 -2.5612 -1.5919  0.5753
16638SOL     OW50756   7.329   1.024   2.931 -0.2641 -1.0372 -0.7661
16638SOL    HW150757   7.327   0.979   2.847 -0.8516 -1.9174 -0.2951
16638SOL    HW250758   7.264   0.979   2.985 -0.9699  0.4592 -0.2992
16639SOL     OW50759   5.525   3.814   1.406  0.0249 -0.3399 -0.1142
16639SOL    HW150760   5.556   3.754   1.474 -0.8674 -0.4981  0.1645
16639SOL    HW250761   5.533   3.764   1.325 -1.9089 -1.3417  0.2540
16640SOL     OW50762   0.910   6.750   6.743 -0.0201 -0.3215  0.0972
16640SOL    HW150763   0.877   6.661   6.746  0.0161 -0.4048 -1.2935
16640SOL    HW250764   0.840   6.801   6.703  1.1677 -0.3825 -2.2492
16641SOL     OW50765   6.272   5.000   4.591  0.4041  0.5177 -0.3934
16641SOL    HW150766   6.202   4.935   4.584 -0.5249  1.5462 -0.8503
16641SOL    HW250767   6.337   4.958   4.648  0.2642 -1.1679 -1.3961
16642SOL     OW50768   2.720   0.548   7.133  0.0051 -0.3751  0.0483
16642SOL    HW150769   2.805   0.547   7.177 -0.2618 -0.5946  0.5637
16642SOL    HW250770   2.734   0.494   7.055  0.2178 -0.7728  0.3589
16643SOL     OW50771   3.435   3.048   5.050 -0.5565 -0.1773  0.3993
16643SOL    HW150772   3.506   3.012   5.104 -0.4999 -1.8363 -0.7077
16643SOL    HW250773   3.371   2.977   5.044 -0.8331  0.1643 -1.2206
16644SOL     OW50774   1.686   1.425   1.740 -0.1647 -0.0731 -0.2594
16644SOL    HW150775   1.773   1.449   1.708  0.2715 -2.7371 -1.3140
16644SOL    HW250776   1.684   1.329   1.735 -2.5852 -0.1909  1.3148
16645SOL     OW50777   2.891   4.584   3.459  0.2085 -0.2592  0.4929
16645SOL    HW150778   2.955   4.638   3.506  0.8858 -1.9875  1.6257
16645SOL    HW250779   2.864   4.639   3.385  1.8809  1.0968  0.8238
16646SOL     OW50780   3.487   5.815   0.931 -0.2665 -0.2666 -0.2765
16646SOL    HW150781   3.512   5.906   0.947  1.7022 -0.6671 -0.8092
16646SOL    HW250782   3.399   5.821   0.892 -0.0512  1.4210 -0.5934
16647SOL     OW50783   0.832   6.457   7.048  0.2336 -0.0873  0.1535
16647SOL    HW150784   0.815   6.525   7.113 -0.6754 -0.7334  0.6259
16647SOL    HW250785   0.920   6.425   7.069  0.7600  1.0815 -0.2231
16648SOL     OW50786   0.791   4.183   3.416 -0.4198 -0.6733 -0.6189
16648SOL    HW150787   0.814   4.240   3.490 -1.4623  1.0687 -1.5714
16648SOL    HW250788   0.865   4.123   3.408 -0.8909 -1.9147  2.7276
16649SOL     OW50789   3.046   7.051   7.109  0.1609 -0.0319  0.1773
16649SOL    HW150790   3.079   7.016   7.192 -0.0273  1.0174  0.7221
16649SOL    HW250791   3.026   6.975   7.056 -0.0747 -0.7324  1.2447
16650SOL     OW50792   7.577   5.856   0.873 -0.4161  0.0453 -0.0298
16650SOL    HW150793   7.603   5.902   0.953 -0.8372 -1.1420  0.8100
16650SOL    HW250794   7.643   5.788   0.861 -0.8417 -0.3468 -0.1943
16651SOL     OW50795   2.419   0.475   7.545  0.0268 -0.6730 -0.3265
16651SOL    HW150796   2.432   0.444   7.456 -1.6802 -1.9946 -0.1808
16651SOL    HW250797   2.332   0.514   7.544 -0.2156 -1.1364  0.8459
16652SOL     OW50798   6.727   3.059   5.812  0.5704  0.1518 -0.5596
16652SOL    HW150799   6.812   3.022   5.837  0.4736 -0.1633 -0.6916
16652SOL    HW250800   6.721   3.043   5.718  0.2415 -0.0878 -0.5032
16653SOL     OW50801   2.337   3.795   3.483 -0.4115  0.4507 -0.2742
16653SOL    HW150802   2.333   3.718   3.427 -3.0747  0.6999 -0.5632
16653SOL    HW250803   2.254   3.794   3.531 -0.8814  3.4441 -0.8076
16654SOL     OW50804   2.798   1.055   7.706  0.8279 -0.3467  0.0346
16654SOL    HW150805   2.818   1.095   7.621 -0.3017  1.2095  0.4620
16654SOL    HW250806   2.727   0.993   7.687  0.6121 -0.0390 -0.1669
16655SOL     OW50807   2.495   6.176   4.076 -0.4166  0.6977 -0.0854
16655SOL    HW150808   2.467   6.086   4.093 -0.3492  0.8744  1.0473
16655SOL    HW250809   2.543   6.171   3.994 -0.8150 -0.2194 -0.2713
16656SOL     OW50810   3.453   7.460   1.426  0.5581 -0.1800 -0.3261
16656SOL    HW150811   3.516   7.531   1.431 -0.2622  0.5151  0.5521
16656SOL    HW250812   3.493   7.388   1.475  1.3276 -0.2968 -1.1014
16657SOL     OW50813   1.007   7.800   7.500 -0.4728  0.6947  0.5848
16657SOL    HW150814   0.993   7.714   7.540 -2.9888  1.1685  0.8815
16657SOL    HW250815   1.034   7.779   7.410 -3.6318 -0.5829 -0.2401
16658SOL     OW50816   4.686   7.673   4.288 -0.8464 -0.0482  0.1542
16658SOL    HW150817   4.709   7.640   4.374 -1.0009 -1.5196 -0.3469
16658SOL    HW250818   4.626   7.608   4.251 -0.0173  0.0258 -1.4387
16659SOL     OW50819   1.764   7.109   4.503 -0.0411 -0.1593 -0.9114
16659SOL    HW150820   1.686   7.056   4.519 -0.7360  1.5844  2.2183
16659SOL    HW250821   1.741   7.162   4.427 -1.5285 -0.3601 -0.6368
16660SOL     OW50822   0.346   5.999   2.132 -0.1147 -0.1249  0.1035
16660SOL    HW150823   0.352   5.928   2.068 -0.8652 -0.5791  0.5102
16660SOL    HW250824   0.254   6.027   2.127  0.1889  0.8536 -0.0868
16661SOL     OW50825   4.433   1.268   1.246 -0.0220 -0.2886 -0.1318
16661SOL    HW150826   4.408   1.309   1.163  2.1257 -0.7487 -1.0822
16661SOL    HW250827   4.350   1.251   1.291 -1.1094  2.4545 -0.9400
16662SOL     OW50828   3.179   4.781   0.812  0.7818  0.4993  0.0520
16662SOL    HW150829   3.117   4.804   0.744 -2.0949 -0.9556  1.9980
16662SOL    HW250830   3.247   4.730   0.767 -1.3721 -1.0118 -1.6535
16663SOL     OW50831   4.643   2.263   6.647 -0.6441  0.3890  0.0214
16663SOL    HW150832   4.565   2.318   6.641  0.2230  1.8917  1.5736
16663SOL    HW250833   4.642   2.230   6.736  0.6126  0.6390  0.1446
16664SOL     OW50834   6.225   6.064   3.611 -0.7011  0.1345  0.1863
16664SOL    HW150835   6.251   6.080   3.520 -1.2016 -1.0980 -0.1942
16664SOL    HW250836   6.184   5.977   3.609  1.3336 -0.9620  1.9958
16665SOL     OW50837   2.197   4.381   4.201  0.6678 -0.0780 -0.4003
16665SOL    HW150838   2.292   4.373   4.210  0.6536  1.0663  1.1989
16665SOL    HW250839   2.179   4.352   4.112  2.1817 -3.0366  0.1214
16666SOL     OW50840   2.737   4.731   6.582  0.2448 -0.4333  0.0137
16666SOL    HW150841   2.666   4.793   6.602  0.1628  0.1055 -1.6958
16666SOL    HW250842   2.696   4.645   6.589 -0.6486 -0.1293 -1.0108
16667SOL     OW50843   1.741   5.444   3.244  0.2253 -0.4421  0.3242
16667SOL    HW150844   1.692   5.510   3.195  1.2902 -0.2041 -0.4596
16667SOL    HW250845   1.752   5.371   3.183  1.1627 -0.3344  0.3392
16668SOL     OW50846   1.121   7.978   0.256  0.0318  0.2106  0.4167
16668SOL    HW150847   1.145   8.069   0.273  1.1509 -0.1932  1.1880
16668SOL    HW250848   1.114   7.971   0.161  0.4330  0.9858  0.3261
16669SOL     OW50849   5.218   2.905   6.831  0.5704  0.5118 -0.5410
16669SOL    HW150850   5.296   2.862   6.867  0.8326  0.1163 -1.5327
16669SOL    HW250851   5.188   2.962   6.901 -0.3664 -1.9602  1.2040
16670SOL     OW50852   0.927   7.174   4.325  0.1481 -0.9017  0.1719
16670SOL    HW150853   1.019   7.148   4.313  0.6257  0.6235  0.2489
16670SOL    HW250854   0.904   7.143   4.412  0.7447 -0.9066  0.3349
16671SOL     OW50855   8.093   5.480   2.092 -0.0943  0.3092  0.6159
16671SOL    HW150856   8.164   5.444   2.146  0.8835  0.2524 -0.6535
16671SOL    HW250857   8.136   5.502   2.009 -1.6354  0.0388 -0.2773
16672SOL     OW50858   1.403   4.243   6.580 -0.3555 -0.3467 -0.3829
16672SOL    HW150859   1.464   4.182   6.539  0.8580 -0.3421  1.3164
16672SOL    HW250860   1.442   4.329   6.565 -0.1452 -0.3096  0.3784
16673SOL     OW50861   3.613   6.628   6.276 -0.3026  0.1220  0.3934
16673SOL    HW150862   3.688   6.574   6.300 -0.8938 -2.0854 -2.2390
16673SOL    HW250863   3.558   6.628   6.354  2.9236  3.1113  2.9995
16674SOL     OW50864   0.344   5.538   5.329 -0.5253  0.2427  0.3158
16674SOL    HW150865   0.310   5.453   5.360  1.3917 -0.5034  0.5285
16674SOL    HW250866   0.399   5.516   5.254 -1.5132  1.5518 -0.8363
16675SOL     OW50867   4.413   0.596   7.952 -0.1347 -0.7762 -0.3766
16675SOL    HW150868   4.363   0.517   7.969  0.2857 -0.7850  0.8970
16675SOL    HW250869   4.347   0.666   7.948 -0.6667 -1.3288 -2.9184
16676SOL     OW50870   6.615   0.784   2.242  0.1211  0.3159 -0.0181
16676SOL    HW150871   6.570   0.802   2.159 -0.3783 -1.3172 -0.1400
16676SOL    HW250872   6.604   0.864   2.293 -3.9020 -0.2760  0.3944
16677SOL     OW50873   5.232   7.573   0.305 -0.2224  0.0713 -0.0434
16677SOL    HW150874   5.150   7.541   0.267 -0.7815  0.8850  0.4542
16677SOL    HW250875   5.275   7.495   0.339 -0.1100 -0.5647 -1.5585
16678SOL     OW50876   4.778   7.834   5.573  0.1120  0.3049 -0.2864
16678SOL    HW150877   4.849   7.828   5.637 -0.7417  0.0472  0.6668
16678SOL    HW250878   4.788   7.921   5.534  1.4698 -0.0613 -0.8215
16679SOL     OW50879   0.129   2.029   0.880  0.3237  0.1254  0.1367
16679SOL    HW150880   0.174   2.023   0.964  0.4700 -0.4083  0.0234
16679SOL    HW250881   0.044   2.069   0.901  1.7027  3.4369  0.0288
16680SOL     OW50882   1.837   0.335   7.263  0.5791  0.1711 -0.4661
16680SOL    HW150883   1.927   0.351   7.235  1.6989  0.6630  3.0013
16680SOL    HW250884   1.844   0.272   7.334 -1.8264  0.2748 -0.0455
16681SOL     OW50885   4.559   5.290   0.847 -0.2437  0.2704  0.3562
16681SOL    HW150886   4.501   5.240   0.905 -0.4510  0.8711  0.6779
16681SOL    HW250887   4.635   5.310   0.901  0.2043 -0.3724 -0.0159
16682SOL     OW50888   7.605   0.099   1.803  0.1035  0.1409  0.0306
16682SOL    HW150889   7.563   0.166   1.751 -1.0310 -1.5586 -1.3281
16682SOL    HW250890   7.679   0.069   1.750 -1.1499 -1.7107 -0.7895
16683SOL     OW50891   2.432   4.276   8.031 -0.1960 -0.3806  0.5113
16683SOL    HW150892   2.468   4.292   7.944  0.6113 -1.9571  0.5195
16683SOL    HW250893   2.391   4.359   8.056 -0.4568  0.1054 -1.3666
16684SOL     OW50894   6.546   2.782   4.194  0.4063 -0.0136 -0.0784
16684SOL    HW150895   6.484   2.854   4.209 -0.4891 -1.0250  1.2741
16684SOL    HW250896   6.619   2.801   4.253  0.7144  0.3944 -0.5839
16685SOL     OW50897   1.649   5.921   7.847  0.7028  0.2396 -0.6717
16685SOL    HW150898   1.684   5.902   7.760 -1.2567 -0.2042 -1.4019
16685SOL    HW250899   1.609   5.839   7.875 -0.7694  1.0314 -0.3911
16686SOL     OW50900   5.439   1.193   7.733 -0.2231 -0.2717  0.4832
16686SOL    HW150901   5.427   1.278   7.776  0.3317 -0.9217  2.0252
16686SOL    HW250902   5.403   1.204   7.645  2.1175  2.3031 -0.2592
16687SOL     OW50903   3.101   1.943   3.120  0.7498  0.0801  0.2823
16687SOL    HW150904   3.009   1.957   3.094  1.1301  0.9278 -0.6725
16687SOL    HW250905   3.104   1.970   3.212 -0.2202 -1.1616  0.7022
16688SOL     OW50906   5.286   3.584   0.168  0.1273 -0.6306  0.1049
16688SOL    HW150907   5.329   3.507   0.206 -1.7699 -1.8609 -0.0638
16688SOL    HW250908   5.311   3.583   0.076  1.5470  0.0311  0.4615
16689SOL     OW50909   4.410   4.400   0.029  0.0972 -0.4150  0.2971
16689SOL    HW150910   4.381   4.348  -0.046 -2.0030 -1.3351  1.6328
16689SOL    HW250911   4.505   4.406   0.020  0.0401 -1.6853 -1.6702
16690SOL     OW50912   3.198   1.642   5.526 -0.4628 -0.1693 -0.3169
16690SOL    HW150913   3.109   1.639   5.562 -0.2925  2.3132  0.5494
16690SOL    HW250914   3.248   1.580   5.578 -1.2382 -0.0042  0.6450
16691SOL     OW50915   1.495   2.383   2.835 -0.7083 -0.0616 -0.2952
16691SOL    HW150916   1.400   2.380   2.827 -0.7565 -1.7494  0.6150
16691SOL    HW250917   1.511   2.405   2.927 -0.1952  1.0937 -0.6403
16692SOL     OW50918   2.492   6.906   7.600  0.1654  0.0734  0.3726
16692SOL    HW150919   2.559   6.889   7.666  1.3167  2.6672 -0.0256
16692SOL    HW250920   2.525   6.864   7.521 -0.2012 -1.2235  0.8691
16693SOL     OW50921   3.099   0.131   4.490 -0.3639  0.6116  0.4036
16693SOL    HW150922   3.065   0.041   4.482  4.3292 -1.5274  1.0156
16693SOL    HW250923   3.124   0.156   4.402 -1.3011  1.2278  0.2961
16694SOL     OW50924   1.273   5.761   7.607  0.0569 -0.4611 -0.2344
16694SOL    HW150925   1.262   5.818   7.530  0.9547  0.4174  0.2489
16694SOL    HW250926   1.185   5.730   7.627 -0.5850  1.2414 -0.1823
16695SOL     OW50927   0.909   5.470   4.772  0.4023  0.7451  0.0413
16695SOL    HW150928   0.917   5.513   4.857  0.4951 -1.9405  1.5217
16695SOL    HW250929   0.895   5.378   4.794  2.5952 -0.4292 -2.8628
16696SOL     OW50930   5.819   4.121   4.190  0.0158  0.9405 -0.0643
16696SOL    HW150931   5.864   4.074   4.119 -1.9976 -1.1047 -0.0798
16696SOL    HW250932   5.738   4.153   4.151 -0.2960  1.3397  0.8782
16697SOL     OW50933   3.939   7.360   2.898  0.4913  0.3430 -0.0565
16697SOL    HW150934   3.875   7.289   2.890 -0.8037  1.6028 -1.8020
16697SOL    HW250935   3.965   7.359   2.990 -2.5828  0.1903  0.9101
16698SOL     OW50936   0.391   7.063   4.768 -0.0696  0.3860  0.1907
16698SOL    HW150937   0.371   6.969   4.779  1.1527  0.2691  1.7389
16698SOL    HW250938   0.309   7.107   4.792 -0.3930 -0.2606  0.3129
16699SOL     OW50939   2.463   3.461   3.738 -0.0539  0.0979 -0.2961
16699SOL    HW150940   2.548   3.460   3.781 -0.1540  1.3938 -0.0323
16699SOL    HW250941   2.470   3.395   3.669  0.2039 -1.8532  1.4612
16700SOL     OW50942   6.309   2.085   6.367 -0.4081 -0.2629 -0.4404
16700SOL    HW150943   6.311   2.118   6.276 -0.4936  1.7057  0.2112
16700SOL    HW250944   6.356   2.152   6.417  0.1867 -1.6278  0.8993
16701SOL     OW50945   5.635   0.403   6.213  0.1461  0.4829 -0.4766
16701SOL    HW150946   5.654   0.493   6.238 -1.2902  0.6352  0.2018
16701SOL    HW250947   5.719   0.358   6.218  0.6055  1.4208  0.8538
16702SOL     OW50948   1.833   4.384   2.274 -0.2387 -0.3261 -0.6153
16702SOL    HW150949   1.906   4.333   2.237  0.7966 -0.2315  1.1773
16702SOL    HW250950   1.830   4.464   2.222  1.0292 -0.2888 -0.6558
16703SOL     OW50951   6.992   7.097   3.390 -0.2506  0.5658  0.1666
16703SOL    HW150952   6.940   7.174   3.413  0.0618  0.9133 -0.2960
16703SOL    HW250953   7.008   7.053   3.474 -1.0306  0.6183  0.3495
16704SOL     OW50954   0.933   3.380   5.079  0.0781 -0.1823  0.1619
16704SOL    HW150955   0.876   3.358   5.153 -0.3857 -1.5921 -0.5797
16704SOL    HW250956   0.997   3.441   5.115 -0.4667 -0.4189  1.5900
16705SOL     OW50957   3.299   3.186   1.398  0.2098  0.0370 -0.6313
16705SOL    HW150958   3.324   3.097   1.423 -0.8644  0.2980  1.6120
16705SOL    HW250959   3.347   3.242   1.460  0.5896  1.0310 -1.7812
16706SOL     OW50960   6.543   2.678   5.720 -0.0946  0.3228 -0.1116
16706SOL    HW150961   6.619   2.694   5.663  0.6635 -1.2898  0.3651
16706SOL    HW250962   6.524   2.585   5.707 -1.8777  0.6528 -0.0416
16707SOL     OW50963   4.554   3.212   1.506  0.3291  0.0620 -0.0570
16707SOL    HW150964   4.495   3.276   1.467 -1.0929 -0.4601  1.1315
16707SOL    HW250965   4.615   3.190   1.436 -0.0629  1.5889 -0.9369
16708SOL     OW50966   5.614   6.161   1.573  0.5179  0.2183  0.8681
16708SOL    HW150967   5.654   6.245   1.596  0.3433  0.3366  0.7387
16708SOL    HW250968   5.662   6.096   1.625  2.3922  0.0829 -0.8798
16709SOL     OW50969   3.181   5.792   2.833  0.4894  0.4978  0.0650
16709SOL    HW150970   3.093   5.800   2.869 -0.2887 -3.4282 -0.5066
16709SOL    HW250971   3.239   5.817   2.906 -1.0719  0.8420  1.2397
16710SOL     OW50972   1.408   1.207   2.877 -0.1916  0.1399  0.2228
16710SOL    HW150973   1.335   1.149   2.899  0.4974 -1.1414 -0.6945
16710SOL    HW250974   1.417   1.264   2.953 -0.0931 -1.8042  1.7479
16711SOL     OW50975   6.074   5.652   2.468  0.0538  0.0715  0.4390
16711SOL    HW150976   6.125   5.729   2.441 -0.9156  0.9734  1.1085
16711SOL    HW250977   6.135   5.579   2.459  0.6394  0.7202 -1.4375
16712SOL     OW50978   1.654   7.292   3.313 -0.5461  0.0174  0.0308
16712SOL    HW150979   1.611   7.365   3.268 -0.0760  1.0106  1.1342
16712SOL    HW250980   1.612   7.214   3.277 -1.9022  0.8671 -0.3191
16713SOL     OW50981   1.412   7.824   4.989  0.3038 -0.2071  0.6701
16713SOL    HW150982   1.483   7.760   4.995  0.6871 -0.1658 -1.9972
16713SOL    HW250983   1.377   7.812   4.900 -1.5459  1.3079  1.1297
16714SOL     OW50984   1.417   8.018   7.169  0.4153  0.3633  0.1061
16714SOL    HW150985   1.330   8.008   7.132  0.3170 -1.0029  0.6499
16714SOL    HW250986   1.413   8.100   7.219 -1.0089 -0.4017  1.3041
16715SOL     OW50987   7.146   2.265   0.612 -0.2965  0.0151  0.1124
16715SOL    HW150988   7.103   2.293   0.693  0.4690  0.4383  0.3768
16715SOL    HW250989   7.226   2.221   0.640 -0.2732 -0.2817 -0.3981
16716SOL     OW50990   7.127   7.256   5.326  0.1802  0.2220  0.0122
16716SOL    HW150991   7.074   7.308   5.266 -0.3529 -0.7192 -0.3530
16716SOL    HW250992   7.113   7.165   5.299 -1.7429 -0.4441  2.7846
16717SOL     OW50993   4.734   0.363   5.796 -0.3861  0.5548 -0.0535
16717SOL    HW150994   4.657   0.395   5.842  0.3515 -0.3893  1.9494
16717SOL    HW250995   4.714   0.271   5.776  1.0229 -0.4408  2.6125
16718SOL     OW50996   7.167   5.282   1.720  0.0202 -0.1895  0.2010
16718SOL    HW150997   7.249   5.332   1.718  1.6391 -2.6963  0.1577
16718SOL    HW250998   7.173   5.229   1.799  0.1835 -3.0344 -1.5708
16719SOL     OW50999   2.477   3.803   7.569 -0.3365 -0.6887 -0.0129
16719SOL    HW151000   2.562   3.785   7.529 -0.2050 -0.2480  0.0649
16719SOL    HW251001   2.481   3.895   7.594 -0.0425 -1.1809  1.9286
16720SOL     OW51002   2.286   2.841   0.027 -0.0786  0.4563  0.0947
16720SOL    HW151003   2.293   2.830  -0.067  1.3585  1.2269  0.0803
16720SOL    HW251004   2.281   2.936   0.040 -0.3721  0.3543  0.7887
16721SOL     OW51005   6.386   5.702   0.137 -0.3375 -0.1260  0.1416
16721SOL    HW151006   6.351   5.680   0.050 -0.4816 -0.2590  0.2326
16721SOL    HW251007   6.357   5.630   0.193  2.1303 -1.5846 -0.2774
16722SOL     OW51008   6.964   6.897   4.312  0.1093 -0.2355 -0.3613
16722SOL    HW151009   6.895   6.832   4.329 -1.2470  0.5662 -2.3927
16722SOL    HW251010   7.008   6.864   4.233 -0.4919  1.1565 -1.3211
16723SOL     OW51011   1.282   7.462   4.866  0.1733  0.1384 -0.0668
16723SOL    HW151012   1.284   7.457   4.770 -1.7076  0.0365 -0.1219
16723SOL    HW251013   1.223   7.533   4.886  0.2080 -0.1219  1.0380
16724SOL     OW51014   2.426   2.922   4.637  0.3600  0.3427  0.3687
16724SOL    HW151015   2.436   2.898   4.729 -0.0875  1.4301  0.7126
16724SOL    HW251016   2.341   2.884   4.612  0.2844  0.4114  0.5214
16725SOL     OW51017   4.741   3.952   5.556  0.0156 -0.4161 -1.1908
16725SOL    HW151018   4.758   4.019   5.490 -0.7356 -0.5933 -1.5774
16725SOL    HW251019   4.698   3.881   5.508 -0.0983 -0.7536 -0.6015
16726SOL     OW51020   2.979   3.634   6.456 -0.4427  0.3873  0.1040
16726SOL    HW151021   2.979   3.729   6.468 -1.5950  0.4511 -0.2129
16726SOL    HW251022   2.887   3.613   6.438  0.0837 -0.5450 -1.6765
16727SOL     OW51023   6.317   0.128   0.429  0.3594  0.3109 -0.2699
16727SOL    HW151024   6.379   0.059   0.448  0.4657  1.0698  2.4651
16727SOL    HW251025   6.236   0.082   0.405  0.8404 -0.7216  0.0478
16728SOL     OW51026   6.453   7.819   4.687  0.5726  0.5314  0.2053
16728SOL    HW151027   6.517   7.889   4.680  0.0338  1.0424  0.2944
16728SOL    HW251028   6.422   7.822   4.777 -0.6253  1.2465 -0.2037
16729SOL     OW51029   3.565   5.489   1.760  0.1625 -0.4189  0.2224
16729SOL    HW151030   3.660   5.499   1.765  0.1273 -0.7052  3.0570
16729SOL    HW251031   3.547   5.406   1.805 -1.4687 -0.1445  0.1455
16730SOL     OW51032   4.113   6.631   2.338 -0.2786 -0.1102 -0.1780
16730SOL    HW151033   4.170   6.658   2.265  0.8218 -1.3379  0.1821
16730SOL    HW251034   4.091   6.540   2.318 -0.3617 -0.3075  0.7768
16731SOL     OW51035   1.588   5.499   4.825 -0.0346 -0.4844 -0.9805
16731SOL    HW151036   1.522   5.463   4.885  0.9869 -0.2969  0.2929
16731SOL    HW251037   1.604   5.588   4.858  3.5229 -1.6958  1.1278
16732SOL     OW51038   4.632   4.301   3.423  0.2361 -0.3193 -0.4426
16732SOL    HW151039   4.599   4.341   3.503  0.3255 -1.1124  0.0014
16732SOL    HW251040   4.723   4.277   3.443  0.8402  1.0732 -1.3709
16733SOL     OW51041   3.203   5.244   1.642  0.3340  0.7615  0.4184
16733SOL    HW151042   3.153   5.249   1.723  1.9289 -1.0161  1.5779
16733SOL    HW251043   3.255   5.325   1.641  2.2872 -0.3395  2.6342
16734SOL     OW51044   5.924   0.307   5.840 -0.0364 -0.2484  0.5107
16734SOL    HW151045   5.969   0.303   5.925 -0.8976  0.3335  1.0099
16734SOL    HW251046   5.948   0.391   5.803  0.8483 -0.7671 -0.1300
16735SOL     OW51047   3.558   0.659   1.936  0.7480  0.3860  0.7905
16735SOL    HW151048   3.640   0.660   1.986  0.6428 -1.0942  1.0371
16735SOL    HW251049   3.586   0.649   1.845  0.8508 -0.2319  0.8854
16736SOL     OW51050   5.709   3.337   1.668  0.2312  0.4513 -0.0144
16736SOL    HW151051   5.772   3.286   1.718  0.4819  1.2054  0.4687
16736SOL    HW251052   5.762   3.396   1.614 -0.0478  0.0744 -0.7114
16737SOL     OW51053   2.411   2.271   6.167 -0.1075  0.4404  0.2746
16737SOL    HW151054   2.499   2.294   6.139  0.6471 -1.9282  0.4338
16737SOL    HW251055   2.405   2.176   6.152 -2.2409  0.3523  1.2581
16738SOL     OW51056   0.243   5.268   5.363  0.1169  0.0309 -0.8896
16738SOL    HW151057   0.195   5.200   5.411  1.1689 -0.5445 -0.6330
16738SOL    HW251058   0.334   5.258   5.391  0.1840  2.0934 -0.1989
16739SOL     OW51059   6.157   1.208   2.098 -0.1662  0.4152 -0.2148
16739SOL    HW151060   6.137   1.201   2.005 -1.2953  0.8159 -0.0102
16739SOL    HW251061   6.249   1.180   2.105 -0.5082 -1.0420 -1.2393
16740SOL     OW51062   6.790   7.531   3.572  0.2823 -0.3596 -0.4323
16740SOL    HW151063   6.862   7.551   3.631 -0.8029 -0.5692  0.9974
16740SOL    HW251064   6.766   7.616   3.534  0.1280  0.0034  0.4582
16741SOL     OW51065   5.332   1.253   7.481 -0.1038  0.2995 -0.0457
16741SOL    HW151066   5.345   1.308   7.403  0.6117 -0.3251 -0.3837
16741SOL    HW251067   5.373   1.169   7.458  0.0243  0.0721  0.9721
16742SOL     OW51068   0.499   4.714   6.397 -0.0435  0.7179 -0.6484
16742SOL    HW151069   0.543   4.629   6.395 -0.3794  0.5071  0.4808
16742SOL    HW251070   0.567   4.774   6.429 -1.0843 -0.0035  3.4373
16743SOL     OW51071   3.586   0.641   1.305  0.1266 -0.6032 -0.0668
16743SOL    HW151072   3.667   0.692   1.296  1.0145 -1.4545  2.2979
16743SOL    HW251073   3.562   0.617   1.215  1.4783  1.1937 -0.9632
16744SOL     OW51074   5.173   0.030   3.101  0.5180  0.3067 -0.0441
16744SOL    HW151075   5.268   0.034   3.096  0.6295 -0.1237  1.2705
16744SOL    HW251076   5.146   0.121   3.118  0.8228  0.2065  1.0480
16745SOL     OW51077   2.089   2.204   0.749  0.4823  0.2581 -0.2760
16745SOL    HW151078   2.170   2.246   0.720 -0.0532  0.8175 -1.0031
16745SOL    HW251079   2.022   2.272   0.739 -0.1202 -0.2756  0.0834
16746SOL     OW51080   2.952   3.499   5.507 -0.3983  0.0836 -0.2859
16746SOL    HW151081   2.872   3.551   5.513  0.1617  0.9497 -0.1631
16746SOL    HW251082   2.993   3.527   5.425 -1.1132 -1.6836 -1.2998
16747SOL     OW51083   5.583   0.425   0.533 -0.6231 -0.0160  0.2010
16747SOL    HW151084   5.585   0.512   0.493  0.6234 -0.8278 -1.6482
16747SOL    HW251085   5.666   0.419   0.580 -0.7561 -0.1646  0.4148
16748SOL     OW51086   6.921   1.001   4.379  0.0288  0.2479  0.2073
16748SOL    HW151087   7.005   1.023   4.338  0.4072  0.5474  1.1264
16748SOL    HW251088   6.856   1.033   4.316  0.5907 -0.3361 -0.6998
16749SOL     OW51089   1.292   1.417   7.592 -0.5070 -0.0497 -0.5541
16749SOL    HW151090   1.366   1.394   7.536  0.2711 -0.6796  0.6719
16749SOL    HW251091   1.313   1.376   7.677 -1.3574  1.3170  0.3581
16750SOL     OW51092   1.106   2.661   3.885  0.1510 -0.6300 -0.0840
16750SOL    HW151093   1.144   2.590   3.937  0.5671 -0.1083  0.3372
16750SOL    HW251094   1.025   2.684   3.930  0.0834 -0.7427 -0.1462
16751SOL     OW51095   2.602   1.780   3.013  0.1849 -0.3831 -0.6313
16751SOL    HW151096   2.531   1.745   2.960 -0.2097 -0.9870  0.2640
16751SOL    HW251097   2.561   1.847   3.068  0.0331 -1.5215  0.7052
16752SOL     OW51098   1.311   7.742   7.320  0.1408 -0.0165  0.4250
16752SOL    HW151099   1.243   7.746   7.252 -0.2651 -0.6071  0.7913
16752SOL    HW251100   1.374   7.809   7.294 -0.8657  0.9476  0.3829
16753SOL     OW51101   1.816   3.497   3.131 -0.6602  0.4585 -0.1133
16753SOL    HW151102   1.743   3.436   3.142 -0.0266 -0.3707 -0.3624
16753SOL    HW251103   1.781   3.567   3.077 -1.4515  0.4071  0.3127
16754SOL     OW51104   8.125   0.620   6.701 -0.0930  0.2865 -0.0620
16754SOL    HW151105   8.038   0.624   6.661  0.4592  1.2589 -1.2358
16754SOL    HW251106   8.178   0.569   6.639  0.1889 -0.3429  0.6648
16755SOL     OW51107   2.684   1.170   5.295 -0.4875  0.0297  0.0097
16755SOL    HW151108   2.758   1.110   5.303 -1.2455 -0.7458  1.5604
16755SOL    HW251109   2.725   1.254   5.274  1.0956  0.1008  2.8249
16756SOL     OW51110   1.848   1.144   2.405  0.0502 -0.7677 -0.8081
16756SOL    HW151111   1.903   1.137   2.327 -1.5002  1.4558 -2.2137
16756SOL    HW251112   1.853   1.236   2.431 -1.1872 -1.0030  0.4005
16757SOL     OW51113   0.696   5.554   6.399 -0.3284 -0.0368 -0.2988
16757SOL    HW151114   0.777   5.540   6.350 -0.6673  1.4301 -1.3600
16757SOL    HW251115   0.668   5.467   6.426  0.3309 -0.8078 -1.9947
16758SOL     OW51116   5.321   7.338   0.440  0.0756 -0.2694  0.0508
16758SOL    HW151117   5.403   7.357   0.487  0.4898  1.1919 -1.1850
16758SOL    HW251118   5.347   7.274   0.374  0.0049 -0.5463  0.2902
16759SOL     OW51119   6.626   8.042   4.691  0.4931 -0.0148  0.4478
16759SOL    HW151120   6.718   8.021   4.707  0.6693  0.1915 -0.2326
16759SOL    HW251121   6.626   8.077   4.602  0.0993  2.1130  1.2369
16760SOL     OW51122   1.708   6.790   2.741  0.5893 -0.4093  0.1091
16760SOL    HW151123   1.707   6.859   2.674  0.2059 -1.7505 -1.3208
16760SOL    HW251124   1.616   6.771   2.758  0.6785 -0.0672  1.0783
16761SOL     OW51125   6.246   0.139   1.990  0.1860  0.5169  0.0241
16761SOL    HW151126   6.205   0.057   2.016 -0.6563  0.8344 -0.2771
16761SOL    HW251127   6.289   0.171   2.070 -0.2034  0.2109  0.3559
16762SOL     OW51128   4.146   4.484   3.123  0.2206  0.0684  0.0810
16762SOL    HW151129   4.156   4.524   3.209  0.3043  1.6023 -0.6134
16762SOL    HW251130   4.063   4.518   3.090  0.5588  0.1140 -0.7615
16763SOL     OW51131   3.592   0.793   6.171  0.4396 -0.2930  0.4149
16763SOL    HW151132   3.558   0.882   6.166 -0.2651 -0.5736  0.1075
16763SOL    HW251133   3.528   0.740   6.124  2.1221 -0.5953 -1.6785
16764SOL     OW51134   1.603   6.435   6.544 -0.7950 -0.2499  0.0367
16764SOL    HW151135   1.540   6.406   6.478  1.3212 -0.3239 -2.0831
16764SOL    HW251136   1.654   6.503   6.500  1.1244 -0.7525  1.3584
16765SOL     OW51137   7.480   0.361   4.428  0.1157  0.3305  0.2436
16765SOL    HW151138   7.427   0.284   4.408 -1.1652  0.4001  2.9645
16765SOL    HW251139   7.570   0.327   4.435  0.2121 -0.1557 -2.3170
16766SOL     OW51140   5.457   1.526   0.348  0.2141  0.0907 -0.3356
16766SOL    HW151141   5.501   1.446   0.318  0.2409  0.3289 -0.9446
16766SOL    HW251142   5.363   1.507   0.338  0.2071 -0.0375 -0.0273
16767SOL     OW51143   0.756   3.218   2.768 -0.0649  0.0503  0.1324
16767SOL    HW151144   0.711   3.213   2.684  0.2887  0.0672 -0.0566
16767SOL    HW251145   0.728   3.302   2.805 -2.2781 -1.0810  1.2077
16768SOL     OW51146   0.793   4.647   4.420  0.3856  0.3663  0.1131
16768SOL    HW151147   0.735   4.722   4.425 -1.1642 -0.7937  0.1101
16768SOL    HW251148   0.828   4.637   4.509  1.1859  1.5048 -0.0560
16769SOL     OW51149   3.024   5.672   0.385 -0.2539 -0.1276 -0.4021
16769SOL    HW151150   3.114   5.657   0.360 -0.2342  0.5205 -0.7435
16769SOL    HW251151   3.004   5.760   0.353 -0.0469  1.0178  2.2971
16770SOL     OW51152   4.793   7.274   0.108  0.5502  0.5835  0.2073
16770SOL    HW151153   4.865   7.297   0.167 -0.9488  0.0709  2.3434
16770SOL    HW251154   4.805   7.181   0.089 -0.3668  0.0965  1.8496
16771SOL     OW51155   2.265   4.295   6.825  0.5954 -0.4259 -0.0842
16771SOL    HW151156   2.231   4.213   6.791 -1.4045  0.8476 -1.3567
16771SOL    HW251157   2.266   4.283   6.920 -0.3261 -1.6642 -0.2062
16772SOL     OW51158   1.605   2.704   6.442 -0.0085 -0.3789 -0.2368
16772SOL    HW151159   1.561   2.744   6.517 -1.4348 -2.0672 -0.1134
16772SOL    HW251160   1.556   2.736   6.366 -1.7157 -2.4424 -0.0849
16773SOL     OW51161   3.136   6.142   0.757  0.1204  0.0572 -0.0562
16773SOL    HW151162   3.072   6.213   0.762  0.6406  0.5021  0.4936
16773SOL    HW251163   3.203   6.166   0.821 -0.5178 -1.7696  1.3700
16774SOL     OW51164   2.714   4.308   7.462 -0.4872  0.6692  0.8378
16774SOL    HW151165   2.693   4.384   7.515  1.1993  1.5819  0.2737
16774SOL    HW251166   2.631   4.262   7.452 -1.1396  1.2624  2.9832
16775SOL     OW51167   6.319   4.445   7.623 -0.0487 -0.2669  0.7782
16775SOL    HW151168   6.285   4.503   7.555 -1.5683 -3.1100 -1.0639
16775SOL    HW251169   6.410   4.472   7.633 -0.7238  2.5173  0.1903
16776SOL     OW51170   5.276   1.806   7.784 -0.0119  0.5281  0.4824
16776SOL    HW151171   5.197   1.806   7.730  0.6905  0.6770 -0.5918
16776SOL    HW251172   5.346   1.782   7.723  0.7990  0.6033  1.3596
16777SOL     OW51173   7.401   7.348   3.250  0.6491  0.0569  0.0518
16777SOL    HW151174   7.473   7.410   3.246  0.2797  0.4557 -0.6348
16777SOL    HW251175   7.376   7.346   3.342  3.6529 -2.5975  0.9813
16778SOL     OW51176   5.251   5.526   3.683 -0.0512 -0.4574  0.1134
16778SOL    HW151177   5.268   5.483   3.766  0.6992 -0.7829 -0.2015
16778SOL    HW251178   5.334   5.567   3.659  0.0335 -1.1880 -0.9427
16779SOL     OW51179   1.358   2.779   1.835 -0.1618  0.0276  0.0136
16779SOL    HW151180   1.360   2.698   1.885  0.0219 -0.6941 -1.1362
16779SOL    HW251181   1.449   2.809   1.834 -0.1768  0.0799  0.1607
16780SOL     OW51182   2.319   2.098   0.493 -0.0476 -0.0197  0.0619
16780SOL    HW151183   2.313   2.192   0.474  0.7511 -0.2372 -1.4305
16780SOL    HW251184   2.411   2.077   0.478 -0.1201 -0.9504  0.8657
16781SOL     OW51185   1.744   3.107   6.392 -0.3762  0.5694  1.1288
16781SOL    HW151186   1.783   3.193   6.378 -0.0515  0.1735 -0.6458
16781SOL    HW251187   1.673   3.123   6.454 -0.1369  2.0652  1.0622
16782SOL     OW51188   1.681   1.586   0.750 -0.2590 -0.2963  0.0707
16782SOL    HW151189   1.712   1.522   0.815 -0.1808 -1.1647 -0.7905
16782SOL    HW251190   1.614   1.636   0.796 -0.1378 -0.8289  0.8500
16783SOL     OW51191   4.481   4.610   1.754  0.2361  0.1588 -0.0002
16783SOL    HW151192   4.528   4.638   1.833 -0.8383 -1.0340  1.1144
16783SOL    HW251193   4.416   4.679   1.739 -0.6251 -0.3776  1.1408
16784SOL     OW51194   2.803   6.813   5.595 -0.0760  0.1066  0.1479
16784SOL    HW151195   2.805   6.879   5.526 -1.1346  0.0664  0.0694
16784SOL    HW251196   2.775   6.860   5.673  1.3439  0.2016  0.6389
16785SOL     OW51197   2.920   5.808   2.883  0.1232  0.5062 -0.1566
16785SOL    HW151198   2.890   5.856   2.806 -0.3644 -1.2492 -1.1176
16785SOL    HW251199   2.905   5.716   2.861 -1.8836  0.0168  2.8004
16786SOL     OW51200   6.480   0.750   3.841  0.1825  0.2150 -0.2451
16786SOL    HW151201   6.544   0.806   3.797 -0.7727  0.3580 -1.5093
16786SOL    HW251202   6.492   0.664   3.802 -0.2794  0.2032 -0.3681
16787SOL     OW51203   3.565   6.728   0.570  0.0124 -0.1246  0.6185
16787SOL    HW151204   3.469   6.734   0.573 -0.0512 -0.9252  0.5954
16787SOL    HW251205   3.592   6.797   0.510 -0.6255 -0.4649 -0.0839
16788SOL     OW51206   3.072   0.091   7.660 -0.1465  0.1192 -0.2535
16788SOL    HW151207   3.078   0.174   7.611 -0.9360  0.1276 -0.3404
16788SOL    HW251208   2.979   0.074   7.667 -0.0248 -0.1888  0.7502
16789SOL     OW51209   7.145   3.838   6.763 -0.5745 -0.3316  0.6296
16789SOL    HW151210   7.143   3.743   6.750 -2.3021 -0.1578 -0.7799
16789SOL    HW251211   7.112   3.851   6.852  0.4139 -1.0774  1.1157
16790SOL     OW51212   2.414   3.476   4.360  0.3694 -0.1438  0.2775
16790SOL    HW151213   2.376   3.547   4.308  1.8603  1.3460  1.1216
16790SOL    HW251214   2.355   3.466   4.435 -0.2451 -0.3249 -0.2262
16791SOL     OW51215   1.118   1.500   4.070  0.0952 -0.0761  0.0364
16791SOL    HW151216   1.127   1.413   4.110 -0.1384 -0.7930 -1.4128
16791SOL    HW251217   1.187   1.504   4.004 -0.6257  0.3766 -0.7122
16792SOL     OW51218   0.883   3.401   0.603 -0.5077 -0.7438  0.7138
16792SOL    HW151219   0.859   3.471   0.663  2.3459  2.4215 -1.4574
16792SOL    HW251220   0.821   3.408   0.531 -0.0240 -0.1866  0.3447
16793SOL     OW51221   1.401   6.258   5.717 -0.0111 -0.4417  0.3979
16793SOL    HW151222   1.453   6.205   5.777 -0.3001 -0.8816  0.2689
16793SOL    HW251223   1.386   6.341   5.763  1.7095  0.1215  0.0113
16794SOL     OW51224   6.831   4.926   2.264 -0.0064  0.3636  0.4424
16794SOL    HW151225   6.815   4.847   2.213  1.9356  0.1136  0.1253
16794SOL    HW251226   6.744   4.962   2.282 -0.8467 -0.9364 -0.8312
16795SOL     OW51227   5.856   7.689   7.162 -0.2186  0.2923  0.1656
16795SOL    HW151228   5.770   7.650   7.176  0.6736 -1.9380 -0.2698
16795SOL    HW251229   5.906   7.668   7.241  0.7865 -0.9918 -0.7556
16796SOL     OW51230   6.752   5.597   2.850 -1.1191 -0.6737  0.2381
16796SOL    HW151231   6.698   5.630   2.922  0.1569  0.0748  0.8713
16796SOL    HW251232   6.808   5.531   2.890  0.9369  1.0704  0.3906
16797SOL     OW51233   7.363   7.431   3.516 -0.6040 -0.3539 -0.3423
16797SOL    HW151234   7.406   7.507   3.555  0.0358 -1.6445  1.5673
16797SOL    HW251235   7.282   7.421   3.566 -0.2341 -1.4701  0.0631
16798SOL     OW51236   0.456   0.736   4.160  0.3461  0.0262 -0.3666
16798SOL    HW151237   0.365   0.754   4.185  0.4110  1.3280 -0.9664
16798SOL    HW251238   0.464   0.774   4.073  1.9061  1.3625  0.3267
16799SOL     OW51239   2.859   4.379   2.101 -0.1900  0.0517  0.3473
16799SOL    HW151240   2.927   4.362   2.165 -2.0372 -0.5077  2.2692
16799SOL    HW251241   2.797   4.436   2.146 -1.6983 -0.6061 -0.8070
16800SOL     OW51242   1.479   0.929   5.950 -0.2457 -0.6815 -0.2076
16800SOL    HW151243   1.416   0.860   5.970 -1.0562 -0.2904 -1.3195
16800SOL    HW251244   1.428   1.009   5.948  0.4916 -0.1937 -0.0512
16801SOL     OW51245   2.531   5.835   3.271  0.6787 -0.3472  0.1004
16801SOL    HW151246   2.527   5.809   3.363  2.5191  0.3966  0.4496
16801SOL    HW251247   2.503   5.758   3.222  0.7806 -1.1365  1.2642
16802SOL     OW51248   1.761   4.914   3.739 -0.4129 -0.5114  0.5936
16802SOL    HW151249   1.763   4.865   3.657  0.0502 -2.9288  1.9395
16802SOL    HW251250   1.850   4.905   3.774 -0.5203  0.7090  1.2324
16803SOL     OW51251   6.389   0.576   7.749 -0.0560 -0.0746 -0.0696
16803SOL    HW151252   6.379   0.585   7.654  2.1103  0.3078 -0.3109
16803SOL    HW251253   6.392   0.666   7.781 -2.4226 -0.1833  0.6239
16804SOL     OW51254   0.033   6.111   7.919  0.5482 -0.1298 -0.1313
16804SOL    HW151255   0.051   6.058   7.842  2.1548  0.3894 -0.1470
16804SOL    HW251256  -0.061   6.100   7.934  0.4695 -1.3564 -1.3127
16805SOL     OW51257   0.676   5.526   2.783 -0.7181  0.0722  0.1785
16805SOL    HW151258   0.601   5.566   2.739 -0.2396 -0.1369 -0.8728
16805SOL    HW251259   0.751   5.551   2.729 -0.0353  0.2177  1.1683
16806SOL     OW51260   6.764   0.802   4.112  0.1747  1.0929  0.1198
16806SOL    HW151261   6.836   0.739   4.116 -0.9332 -0.3463 -1.3863
16806SOL    HW251262   6.807   0.885   4.088  1.4013  0.4280 -0.0741
16807SOL     OW51263   0.479   2.498   1.782 -0.3230 -0.1593 -0.0661
16807SOL    HW151264   0.430   2.500   1.864 -2.1778 -1.1159 -1.0976
16807SOL    HW251265   0.512   2.408   1.777  0.4756  0.1218 -0.0065
16808SOL     OW51266   6.210   4.008   2.211  0.6601 -0.8183 -0.2473
16808SOL    HW151267   6.201   4.072   2.281  1.4303 -0.7295 -0.2235
16808SOL    HW251268   6.133   3.952   2.219  0.6584 -0.7014  0.5577
16809SOL     OW51269   2.970   2.298   3.133 -0.2735 -0.3479  0.0250
16809SOL    HW151270   2.885   2.256   3.144  0.3988 -1.1814  3.1938
16809SOL    HW251271   2.950   2.392   3.132 -1.3202 -0.5693 -0.4225
16810SOL     OW51272   0.455   3.436   4.745 -0.1939 -0.1529  0.1965
16810SOL    HW151273   0.483   3.365   4.688  1.3024  0.5995 -0.0747
16810SOL    HW251274   0.497   3.416   4.829  0.6611  0.6542 -0.0257
16811SOL     OW51275   1.011   6.998   6.396  0.0186  0.5246  0.2375
16811SOL    HW151276   0.967   6.928   6.348 -0.0302  0.1171  0.8621
16811SOL    HW251277   1.066   7.042   6.331 -2.0581  1.6972 -0.8113
16812SOL     OW51278   4.455   1.786   4.448  0.1261 -0.3430 -0.2638
16812SOL    HW151279   4.544   1.767   4.417  0.0313  0.7704 -1.3109
16812SOL    HW251280   4.466   1.858   4.511  0.0122 -0.5256 -0.0337
16813SOL     OW51281   6.198   1.331   8.198  0.1165  0.4258 -0.6190
16813SOL    HW151282   6.143   1.406   8.221 -0.3768  0.3889 -1.5826
16813SOL    HW251283   6.153   1.292   8.122 -0.8610 -2.1241  1.1202
16814SOL     OW51284   4.401   6.238   1.587  0.2815 -0.1998  0.1954
16814SOL    HW151285   4.333   6.259   1.652  0.2264  0.0748  0.0498
16814SOL    HW251286   4.371   6.156   1.547 -0.5062  0.4539 -0.6054
16815SOL     OW51287   6.348   7.616   4.493 -0.1231  0.2782  0.2162
16815SOL    HW151288   6.415   7.606   4.425  0.6418  2.1204  0.6306
16815SOL    HW251289   6.384   7.682   4.553 -1.9058  0.6459  0.9652
16816SOL     OW51290   8.191   3.739   1.181 -0.6172  0.4722  0.1742
16816SOL    HW151291   8.270   3.724   1.232 -0.7833  1.0862  0.6225
16816SOL    HW251292   8.126   3.770   1.245  0.0663  4.4167 -0.7776
16817SOL     OW51293   4.378   3.740   5.385  0.1403  0.5300 -0.0382
16817SOL    HW151294   4.430   3.680   5.438  0.9553  0.7392 -0.5895
16817SOL    HW251295   4.393   3.713   5.295 -3.0080 -1.2933 -0.1850
16818SOL     OW51296   2.168   1.905   2.766  0.0489 -0.3599 -0.0831
16818SOL    HW151297   2.088   1.887   2.815  0.3621  1.5887  1.2584
16818SOL    HW251298   2.137   1.944   2.684 -0.3809  0.0246  0.2582
16819SOL     OW51299   6.605   7.920   2.397  0.0466  0.0318  0.3720
16819SOL    HW151300   6.657   7.897   2.319  1.3879 -0.8745  1.4898
16819SOL    HW251301   6.556   7.841   2.416  0.0394  0.1138  0.6877
16820SOL     OW51302   1.090   2.814   5.841 -0.0344  0.3579 -0.1022
16820SOL    HW151303   1.066   2.865   5.764  2.7147  0.5508 -0.9496
16820SOL    HW251304   1.132   2.877   5.899 -3.1214  0.4927  2.2450
16821SOL     OW51305   5.193   2.037   7.917 -0.3270 -0.1431  0.3883
16821SOL    HW151306   5.154   1.992   7.992  0.3764 -0.5503  0.5277
16821SOL    HW251307   5.231   1.966   7.864  0.7076  0.2636  0.5534
16822SOL     OW51308   6.004   1.765   7.901 -0.1211  0.2171 -0.3010
16822SOL    HW151309   5.959   1.847   7.878  1.6383  1.1819 -0.5029
16822SOL    HW251310   6.096   1.790   7.911  0.1926 -1.3859  1.5356
16823SOL     OW51311   4.726   6.112   5.202 -0.3782 -0.6179 -0.3894
16823SOL    HW151312   4.783   6.046   5.241 -0.2528  0.1733  0.8174
16823SOL    HW251313   4.754   6.195   5.242 -1.3114  0.0004 -0.9805
16824SOL     OW51314   0.791   1.616   6.822 -0.1454  0.4388 -0.6721
16824SOL    HW151315   0.833   1.678   6.882 -0.5071 -0.6595  0.7849
16824SOL    HW251316   0.742   1.557   6.880 -2.0075  0.4255 -2.1721
16825SOL     OW51317   5.296   6.926   3.606 -0.2864  0.1970  0.2244
16825SOL    HW151318   5.316   6.904   3.697 -0.5834 -1.1205  0.0003
16825SOL    HW251319   5.275   7.019   3.607  0.3450  0.3427  1.3901
16826SOL     OW51320   3.385   8.069   1.307  0.5251 -0.6060  0.0276
16826SOL    HW151321   3.333   8.108   1.378 -1.0317  1.6999 -2.2118
16826SOL    HW251322   3.468   8.117   1.309  0.7936 -1.0724  0.7013
16827SOL     OW51323   1.905   7.454   7.651  0.5851 -0.3167  0.1264
16827SOL    HW151324   1.889   7.479   7.742 -1.6029 -1.5049  0.1538
16827SOL    HW251325   1.974   7.388   7.656  0.8289 -0.0134  0.8861
16828SOL     OW51326   6.727   4.204   3.562 -0.3890 -0.4956  0.1875
16828SOL    HW151327   6.810   4.236   3.599 -0.3117 -1.9363  1.3699
16828SOL    HW251328   6.668   4.201   3.637 -1.9203  1.6120 -0.8463
16829SOL     OW51329   7.179   8.162   5.883 -0.2816  0.3009  0.2106
16829SOL    HW151330   7.165   8.074   5.919  0.2308  0.3299  0.4903
16829SOL    HW251331   7.176   8.150   5.788  1.5356 -0.3310  0.1967
16830SOL     OW51332   4.682   1.886   1.091 -0.1024  0.3926  0.1009
16830SOL    HW151333   4.743   1.877   1.018 -0.6841  0.8792 -0.4526
16830SOL    HW251334   4.636   1.968   1.074 -2.0696 -0.7514 -0.3733
16831SOL     OW51335   2.252   6.615   0.109  0.3479  0.1068 -0.4267
16831SOL    HW151336   2.269   6.629   0.202  0.1985 -0.2959 -0.3369
16831SOL    HW251337   2.323   6.558   0.080  0.3077  0.1055 -0.5214
16832SOL     OW51338   7.183   2.210   2.770 -0.3698  0.7562 -0.0770
16832SOL    HW151339   7.248   2.172   2.829  0.2998 -0.5007 -1.5697
16832SOL    HW251340   7.136   2.135   2.733 -1.6066  1.5752 -0.2312
16833SOL     OW51341   4.098   5.411   7.648  0.4879 -0.9044  0.7297
16833SOL    HW151342   4.098   5.321   7.679  0.9120 -0.6482  1.4962
16833SOL    HW251343   4.191   5.434   7.641  0.3960 -0.7770 -0.2228
16834SOL     OW51344   6.370   3.368   2.924  0.1445 -0.7694 -0.0529
16834SOL    HW151345   6.461   3.348   2.946  1.3101  1.1467 -2.6015
16834SOL    HW251346   6.348   3.305   2.855 -0.2026 -0.7581  0.0464
16835SOL     OW51347   1.583   6.318   4.152 -0.5562  0.1005  0.2687
16835SOL    HW151348   1.600   6.228   4.179  1.5499  0.2502 -0.3693
16835SOL    HW251349   1.514   6.311   4.086  0.3199 -1.1942 -0.5529
16836SOL     OW51350   4.599   0.891   1.295 -0.6121  0.4761 -0.0767
16836SOL    HW151351   4.529   0.894   1.231 -0.3259  1.0055 -0.3727
16836SOL    HW251352   4.668   0.840   1.252 -0.4483  0.7692 -0.1615
16837SOL     OW51353   0.333   1.123   2.995  0.2047  0.6687  0.1292
16837SOL    HW151354   0.278   1.053   2.960  1.0599 -0.3826  0.8136
16837SOL    HW251355   0.325   1.194   2.932 -1.4061  0.2978 -0.1165
16838SOL     OW51356   6.996   6.039   1.738 -0.5434 -0.3104 -0.3699
16838SOL    HW151357   7.037   6.090   1.807  1.3056 -2.8638  0.5801
16838SOL    HW251358   6.903   6.038   1.760 -0.2450  0.4600  1.0011
16839SOL     OW51359   1.178   4.834   8.069  0.4047 -0.4790 -0.2798
16839SOL    HW151360   1.191   4.756   8.123 -0.9198 -0.2081  0.4921
16839SOL    HW251361   1.110   4.807   8.006  2.9631 -1.2847 -2.9177
16840SOL     OW51362   1.061   3.088   0.144 -0.0451 -0.7200  0.3877
16840SOL    HW151363   1.129   3.087   0.211  0.9222  0.2933 -0.5405
16840SOL    HW251364   0.989   3.138   0.183  0.8318  0.5853  0.4035
16841SOL     OW51365   4.596   2.365   1.892  0.2306  0.3700  0.1063
16841SOL    HW151366   4.509   2.353   1.930 -1.5774 -1.6519 -4.0369
16841SOL    HW251367   4.641   2.283   1.909  0.2040  0.2671 -0.3216
16842SOL     OW51368   2.830   3.869   2.458  0.2335  0.3029  0.4871
16842SOL    HW151369   2.812   3.958   2.429 -0.2716 -0.3436 -1.3124
16842SOL    HW251370   2.923   3.857   2.439 -0.1266 -0.1714 -1.1824
16843SOL     OW51371   5.424   6.902   7.798  0.7778 -0.9446  0.1027
16843SOL    HW151372   5.335   6.874   7.775  0.8011 -1.6559  0.8416
16843SOL    HW251373   5.465   6.824   7.835  1.2070 -0.2263  1.1850
16844SOL     OW51374   5.906   1.190   3.063 -0.1078  0.0055 -0.5132
16844SOL    HW151375   5.820   1.148   3.065 -0.2020  0.2134 -0.1358
16844SOL    HW251376   5.933   1.185   2.971 -0.5678  0.0297 -0.6517
16845SOL     OW51377   5.120   4.189   3.228 -0.1197  0.1260 -0.2168
16845SOL    HW151378   5.044   4.245   3.209  0.2699  0.2949 -1.4049
16845SOL    HW251379   5.121   4.125   3.156  1.4948  0.8307 -0.8766
16846SOL     OW51380   0.904   4.265   1.305 -0.3381 -0.3703 -0.1120
16846SOL    HW151381   0.957   4.206   1.359 -0.0716  0.1709  0.2216
16846SOL    HW251382   0.961   4.339   1.286 -1.0461  0.3377  0.4560
16847SOL     OW51383   1.092   6.033   3.561 -0.0116  0.6843 -0.0208
16847SOL    HW151384   1.022   6.051   3.625  0.3378 -0.9702  0.8682
16847SOL    HW251385   1.091   5.938   3.551  1.5442  0.7196 -0.6601
16848SOL     OW51386   5.016   3.176   5.315  0.4837 -0.8364  0.5380
16848SOL    HW151387   4.944   3.141   5.264 -0.3295  0.7530  0.5119
16848SOL    HW251388   5.051   3.101   5.363 -0.8819 -1.7316  0.1918
16849SOL     OW51389   2.270   2.408   4.327  0.4805 -0.7872 -0.1459
16849SOL    HW151390   2.242   2.339   4.268 -2.1149  0.3680 -0.4144
16849SOL    HW251391   2.211   2.481   4.309  0.7600  0.2560  2.6077
16850SOL     OW51392   6.606   7.635   1.379 -0.5597  0.4809  0.0056
16850SOL    HW151393   6.647   7.665   1.298 -2.2571  1.9127 -0.3634
16850SOL    HW251394   6.546   7.565   1.352  0.6547 -0.7732  0.3963
16851SOL     OW51395   3.052   0.248   5.756  0.4247 -0.1720 -0.2871
16851SOL    HW151396   3.042   0.319   5.819  1.1800 -0.2687 -0.0533
16851SOL    HW251397   3.146   0.231   5.752  0.2233 -1.5589  0.1121
16852SOL     OW51398   4.976   7.460   2.052  0.1564  0.1787  0.2620
16852SOL    HW151399   5.030   7.408   1.993  0.6959  0.3045  0.6402
16852SOL    HW251400   5.008   7.550   2.042  1.3808 -0.0250  1.9492
16853SOL     OW51401   1.469   0.779   3.433 -0.4255  0.1878 -0.4201
16853SOL    HW151402   1.414   0.721   3.487  0.3035 -1.8075 -1.6918
16853SOL    HW251403   1.408   0.820   3.373 -0.6521 -1.8279 -1.6661
16854SOL     OW51404   1.162   5.529   4.729 -0.0595 -0.2857 -0.4747
16854SOL    HW151405   1.145   5.601   4.669 -0.6401 -1.2146 -1.4589
16854SOL    HW251406   1.075   5.497   4.753  0.1776 -0.2791  0.4493
16855SOL     OW51407   7.221   2.934   7.654 -0.0318 -0.7756 -0.2363
16855SOL    HW151408   7.187   3.019   7.629  0.1512 -1.2736 -2.3174
16855SOL    HW251409   7.146   2.875   7.646  0.0318 -0.9608  0.4467
16856SOL     OW51410   2.445   6.979   5.740  0.2292  0.1804 -0.7190
16856SOL    HW151411   2.408   7.042   5.802 -0.5466 -0.7651 -0.1876
16856SOL    HW251412   2.534   6.964   5.771 -0.5411 -1.2511  0.9920
16857SOL     OW51413   1.609   0.082   6.676 -0.0761 -0.1488  0.4626
16857SOL    HW151414   1.589   0.117   6.589  0.1504  0.4524  0.6461
16857SOL    HW251415   1.533   0.106   6.729  0.9638  1.9626  1.1124
16858SOL     OW51416   1.423   1.711   7.252 -0.0058  0.5232 -0.1414
16858SOL    HW151417   1.429   1.773   7.325 -0.3807 -0.5362  0.8301
16858SOL    HW251418   1.419   1.766   7.174  0.7051  1.6900  0.6084
16859SOL     OW51419   1.976   6.970   4.709 -0.1133  0.5632  0.0319
16859SOL    HW151420   1.943   7.051   4.747 -3.0038 -0.9436  1.0058
16859SOL    HW251421   1.961   6.904   4.776  2.1642 -0.8396 -0.7250
16860SOL     OW51422   0.940   0.985   2.584  0.3456  0.2903 -0.2399
16860SOL    HW151423   0.963   1.075   2.608 -0.6662  0.2407  1.0368
16860SOL    HW251424   0.893   0.994   2.501  0.9467  0.8443 -0.5298
16861SOL     OW51425   6.575   6.212   3.347  0.4779 -0.3474 -0.4218
16861SOL    HW151426   6.579   6.276   3.276  0.8930  0.5429  0.3853
16861SOL    HW251427   6.482   6.188   3.351 -0.2334  2.2386  0.9869
16862SOL     OW51428   6.905   0.615   7.464 -0.3111 -0.1813  0.6340
16862SOL    HW151429   6.849   0.538   7.451  0.6157 -0.8926  0.7422
16862SOL    HW251430   6.932   0.610   7.556 -2.1808  1.6318  1.3538
16863SOL     OW51431   2.266   7.030   4.664 -0.2151 -0.1410  0.0590
16863SOL    HW151432   2.205   7.066   4.728  1.6754  0.2911  1.7248
16863SOL    HW251433   2.299   6.950   4.704 -0.2615 -0.8065 -1.1759
16864SOL     OW51434   6.915   0.428   6.367  0.2827  0.0315 -0.4507
16864SOL    HW151435   6.829   0.392   6.391  0.4224 -0.6290 -0.9339
16864SOL    HW251436   6.947   0.468   6.448 -0.0358 -0.6081 -0.0013
16865SOL     OW51437   3.385   1.172   4.269  0.1459  0.1989 -0.6391
16865SOL    HW151438   3.407   1.262   4.243  1.0703 -0.3184 -1.7128
16865SOL    HW251439   3.404   1.170   4.363 -0.0769  1.1735 -0.5565
16866SOL     OW51440   7.126   1.146   4.751  0.6543 -0.0824 -0.4842
16866SOL    HW151441   7.044   1.147   4.702  0.9019 -2.6920 -1.1220
16866SOL    HW251442   7.161   1.234   4.741 -0.2123  0.0447 -3.4975
16867SOL     OW51443   3.659   1.633   4.873  0.0146 -0.0889  0.0086
16867SOL    HW151444   3.715   1.563   4.840 -0.0282  0.3080 -0.9339
16867SOL    HW251445   3.600   1.653   4.801  0.2132  1.1128  0.1457
16868SOL     OW51446   2.865   2.750   3.792  0.4078 -0.2652 -0.0964
16868SOL    HW151447   2.839   2.708   3.874  1.1350 -1.0057 -0.2185
16868SOL    HW251448   2.800   2.818   3.777  0.2050 -0.1915  1.0408
16869SOL     OW51449   1.552   0.873   4.346  0.2767  0.1268  0.2776
16869SOL    HW151450   1.487   0.830   4.401 -1.1913  0.5553 -1.0299
16869SOL    HW251451   1.585   0.803   4.289  0.5898  0.0103  0.6009
16870SOL     OW51452   4.913   0.663   7.043 -0.1336 -0.2277 -0.7892
16870SOL    HW151453   4.834   0.611   7.027 -0.0270 -0.1461 -1.5848
16870SOL    HW251454   4.978   0.627   6.984  0.1736  0.2914 -0.7742
16871SOL     OW51455   6.266   7.214   4.532 -0.3759 -0.5372 -0.4575
16871SOL    HW151456   6.291   7.269   4.459 -2.3174  0.3013 -0.5570
16871SOL    HW251457   6.261   7.274   4.607 -1.8343 -0.6608 -0.4209
16872SOL     OW51458   3.900   2.083   5.680 -0.0784  0.5519 -0.1195
16872SOL    HW151459   3.962   2.131   5.735 -0.3123  1.0183 -0.2568
16872SOL    HW251460   3.816   2.093   5.725 -0.1986  0.5925 -0.3547
16873SOL     OW51461   1.147   6.564   0.177  1.0093  0.1998 -0.5709
16873SOL    HW151462   1.163   6.471   0.159 -1.3307 -0.3095 -0.4601
16873SOL    HW251463   1.185   6.579   0.263  0.6978 -0.9195 -0.2186
16874SOL     OW51464   4.626   5.493   7.760  0.0299 -0.3061  0.5658
16874SOL    HW151465   4.691   5.426   7.737  0.2632  0.0429  0.1787
16874SOL    HW251466   4.676   5.575   7.761  0.0868 -0.3133  2.6050
16875SOL     OW51467   3.146   0.758   6.927  0.1919  0.1896 -0.2351
16875SOL    HW151468   3.184   0.686   6.876 -1.3708 -0.9852  0.2014
16875SOL    HW251469   3.222   0.806   6.960  1.2846  0.9758 -3.5410
16876SOL     OW51470   6.344   1.539   4.202 -0.2942  0.3023  0.1808
16876SOL    HW151471   6.398   1.617   4.213  0.1191  0.1388 -0.5897
16876SOL    HW251472   6.285   1.560   4.130  0.6715 -0.5257 -0.8980
16877SOL     OW51473   2.957   7.436   6.162 -0.1760  0.2714 -0.1566
16877SOL    HW151474   3.038   7.393   6.189 -0.5943 -0.5764 -0.2280
16877SOL    HW251475   2.978   7.475   6.077  0.5297  1.1736  0.4132
16878SOL     OW51476   4.146   7.941   6.876  0.2231  0.2210  0.1004
16878SOL    HW151477   4.098   7.996   6.938 -0.0914 -2.0771  2.0256
16878SOL    HW251478   4.230   7.987   6.864 -0.2821  1.4652  1.0552
16879SOL     OW51479   3.717   1.823   2.961  0.2554 -0.7821  0.3520
16879SOL    HW151480   3.810   1.833   2.982 -0.0936  0.6943  1.3487
16879SOL    HW251481   3.682   1.912   2.965 -1.5453 -1.4869  1.7243
16880SOL     OW51482   4.445   0.779   3.417 -0.3668  0.0159  0.0590
16880SOL    HW151483   4.391   0.850   3.381 -2.2628 -2.0745 -1.4864
16880SOL    HW251484   4.388   0.737   3.482  1.5268  1.1323  2.6114
16881SOL     OW51485   1.104   6.757   8.210  0.1518  0.1030 -0.1187
16881SOL    HW151486   1.118   6.715   8.295  0.0102 -0.8275 -0.5339
16881SOL    HW251487   1.075   6.845   8.231  0.1691 -0.0993  0.8007
16882SOL     OW51488   4.748   2.448   5.490 -0.3839  0.1645 -0.5827
16882SOL    HW151489   4.790   2.441   5.405  1.1594  0.9512  0.0781
16882SOL    HW251490   4.782   2.374   5.540  0.2042  0.7658 -0.0667
16883SOL     OW51491   2.676   5.290   3.670  0.4256 -0.8528 -0.5353
16883SOL    HW151492   2.585   5.316   3.653  0.6979  0.1065 -0.6082
16883SOL    HW251493   2.728   5.347   3.614  1.1089 -0.9051  0.0290
16884SOL     OW51494   2.673   0.637   6.660  0.2495 -0.2907 -0.2809
16884SOL    HW151495   2.753   0.687   6.677 -0.9064  1.7905 -0.5851
16884SOL    HW251496   2.662   0.641   6.565 -1.2176  1.1810 -0.0927
16885SOL     OW51497   3.751   1.724   1.716  0.1876 -0.0677  0.6640
16885SOL    HW151498   3.704   1.786   1.772 -0.3636  0.5025 -0.4127
16885SOL    HW251499   3.738   1.639   1.759 -2.3100 -0.0228  0.1374
16886SOL     OW51500   4.563   2.427   3.386  0.1075 -0.0797  0.2914
16886SOL    HW151501   4.613   2.508   3.382 -0.5105  0.3607  1.1754
16886SOL    HW251502   4.471   2.455   3.385 -0.1247 -0.6381  2.1863
16887SOL     OW51503   3.474   6.095   1.606  0.7568 -0.1000  0.2119
16887SOL    HW151504   3.470   5.999   1.599  1.5184 -0.0579 -1.1090
16887SOL    HW251505   3.392   6.125   1.569 -0.0691 -0.2578  1.8255
16888SOL     OW51506   4.411   4.142   0.218 -0.1498 -0.0455  0.3957
16888SOL    HW151507   4.424   4.200   0.143 -1.6816  2.7711  2.1354
16888SOL    HW251508   4.368   4.064   0.181  0.1742  0.7496 -1.7681
16889SOL     OW51509   1.454   0.395   1.960  0.6236  0.6401  0.3797
16889SOL    HW151510   1.429   0.421   2.048  0.3762 -2.7075  1.4484
16889SOL    HW251511   1.386   0.433   1.903  0.7401  2.7679  1.5538
16890SOL     OW51512   1.617   7.616   4.959 -0.1350  0.0053  0.2232
16890SOL    HW151513   1.577   7.557   5.023 -0.6182  1.3789  1.2418
16890SOL    HW251514   1.700   7.641   4.998  1.5263 -2.2657 -1.5614
16891SOL     OW51515   3.359   1.673   3.748 -0.1561 -0.0069 -0.0752
16891SOL    HW151516   3.453   1.660   3.737 -0.3438 -3.0218  1.0997
16891SOL    HW251517   3.352   1.734   3.822  0.8900 -1.0295  0.9048
16892SOL     OW51518   8.019   8.145   2.503  0.6247  0.1876  0.0150
16892SOL    HW151519   7.961   8.222   2.506 -0.6795 -0.7349 -0.3159
16892SOL    HW251520   7.983   8.092   2.432  2.7575  0.2073 -1.1556
16893SOL     OW51521   1.850   1.140   8.109 -0.3462 -0.3725 -0.0385
16893SOL    HW151522   1.892   1.063   8.147 -0.7993 -1.2465 -1.2477
16893SOL    HW251523   1.916   1.209   8.115  0.0715 -0.8440  1.0476
16894SOL     OW51524   1.705   4.189   5.384 -0.0353  0.1339  0.0055
16894SOL    HW151525   1.661   4.231   5.310  0.0380  0.7275  0.2895
16894SOL    HW251526   1.796   4.178   5.356  0.3889  1.8489  0.5794
16895SOL     OW51527   8.182   4.916   3.417  0.0297 -0.5397  0.5222
16895SOL    HW151528   8.184   4.893   3.325 -0.9484 -0.3484  0.4439
16895SOL    HW251529   8.097   4.885   3.448 -0.7048  1.5721  0.7632
16896SOL     OW51530   6.299   3.040   4.888  0.0440  0.5627  0.5475
16896SOL    HW151531   6.317   2.946   4.892 -0.5117  0.4342  0.1551
16896SOL    HW251532   6.204   3.046   4.887  0.0648  1.0684 -0.5679
16897SOL     OW51533   5.041   4.779   3.195 -0.5973  0.1664 -0.0297
16897SOL    HW151534   5.002   4.743   3.275 -0.9017 -0.6448 -0.5395
16897SOL    HW251535   5.136   4.770   3.209 -0.6571 -0.3465  0.0774
16898SOL     OW51536   5.307   3.917   1.190  0.7088  0.5767  0.3879
16898SOL    HW151537   5.369   3.850   1.161  0.2806 -0.3118  1.4526
16898SOL    HW251538   5.259   3.876   1.262  0.1147  1.8756  0.7660
16899SOL     OW51539   5.587   0.044   5.985  0.1093  0.1673 -0.1381
16899SOL    HW151540   5.644   0.034   5.909  0.4930  2.8181 -0.2794
16899SOL    HW251541   5.526   0.113   5.960 -0.5806  0.1861  1.5006
16900SOL     OW51542   0.605   3.287   5.627 -0.3573 -0.0346 -0.5863
16900SOL    HW151543   0.514   3.286   5.660 -0.1430  1.7039  0.2291
16900SOL    HW251544   0.657   3.310   5.704  0.6363  0.2272 -1.3220
16901SOL     OW51545   3.090   1.744   1.676  0.0461  0.6310 -0.2180
16901SOL    HW151546   3.154   1.815   1.681  1.7813 -0.8099 -0.9630
16901SOL    HW251547   3.057   1.748   1.586 -1.3111  1.6507  0.2905
16902SOL     OW51548   5.565   2.408   3.088 -0.2235 -0.0193  0.0892
16902SOL    HW151549   5.513   2.472   3.137 -1.7964 -0.9264 -0.3475
16902SOL    HW251550   5.526   2.406   3.001 -0.0527 -1.3897  0.0197
16903SOL     OW51551   6.510   7.979   1.023 -0.0743 -0.3685 -0.2033
16903SOL    HW151552   6.431   7.930   1.002  0.3506 -1.6577  1.0280
16903SOL    HW251553   6.568   7.966   0.948 -1.6711  2.2277 -2.0559
16904SOL     OW51554   2.358   1.499   1.991 -0.7375  0.5527 -0.1816
16904SOL    HW151555   2.348   1.536   2.079 -0.8815  1.3708 -0.5325
16904SOL    HW251556   2.341   1.405   2.003  1.1831  0.3023  1.0020
16905SOL     OW51557   0.031   4.896   2.096 -0.0922  0.7747 -0.1126
16905SOL    HW151558   0.112   4.857   2.130 -0.8585 -0.6161  0.1912
16905SOL    HW251559   0.057   4.936   2.013  0.8545  0.1204 -0.1553
16906SOL     OW51560   1.389   4.759   3.034  0.3614  0.1260 -0.7848
16906SOL    HW151561   1.315   4.808   2.999  0.5781  0.8606 -0.2189
16906SOL    HW251562   1.419   4.810   3.109  0.5409 -0.9096 -0.1378
16907SOL     OW51563   5.757   2.922   3.359 -0.1543  0.0916  0.6880
16907SOL    HW151564   5.742   3.009   3.397 -1.3797  0.3903 -0.3934
16907SOL    HW251565   5.793   2.940   3.272 -1.4347 -0.4076  0.0218
16908SOL     OW51566   1.644   6.932   6.443 -0.5960 -0.0765 -0.1726
16908SOL    HW151567   1.696   6.950   6.365 -1.5372 -1.2788 -1.1041
16908SOL    HW251568   1.708   6.928   6.514  0.3647  0.2513 -1.0014
16909SOL     OW51569   4.093   0.262   1.768  0.1152 -0.3849  0.5361
16909SOL    HW151570   4.166   0.265   1.706 -0.0606  0.8518  0.3787
16909SOL    HW251571   4.135   0.248   1.853  0.6319  1.1896  0.5669
16910SOL     OW51572   7.190   1.658   4.965  0.3887  0.0022  0.0363
16910SOL    HW151573   7.097   1.669   4.944  0.6075  1.6127 -0.2605
16910SOL    HW251574   7.192   1.587   5.029 -0.9987 -0.3782 -0.3146
16911SOL     OW51575   4.279   6.588   1.163  0.3662 -0.4472 -0.6984
16911SOL    HW151576   4.314   6.527   1.227  0.1752 -0.0301 -0.1913
16911SOL    HW251577   4.246   6.661   1.214 -1.4035 -0.8811 -1.1163
16912SOL     OW51578   5.157   2.477   0.561  0.3458  0.3329  0.2807
16912SOL    HW151579   5.098   2.545   0.594  0.1303 -0.6435  2.0517
16912SOL    HW251580   5.099   2.415   0.516  0.5878  1.4509 -1.6705
16913SOL     OW51581   5.358   6.734   8.151 -0.1726 -0.2877 -0.2969
16913SOL    HW151582   5.291   6.796   8.119 -1.4182 -0.3602  1.9723
16913SOL    HW251583   5.312   6.680   8.214  1.1814 -2.8562 -1.3633
16914SOL     OW51584   0.787   1.495   4.336  0.2602  0.0298 -0.1179
16914SOL    HW151585   0.839   1.442   4.275  2.1139  0.2416  1.1948
16914SOL    HW251586   0.827   1.480   4.421 -0.9609  1.3395  0.7350
16915SOL     OW51587   3.334   7.113   2.224 -0.2337 -0.9048 -0.1861
16915SOL    HW151588   3.242   7.092   2.208 -0.7301  0.8017  0.1641
16915SOL    HW251589   3.331   7.177   2.295  1.2071 -0.6711 -0.3214
16916SOL     OW51590   3.990   0.568   2.613  0.7231  0.5291  0.5898
16916SOL    HW151591   4.060   0.633   2.621  1.5763 -0.3349  0.3806
16916SOL    HW251592   3.956   0.558   2.702  0.5583  1.2870  0.6154
16917SOL     OW51593   7.194   7.447   2.136  0.0126  0.2892  0.1203
16917SOL    HW151594   7.240   7.386   2.079 -2.7310 -1.2652 -0.6061
16917SOL    HW251595   7.218   7.421   2.225  1.8926  0.7349 -0.2179
16918SOL     OW51596   1.336   0.524   2.499 -0.1566  0.4151  0.0778
16918SOL    HW151597   1.283   0.445   2.486 -1.3773  1.2414 -0.1516
16918SOL    HW251598   1.322   0.547   2.591  1.3277 -0.4000  0.5363
16919SOL     OW51599   4.724   0.797   7.374 -0.7628  0.5846 -0.0653
16919SOL    HW151600   4.721   0.701   7.381  1.3424  0.5115  0.2928
16919SOL    HW251601   4.692   0.828   7.459 -1.1774  0.2094 -0.0787
16920SOL     OW51602   3.059   7.214   1.528 -0.1934 -0.2632  0.3357
16920SOL    HW151603   3.142   7.244   1.565 -0.0498  1.8248 -1.4899
16920SOL    HW251604   3.080   7.128   1.491  0.6602 -0.5748  1.4856
16921SOL     OW51605   5.222   3.217   2.647 -0.4316 -0.6562  0.2541
16921SOL    HW151606   5.142   3.219   2.700 -1.2741 -0.4884 -0.9676
16921SOL    HW251607   5.190   3.208   2.557  0.9635 -1.2326 -0.2036
16922SOL     OW51608   2.057   6.630   2.093 -1.0379 -0.0433  0.4046
16922SOL    HW151609   2.073   6.546   2.135 -1.4858  0.9098  2.6535
16922SOL    HW251610   2.140   6.651   2.049 -0.7923 -1.4268  0.1511
16923SOL     OW51611   7.973   7.758   3.854  0.2966  0.0049  0.2554
16923SOL    HW151612   7.958   7.756   3.949 -0.0937  0.6370  0.2101
16923SOL    HW251613   7.926   7.835   3.824  0.4571 -0.1686 -0.4530
16924SOL     OW51614   7.079   1.456   5.825  0.2558 -0.6593 -0.2585
16924SOL    HW151615   7.084   1.412   5.739  2.0626 -2.2277  0.5757
16924SOL    HW251616   7.150   1.416   5.876 -0.1393  0.9625  1.6550
16925SOL     OW51617   2.803   1.706   2.849 -0.2593  0.0024 -0.0485
16925SOL    HW151618   2.746   1.752   2.910 -1.3702  0.4899 -1.4148
16925SOL    HW251619   2.814   1.766   2.776  2.6099  0.2230  0.4347
16926SOL     OW51620   1.452   4.693   7.472  0.0993 -0.2150  0.3835
16926SOL    HW151621   1.362   4.689   7.506  0.4643 -0.8203  1.3292
16926SOL    HW251622   1.458   4.779   7.430 -0.6634  0.1982  1.0834
16927SOL     OW51623   1.826   3.943   2.787  0.0443  0.4430  0.4175
16927SOL    HW151624   1.910   3.953   2.741 -0.2841 -1.6663 -0.7798
16927SOL    HW251625   1.823   3.850   2.811 -1.5678  0.6741  1.2278
16928SOL     OW51626   5.116   4.404   0.061  0.0428  0.4753  0.0427
16928SOL    HW151627   5.044   4.368   0.112 -0.1606 -0.7095 -1.0259
16928SOL    HW251628   5.078   4.480   0.017  0.4576  2.0710  2.2625
16929SOL     OW51629   2.063   6.727   4.611  0.4922 -0.2220  0.3937
16929SOL    HW151630   2.014   6.662   4.661  1.4230 -0.9814  0.3622
16929SOL    HW251631   2.154   6.712   4.635  0.7308  1.0777  0.3664
16930SOL     OW51632   7.917   2.649   2.449  0.0469  0.6578 -0.5554
16930SOL    HW151633   7.955   2.652   2.361  1.1213 -0.5261 -0.1583
16930SOL    HW251634   7.985   2.685   2.505 -0.0954  0.1309 -0.0420
16931SOL     OW51635   2.831   0.516   3.667  0.0463  0.6439  0.0265
16931SOL    HW151636   2.757   0.489   3.720  0.0054  1.5887  0.4645
16931SOL    HW251637   2.903   0.525   3.729  0.3576  0.3734 -0.2949
16932SOL     OW51638   2.212   5.472   7.682 -0.6451  0.0266  0.7034
16932SOL    HW151639   2.121   5.461   7.652 -0.1732 -0.0399 -0.8097
16932SOL    HW251640   2.239   5.556   7.644 -0.1782  0.2411  1.4855
16933SOL     OW51641   7.521   6.578   6.081 -0.2544  0.1235 -0.0893
16933SOL    HW151642   7.551   6.668   6.069 -1.2170  0.5880  0.8294
16933SOL    HW251643   7.599   6.524   6.064  0.1004  1.0567 -1.5665
16934SOL     OW51644   4.255   0.855   2.533 -0.1384  0.7815  0.1048
16934SOL    HW151645   4.180   0.832   2.587  0.5465  0.8540  1.1187
16934SOL    HW251646   4.228   0.935   2.487 -0.9966  0.3025 -0.2315
16935SOL     OW51647   5.920   5.939   7.779 -0.0130 -0.5914 -0.1798
16935SOL    HW151648   5.914   5.900   7.692  0.2030  1.9405 -1.4198
16935SOL    HW251649   5.893   5.869   7.839 -1.4610 -2.0037 -2.3475
16936SOL     OW51650   4.936   5.124   2.926  0.0273  0.2909 -0.7454
16936SOL    HW151651   4.907   5.039   2.893 -0.1320 -0.5242  1.2850
16936SOL    HW251652   5.026   5.108   2.955  0.5454  1.2563 -1.7927
16937SOL     OW51653   1.744   2.012   4.194  0.1636 -0.1980 -0.0436
16937SOL    HW151654   1.665   2.029   4.144 -0.9414 -1.6743  1.1003
16937SOL    HW251655   1.737   1.919   4.218  1.9524 -0.2034  0.5897
16938SOL     OW51656   3.861   1.736   7.120 -0.0582  0.3480 -0.0773
16938SOL    HW151657   3.947   1.755   7.083  0.1894 -0.3551  0.1236
16938SOL    HW251658   3.867   1.646   7.152 -0.8109  0.3496  0.1071
16939SOL     OW51659   4.826   5.067   4.961 -0.6695 -0.6753  0.4213
16939SOL    HW151660   4.795   5.120   4.888  0.7893  1.5102  1.2683
16939SOL    HW251661   4.762   5.083   5.031 -0.7132 -0.7620  0.4017
16940SOL     OW51662   3.293   3.796   5.783 -0.5255  0.4591  0.4576
16940SOL    HW151663   3.270   3.819   5.693  0.4661  2.7333  0.7172
16940SOL    HW251664   3.225   3.838   5.836 -0.3205  0.3337  0.8196
16941SOL     OW51665   4.430   4.735   8.024 -0.1372 -0.0722  0.0963
16941SOL    HW151666   4.406   4.819   7.985  2.2407 -0.7688 -3.3841
16941SOL    HW251667   4.355   4.678   8.007 -0.7130  0.6783  0.0936
16942SOL     OW51668   0.132   0.950   4.967 -0.3958  0.0780 -0.0234
16942SOL    HW151669   0.050   0.926   5.011 -0.6819 -0.0306 -0.6035
16942SOL    HW251670   0.110   1.028   4.917 -0.0709  0.2033  0.0308
16943SOL     OW51671   1.862   7.773   0.119 -0.2730  0.4967  0.1967
16943SOL    HW151672   1.948   7.812   0.104 -0.1847  0.9082  1.5724
16943SOL    HW251673   1.834   7.810   0.203 -1.1188 -0.7989  0.5168
16944SOL     OW51674   2.133   3.259   7.967  0.7711 -0.7679  0.0453
16944SOL    HW151675   2.038   3.251   7.970  0.7584 -0.3544  1.0103
16944SOL    HW251676   2.153   3.270   7.874 -0.1568 -0.4543 -0.1246
16945SOL     OW51677   1.254   0.718   7.557 -0.9295  0.3405  0.3447
16945SOL    HW151678   1.174   0.667   7.543 -1.0853  0.8089 -0.4854
16945SOL    HW251679   1.261   0.724   7.653 -2.2533  0.8539  0.4340
16946SOL     OW51680   0.793   1.396   0.738 -0.3422 -0.1877  0.1152
16946SOL    HW151681   0.766   1.460   0.671 -1.6736  1.7351  2.3439
16946SOL    HW251682   0.711   1.365   0.776  0.3398  0.6624  2.4805
16947SOL     OW51683   7.749   0.102   2.041 -0.1188 -0.1693 -0.4609
16947SOL    HW151684   7.695   0.120   2.117 -1.2025 -1.2373 -0.9473
16947SOL    HW251685   7.689   0.109   1.966  0.9653  1.0742 -1.2489
16948SOL     OW51686   2.797   0.477   7.503  0.0739 -0.4223  0.0240
16948SOL    HW151687   2.856   0.514   7.569  0.4030  0.1600 -0.5752
16948SOL    HW251688   2.732   0.546   7.488 -0.4381 -0.8440  0.2776
16949SOL     OW51689   4.120   8.212   4.416 -0.5218  0.1197 -0.3008
16949SOL    HW151690   4.057   8.264   4.466 -0.8249 -0.7861  0.2769
16949SOL    HW251691   4.187   8.187   4.481 -0.5695 -0.5125 -0.4885
16950SOL     OW51692   2.927   3.357   4.000  0.6159  0.0744 -0.0423
16950SOL    HW151693   2.960   3.349   4.090  2.7950 -0.3380 -0.8268
16950SOL    HW251694   3.001   3.389   3.950 -0.6091  0.4394 -1.7068
16951SOL     OW51695   7.306   0.267   1.774  0.3591  0.4253  0.2889
16951SOL    HW151696   7.364   0.310   1.837 -1.0052  0.8708  1.2825
16951SOL    HW251697   7.329   0.308   1.690  1.9734  0.0604  0.5060
16952SOL     OW51698   6.521   1.676   2.014  0.0141  0.3417 -0.0451
16952SOL    HW151699   6.449   1.678   2.077  1.5441 -0.0802  1.8167
16952SOL    HW251700   6.533   1.767   1.988 -2.3916  0.2300 -1.9516
16953SOL     OW51701   2.991   3.286   6.483  0.5224  0.0949  0.3292
16953SOL    HW151702   3.065   3.230   6.506  0.2477 -0.1341  0.6766
16953SOL    HW251703   2.916   3.247   6.529 -0.0719 -0.4209 -1.0169
16954SOL     OW51704   3.908   0.815   5.948 -0.2722  0.1656  0.6799
16954SOL    HW151705   3.825   0.848   5.912 -0.3807 -0.3144  0.4869
16954SOL    HW251706   3.911   0.723   5.921 -0.7635 -0.4498  2.6010
16955SOL     OW51707   8.075   7.924   5.565  0.0368 -0.0050  0.4421
16955SOL    HW151708   8.064   7.941   5.659 -0.6913 -0.5973  0.4739
16955SOL    HW251709   7.995   7.878   5.540  0.2920  0.0272 -0.4432
16956SOL     OW51710   1.769   3.771   3.320 -0.0380  0.5902  0.2204
16956SOL    HW151711   1.756   3.693   3.265 -0.1624  0.1616  0.8495
16956SOL    HW251712   1.736   3.745   3.406 -0.9873  1.6629  0.2053
16957SOL     OW51713   1.686   4.713   1.948  0.0779  0.0667 -0.3327
16957SOL    HW151714   1.664   4.742   1.859  1.3667 -1.2290 -1.1213
16957SOL    HW251715   1.781   4.717   1.951  0.1045 -0.9681  0.6180
16958SOL     OW51716   4.137   3.738   0.480 -0.0447 -0.8365  0.3435
16958SOL    HW151717   4.154   3.645   0.467 -0.1972 -1.1493  2.1316
16958SOL    HW251718   4.044   3.744   0.499  0.0735 -0.3796  0.8036
16959SOL     OW51719   7.494   2.506   0.981  0.7568 -0.0768  0.2022
16959SOL    HW151720   7.588   2.507   0.959  0.0545  0.1257 -3.3924
16959SOL    HW251721   7.479   2.417   1.013  1.6666 -1.2532 -2.3542
16960SOL     OW51722   4.010   3.151   4.699  0.4123 -0.7722 -0.3390
16960SOL    HW151723   3.986   3.237   4.735  0.9917 -1.2818  1.3991
16960SOL    HW251724   4.103   3.142   4.721  0.7486 -1.2076 -1.8818
16961SOL     OW51725   0.077   1.599   1.237  0.9048 -0.0586  0.3324
16961SOL    HW151726   0.030   1.593   1.154  3.3242 -1.6152 -1.0325
16961SOL    HW251727   0.038   1.675   1.280  0.0116  1.2584 -2.5208
16962SOL     OW51728   3.383   6.795   5.927 -0.2344 -0.6454 -0.3739
16962SOL    HW151729   3.417   6.855   5.861  0.3636 -0.3030  0.2383
16962SOL    HW251730   3.417   6.828   6.010 -2.8749  0.3266  0.4278
16963SOL     OW51731   2.033   3.423   7.030 -0.0102 -0.0835  0.3974
16963SOL    HW151732   2.003   3.332   7.037 -1.0540  0.2933  1.2276
16963SOL    HW251733   2.057   3.446   7.120  0.7806  0.2951  0.0940
16964SOL     OW51734   3.175   0.977   7.920  0.0601 -0.0576  0.2944
16964SOL    HW151735   3.261   0.965   7.959  0.8218 -1.6013 -1.6629
16964SOL    HW251736   3.114   0.966   7.993  1.4248 -1.4519  1.2939
16965SOL     OW51737   8.031   2.995   3.214  0.1004  0.1396  0.5285
16965SOL    HW151738   8.030   2.923   3.278  1.3570  0.2455  0.6958
16965SOL    HW251739   8.122   3.000   3.185 -0.0736  1.3252  0.1261
16966SOL     OW51740   0.976   1.644   5.807 -0.0511 -0.3039  0.2964
16966SOL    HW151741   1.016   1.557   5.811 -1.1616 -0.8739 -0.6697
16966SOL    HW251742   0.900   1.633   5.751  0.2354  1.4851 -0.4979
16967SOL     OW51743   3.968   6.704   0.130  0.0896 -0.2393  0.0743
16967SOL    HW151744   4.005   6.680   0.045 -0.7845 -1.6875  0.0453
16967SOL    HW251745   3.940   6.620   0.167 -1.2698  0.5694  0.9506
16968SOL     OW51746   3.598   5.717   5.344 -0.3843  0.2397  0.3745
16968SOL    HW151747   3.598   5.630   5.305 -0.3777  0.1847  0.4978
16968SOL    HW251748   3.625   5.703   5.434  0.0474  0.4239  0.2746
16969SOL     OW51749   7.271   4.549   0.590  0.0615  0.6853 -0.6772
16969SOL    HW151750   7.229   4.483   0.535  1.8425  0.3912 -1.7411
16969SOL    HW251751   7.250   4.522   0.679 -0.7718 -0.2606 -1.1337
16970SOL     OW51752   5.498   0.284   6.897 -0.1569 -0.1976 -0.3038
16970SOL    HW151753   5.569   0.345   6.913 -0.4741 -0.4169  2.4399
16970SOL    HW251754   5.540   0.198   6.896  0.2341 -0.1115 -3.7826
16971SOL     OW51755   3.570   5.701   1.199  0.2673 -0.2037 -0.1022
16971SOL    HW151756   3.658   5.665   1.198 -0.0795 -1.1169  0.7733
16971SOL    HW251757   3.560   5.743   1.113  1.3361 -0.6039 -0.4311
16972SOL     OW51758   0.836   2.161   0.983 -0.7195 -0.3895 -0.6686
16972SOL    HW151759   0.796   2.158   1.070 -0.0198  3.6345 -0.0202
16972SOL    HW251760   0.795   2.236   0.940  1.1660 -0.3654 -2.6091
16973SOL     OW51761   7.946   4.792   7.723  0.3578 -0.9692 -0.0463
16973SOL    HW151762   7.935   4.808   7.817  1.5974 -1.7751  0.2501
16973SOL    HW251763   7.886   4.720   7.704  1.5821 -2.1874  0.5761
16974SOL     OW51764   2.967   6.349   5.256  0.1927  0.5015 -0.4504
16974SOL    HW151765   3.005   6.421   5.308 -1.0161  0.7579  0.1266
16974SOL    HW251766   2.896   6.316   5.311  0.7995 -1.2264 -0.6703
16975SOL     OW51767   3.892   7.930   4.236  0.5889  1.1473 -0.4999
16975SOL    HW151768   3.840   7.850   4.243 -0.0717  1.5259 -1.0107
16975SOL    HW251769   3.981   7.899   4.218  0.2407  0.5430 -1.2271
16976SOL     OW51770   6.609   1.721   6.235 -0.3207 -0.6408  0.1124
16976SOL    HW151771   6.648   1.801   6.200 -0.0421 -0.6363  0.4269
16976SOL    HW251772   6.683   1.674   6.274 -1.0338  0.7144  3.3683
16977SOL     OW51773   3.861   6.326   2.030  0.0131 -0.3259 -0.0427
16977SOL    HW151774   3.801   6.297   2.098 -0.3362  0.5124  0.0178
16977SOL    HW251775   3.870   6.250   1.972 -0.1125 -0.8642  0.6281
16978SOL     OW51776   0.389   1.752   0.079 -0.2207 -0.1097 -0.1153
16978SOL    HW151777   0.317   1.805   0.045  0.6009 -0.0766 -1.9456
16978SOL    HW251778   0.349   1.696   0.146 -1.6372  0.8867 -0.0858
16979SOL     OW51779   4.945   2.227   6.070  1.0139  0.7862 -0.2017
16979SOL    HW151780   4.921   2.181   5.990 -1.8706  2.4915 -0.4453
16979SOL    HW251781   5.028   2.187   6.097  0.8200 -1.5178 -2.6558
16980SOL     OW51782   4.861   7.873   2.898  0.2513 -0.5022 -0.3462
16980SOL    HW151783   4.936   7.844   2.949  1.2914  0.8885 -1.0278
16980SOL    HW251784   4.825   7.947   2.948 -0.2023 -0.6825 -0.4024
16981SOL     OW51785   6.054   4.804   5.724  0.3245 -0.6396  0.2880
16981SOL    HW151786   6.051   4.742   5.651  0.4566 -0.6081  0.2541
16981SOL    HW251787   6.115   4.765   5.786 -1.6166 -1.8759  1.5182
16982SOL     OW51788   4.917   4.262   3.736  0.1763 -0.4463  0.2400
16982SOL    HW151789   4.915   4.167   3.745 -0.7058 -0.3878  0.8204
16982SOL    HW251790   4.924   4.278   3.642 -0.4747 -1.0898  0.0726
16983SOL     OW51791   6.958   7.929   0.714  0.3366 -0.1385  0.5363
16983SOL    HW151792   6.974   7.933   0.808 -0.5788 -2.2702  0.8227
16983SOL    HW251793   7.035   7.885   0.678  0.8735  1.0354  0.2037
16984SOL     OW51794   2.783   1.374   7.033  0.0046  0.5533  0.0270
16984SOL    HW151795   2.709   1.328   7.072  0.2338  0.1935  0.0367
16984SOL    HW251796   2.835   1.404   7.108 -0.6625  1.7031  0.0566
16985SOL     OW51797   5.989   7.428   3.377 -0.5722 -0.4155  0.3837
16985SOL    HW151798   6.006   7.374   3.454 -2.1900 -0.1622  0.9678
16985SOL    HW251799   5.944   7.369   3.316 -0.2507 -0.3378  0.0716
16986SOL     OW51800   4.274   5.379   4.190 -0.6381 -0.1355 -0.0379
16986SOL    HW151801   4.227   5.395   4.272  0.7380  1.4349  0.4996
16986SOL    HW251802   4.234   5.439   4.127  0.0009  0.5424  0.1849
16987SOL     OW51803   2.878   2.416   6.729  0.2376  0.7135 -0.0514
16987SOL    HW151804   2.920   2.455   6.806 -1.0827  2.3458 -0.0957
16987SOL    HW251805   2.794   2.461   6.723  0.2028  0.4412 -2.3174
16988SOL     OW51806   1.406   8.076   4.702  1.2937  0.4114 -0.1678
16988SOL    HW151807   1.424   8.077   4.796 -0.4947  2.8828  0.2681
16988SOL    HW251808   1.442   8.158   4.670  1.1706 -0.0264 -1.4937
16989SOL     OW51809   6.130   4.272   2.533  0.2365 -0.0395 -0.3632
16989SOL    HW151810   6.122   4.302   2.623 -0.8349  0.7110 -0.6748
16989SOL    HW251811   6.121   4.177   2.537  0.6300 -0.0487  0.3534
16990SOL     OW51812   3.126   3.993   0.191 -0.8915 -0.4635 -0.6487
16990SOL    HW151813   3.143   3.996   0.097 -1.6336 -0.8358 -0.8026
16990SOL    HW251814   3.112   3.900   0.210  0.3550 -0.5314  0.0412
16991SOL     OW51815   1.264   0.745   7.872  0.0340  0.0112  0.1388
16991SOL    HW151816   1.264   0.840   7.860  1.0619 -0.0978 -0.8594
16991SOL    HW251817   1.354   0.723   7.895 -0.0138 -0.8015 -0.3791
16992SOL     OW51818   2.805   0.024   7.596 -0.0584  0.6880  0.1868
16992SOL    HW151819   2.737  -0.041   7.612  0.4385  0.2121  0.3839
16992SOL    HW251820   2.772   0.104   7.638  0.1217  0.1011  1.5025
16993SOL     OW51821   5.129   6.794   3.103  0.3947  0.5484 -0.7656
16993SOL    HW151822   5.191   6.803   3.176 -1.5801  3.9908  0.7620
16993SOL    HW251823   5.152   6.865   3.043 -0.3663  0.1341 -1.5786
16994SOL     OW51824   3.978   4.488   1.072  0.1085  0.1296 -0.0470
16994SOL    HW151825   3.979   4.400   1.108 -1.4507  0.0543 -0.1130
16994SOL    HW251826   4.068   4.520   1.084  0.5639 -1.2563  0.4497
16995SOL     OW51827   4.424   4.470   6.821 -0.7963  0.1932 -0.3035
16995SOL    HW151828   4.393   4.489   6.909  0.1848 -1.9192  0.5606
16995SOL    HW251829   4.520   4.475   6.828 -0.6503 -1.3707 -0.8670
16996SOL     OW51830   3.836   0.035   7.682  0.0776 -0.5428 -0.0087
16996SOL    HW151831   3.751   0.031   7.725 -0.2192 -1.3411 -0.6529
16996SOL    HW251832   3.831  -0.031   7.613 -0.4730  2.3850 -3.0308
16997SOL     OW51833   7.819   6.390   1.048  0.0528 -0.4530 -0.5244
16997SOL    HW151834   7.842   6.327   1.116  0.0322 -2.0937 -1.9636
16997SOL    HW251835   7.840   6.475   1.086  2.0667 -1.4342  0.7438
16998SOL     OW51836   3.415   2.021   2.973  0.0407  0.4251  0.0398
16998SOL    HW151837   3.446   2.013   3.064 -0.4629 -0.0454  0.1745
16998SOL    HW251838   3.359   2.099   2.974  0.2860  0.6041  0.0575
16999SOL     OW51839   0.919   7.012   1.902  0.3882  0.3591 -0.4666
16999SOL    HW151840   0.875   6.937   1.943  0.5265  0.7064  0.3275
16999SOL    HW251841   0.908   7.083   1.964  1.0909  0.7542 -0.7860
17000SOL     OW51842   4.194   1.053   3.638  0.3533  0.0082 -0.3522
17000SOL    HW151843   4.124   1.067   3.701 -0.1407 -0.8527 -0.7024
17000SOL    HW251844   4.209   1.140   3.600  0.9205  0.6204  1.1874
17001SOL     OW51845   2.888   6.772   0.698  0.3153  0.7309  0.1862
17001SOL    HW151846   2.931   6.737   0.776  2.2875 -0.4946 -1.3690
17001SOL    HW251847   2.829   6.703   0.670 -0.0702  1.0003  0.3176
17002SOL     OW51848   7.723   4.505   7.378 -0.3030 -0.8641 -0.0823
17002SOL    HW151849   7.806   4.491   7.424 -0.4824 -1.3526  0.0958
17002SOL    HW251850   7.720   4.599   7.363  0.2620 -0.8360 -0.0429
17003SOL     OW51851   8.100   7.525   4.296 -0.2641 -0.1578 -0.2227
17003SOL    HW151852   8.150   7.456   4.339 -0.1734 -0.1807 -0.3654
17003SOL    HW251853   8.026   7.480   4.255 -0.3667 -0.1321 -0.0655
17004SOL     OW51854   3.194   5.885   8.178 -0.0108 -0.1027 -0.0175
17004SOL    HW151855   3.233   5.936   8.107 -2.6022  0.6777 -1.0276
17004SOL    HW251856   3.108   5.925   8.192 -0.2459 -1.2618  2.4927
17005SOL     OW51857   1.586   7.586   5.848 -0.5209  0.6027 -0.0916
17005SOL    HW151858   1.659   7.639   5.880 -0.1199 -0.7951  1.4747
17005SOL    HW251859   1.624   7.532   5.779 -0.4973  1.0787 -0.4548
17006SOL     OW51860   7.173   3.622   3.727 -0.0994  0.1424  0.4649
17006SOL    HW151861   7.164   3.635   3.822 -3.3473  3.0036 -0.0195
17006SOL    HW251862   7.222   3.698   3.697 -2.3682  1.3425 -0.4372
17007SOL     OW51863   6.634   6.777   1.677  0.0077 -0.9105 -0.4154
17007SOL    HW151864   6.575   6.717   1.724 -0.4533 -1.3934 -1.5670
17007SOL    HW251865   6.577   6.825   1.618  0.5143  0.0334 -0.1501
17008SOL     OW51866   0.609   0.781   3.717 -0.1801 -0.0495  0.2128
17008SOL    HW151867   0.703   0.779   3.699 -0.4763  1.5463 -2.0097
17008SOL    HW251868   0.577   0.856   3.666 -2.8184 -1.1874  0.0453
17009SOL     OW51869   7.390   0.179   1.218 -0.0294 -0.1189 -0.5127
17009SOL    HW151870   7.461   0.194   1.157 -0.9794 -0.7533 -1.8115
17009SOL    HW251871   7.329   0.122   1.172 -0.8920 -0.4420  0.9430
17010SOL     OW51872   4.709   4.937   2.919  0.0601  0.3726  0.0892
17010SOL    HW151873   4.651   4.977   2.983  0.6149 -0.9668  1.4754
17010SOL    HW251874   4.722   4.847   2.951  2.3850  0.4499 -0.5203
17011SOL     OW51875   4.089   7.679   3.961  0.2632  0.0448 -0.3746
17011SOL    HW151876   4.085   7.767   3.923 -0.6332  0.2289  0.1105
17011SOL    HW251877   4.104   7.695   4.055  0.9690 -0.3508 -0.4143
17012SOL     OW51878   7.463   5.846   7.403 -0.1206  0.1000  0.5129
17012SOL    HW151879   7.514   5.881   7.330 -2.5532  1.2819 -0.7312
17012SOL    HW251880   7.504   5.884   7.481  0.9103  0.9489 -0.4085
17013SOL     OW51881   6.271   2.699   3.554  0.0483  0.2292  0.5464
17013SOL    HW151882   6.217   2.641   3.500 -1.5336  1.2707  0.9294
17013SOL    HW251883   6.321   2.751   3.491  1.0605 -1.1149  0.1926
17014SOL     OW51884   4.578   7.533   1.569  0.0865  0.2498 -0.0522
17014SOL    HW151885   4.549   7.614   1.527  0.6075  0.6484  0.3421
17014SOL    HW251886   4.576   7.552   1.663 -0.4205 -0.4139  0.0797
17015SOL     OW51887   2.534   0.428   5.592  0.1726  0.1553 -0.4229
17015SOL    HW151888   2.512   0.515   5.558 -1.2958  0.1973  0.5766
17015SOL    HW251889   2.450   0.383   5.599  0.6453 -0.4993  1.3366
17016SOL     OW51890   5.028   5.533   0.519  0.0602  0.1502  0.5598
17016SOL    HW151891   4.976   5.575   0.451 -0.8636 -3.1617 -1.0105
17016SOL    HW251892   4.964   5.498   0.582  0.7531  0.7929  1.6581
17017SOL     OW51893   1.784   3.206   2.105  0.2510  0.3780 -0.3805
17017SOL    HW151894   1.706   3.191   2.052  0.6001  0.9539 -1.0717
17017SOL    HW251895   1.780   3.299   2.128 -0.8468 -0.2047  2.1706
17018SOL     OW51896   7.287   5.027   1.534  0.1413  0.2801 -0.3401
17018SOL    HW151897   7.294   5.037   1.629 -3.4288 -0.5475  0.1574
17018SOL    HW251898   7.323   4.940   1.517 -0.9063 -0.3479  0.5620
17019SOL     OW51899   5.829   7.949   6.276  0.3407  0.3136  0.2307
17019SOL    HW151900   5.920   7.940   6.304  0.2933  0.1723  0.3443
17019SOL    HW251901   5.821   8.041   6.249 -0.2245  1.1720  2.9597
17020SOL     OW51902   3.413   3.239   5.381 -0.0062  0.6283  1.1313
17020SOL    HW151903   3.381   3.226   5.292 -2.1112  1.0505  1.7533
17020SOL    HW251904   3.376   3.166   5.430 -2.3886  2.5372  2.4079
17021SOL     OW51905   5.889   7.755   0.730  0.1010  0.1048  0.4358
17021SOL    HW151906   5.889   7.718   0.818  1.0913  1.7275  1.1712
17021SOL    HW251907   5.828   7.700   0.680 -0.3635 -0.9344  2.0825
17022SOL     OW51908   4.514   5.205   4.789 -0.1101  0.3568 -0.2233
17022SOL    HW151909   4.448   5.142   4.759  0.2271 -0.1814  0.1498
17022SOL    HW251910   4.540   5.173   4.876  1.6043 -0.2010 -0.9081
17023SOL     OW51911   5.549   6.588   1.352 -0.9341  0.6496 -0.4308
17023SOL    HW151912   5.503   6.619   1.429  0.5457 -0.3283  0.9050
17023SOL    HW251913   5.501   6.509   1.325 -1.0083  0.5622 -0.0384
17024SOL     OW51914   1.753   0.006   6.007  0.0006 -0.6397 -0.3353
17024SOL    HW151915   1.689  -0.029   6.070  0.7146 -2.0041 -0.3413
17024SOL    HW251916   1.838  -0.020   6.043  0.5607  0.8475 -0.5147
17025SOL     OW51917   2.421   3.665   7.198 -0.3459 -0.0370 -0.1899
17025SOL    HW151918   2.410   3.611   7.276 -2.4015 -0.9863 -1.0728
17025SOL    HW251919   2.375   3.618   7.129 -0.2137  1.7235 -1.5566
17026SOL     OW51920   7.492   4.719   6.203  0.0721 -0.0218 -0.4377
17026SOL    HW151921   7.565   4.697   6.261  0.6565  0.4680 -0.9908
17026SOL    HW251922   7.526   4.787   6.145 -2.2415  4.2806  2.6382
17027SOL     OW51923   0.571   5.615   4.358  0.2490 -0.2036 -0.2507
17027SOL    HW151924   0.524   5.603   4.276 -0.2132  0.3442 -0.0655
17027SOL    HW251925   0.649   5.559   4.349 -0.0584 -0.5438 -0.8478
17028SOL     OW51926   2.607   2.141   6.523  0.1710  0.4182 -0.1949
17028SOL    HW151927   2.634   2.166   6.435  0.8357 -0.8530 -0.3787
17028SOL    HW251928   2.521   2.183   6.535 -0.6794 -0.6758 -2.0470
17029SOL     OW51929   1.728   3.817   0.751 -0.1415  0.2700  0.2028
17029SOL    HW151930   1.739   3.760   0.827  0.8500  2.5774  1.9135
17029SOL    HW251931   1.743   3.759   0.676  0.4613 -1.7796  1.7967
17030SOL     OW51932   0.099   2.424   3.875 -0.1450  0.5698 -0.2089
17030SOL    HW151933   0.114   2.517   3.857 -1.0825  0.8349  0.3159
17030SOL    HW251934   0.030   2.399   3.814 -1.0508  0.6466  0.7690
17031SOL     OW51935   6.783   7.945   1.176 -0.3536  0.0506 -0.4652
17031SOL    HW151936   6.747   8.000   1.107 -1.1730 -1.1530 -1.0463
17031SOL    HW251937   6.854   7.996   1.213  0.6535  0.4461 -2.7320
17032SOL     OW51938   2.505   2.708   0.190 -0.3279 -0.2669  0.7098
17032SOL    HW151939   2.466   2.714   0.103  1.6543 -1.1602 -0.2984
17032SOL    HW251940   2.435   2.734   0.249 -1.3234  1.7961 -1.2249
17033SOL     OW51941   1.964   6.074   5.192 -0.4862  0.4063 -0.5067
17033SOL    HW151942   2.007   6.158   5.173 -0.1611  0.0691 -1.3410
17033SOL    HW251943   2.018   6.035   5.260 -0.7647  0.9624  0.0476
17034SOL     OW51944   4.082   5.325   1.554 -0.1062 -0.0618 -0.4141
17034SOL    HW151945   4.178   5.331   1.553 -0.0983  0.4759  0.7588
17034SOL    HW251946   4.056   5.337   1.463  0.8300  2.3638 -0.4349
17035SOL     OW51947   1.049   3.412   2.493  0.8400  0.1409 -0.5717
17035SOL    HW151948   0.961   3.449   2.502  2.1674  3.1309  1.8103
17035SOL    HW251949   1.041   3.322   2.525 -1.1559  0.6927  0.6283
17036SOL     OW51950   0.415   7.102   5.074  0.1621 -0.1386  0.2631
17036SOL    HW151951   0.322   7.122   5.083  0.0246 -1.1190  1.3619
17036SOL    HW251952   0.442   7.144   4.992 -0.8027  1.6903  0.8372
17037SOL     OW51953   2.435   1.518   4.768  0.2367  0.1371  0.2162
17037SOL    HW151954   2.511   1.516   4.710  0.1276 -1.0571  0.0930
17037SOL    HW251955   2.442   1.437   4.820 -2.5128 -1.6228 -1.8558
17038SOL     OW51956   0.148   7.080   7.672  0.1346 -0.1014 -0.6795
17038SOL    HW151957   0.058   7.090   7.641  0.5646  1.5826 -1.4930
17038SOL    HW251958   0.139   7.058   7.765 -1.1394  1.3307 -0.4121
17039SOL     OW51959   8.219   0.041   4.748  0.1620 -0.3805 -0.2878
17039SOL    HW151960   8.203   0.106   4.817 -0.1642 -1.7132  0.9419
17039SOL    HW251961   8.288  -0.015   4.784 -0.3814 -1.4210 -0.8153
17040SOL     OW51962   2.999   3.407   2.055 -0.6885 -0.3355  0.2679
17040SOL    HW151963   2.980   3.380   2.145  0.7085  0.2398  0.7652
17040SOL    HW251964   2.975   3.499   2.052  0.4724 -0.0045  0.4656
17041SOL     OW51965   5.448   2.252   0.799 -0.2106  0.2580 -0.1065
17041SOL    HW151966   5.406   2.338   0.790 -0.0257  0.2307 -1.3411
17041SOL    HW251967   5.461   2.242   0.893 -3.6956 -0.0558  0.4992
17042SOL     OW51968   7.728   3.725   6.407 -0.6220 -0.0959  0.3476
17042SOL    HW151969   7.733   3.679   6.323  1.7744 -1.8036  1.3029
17042SOL    HW251970   7.789   3.798   6.398  1.5051 -1.6537  1.2695
17043SOL     OW51971   6.324   8.014   1.897  0.6546 -0.0931  0.3730
17043SOL    HW151972   6.386   7.963   1.949 -0.4272 -0.8942  0.9191
17043SOL    HW251973   6.260   8.046   1.961 -0.2137 -0.3675 -0.3326
17044SOL     OW51974   0.482   6.032   5.100 -0.2380 -0.0354 -0.0426
17044SOL    HW151975   0.408   5.972   5.093  0.8309 -1.4040  0.0227
17044SOL    HW251976   0.442   6.118   5.112 -1.8136 -0.6396 -0.7656
17045SOL     OW51977   6.400   3.343   3.354  0.9051 -0.1728 -0.4118
17045SOL    HW151978   6.433   3.255   3.372 -0.8639 -0.8127 -0.0761
17045SOL    HW251979   6.309   3.330   3.328  0.3919  1.6088  0.3067
17046SOL     OW51980   1.189   3.925   0.800  0.1076  0.0428 -0.1078
17046SOL    HW151981   1.192   3.858   0.868 -0.3339  1.1288  1.0272
17046SOL    HW251982   1.109   3.974   0.818  1.0358  1.6333 -0.1364
17047SOL     OW51983   5.150   3.265   4.576  0.5059  0.1254  0.4482
17047SOL    HW151984   5.180   3.305   4.494  2.4181 -0.3339  0.8586
17047SOL    HW251985   5.113   3.337   4.626  0.8625  0.7360 -0.1562
17048SOL     OW51986   3.231   7.363   3.942 -0.0153  0.0849  0.4476
17048SOL    HW151987   3.238   7.269   3.959 -0.5555  0.5548  4.1220
17048SOL    HW251988   3.322   7.394   3.942  0.4031 -0.6150 -3.3748
17049SOL     OW51989   4.472   0.114   6.250 -0.0643  0.5201 -0.0747
17049SOL    HW151990   4.385   0.075   6.257  0.4585 -0.9968 -1.3240
17049SOL    HW251991   4.457   0.200   6.211 -1.1246  0.9809  1.2886
17050SOL     OW51992   0.068   0.123   0.487 -0.0871 -0.4463 -0.4139
17050SOL    HW151993   0.007   0.069   0.537  0.3111 -0.7103 -0.2177
17050SOL    HW251994   0.072   0.206   0.535 -0.2669 -0.4371 -0.4132
17051SOL     OW51995   4.650   6.159   3.276  0.0263 -0.0579  0.0701
17051SOL    HW151996   4.744   6.140   3.281  0.0135 -0.8379 -1.7426
17051SOL    HW251997   4.646   6.254   3.265  0.5485  0.0672  0.8638
17052SOL     OW51998   4.295   1.016   7.070 -0.0410  0.5723  0.7146
17052SOL    HW151999   4.239   0.940   7.082 -0.1203  0.4731 -0.1976
17052SOL    HW252000   4.279   1.070   7.147 -2.0623  0.9542  0.0986
17053SOL     OW52001   7.535   5.337   2.718 -0.3524 -0.0446 -0.6152
17053SOL    HW152002   7.454   5.302   2.757 -0.7699 -0.2023 -1.5941
17053SOL    HW252003   7.578   5.261   2.680  0.2650  0.0417 -0.0903
17054SOL     OW52004   8.147   1.919   4.217  0.3061 -0.6423  0.4126
17054SOL    HW152005   8.088   1.993   4.203  0.3715 -0.8184 -0.8472
17054SOL    HW252006   8.132   1.861   4.142 -0.0140 -2.1002  1.5506
17055SOL     OW52007   3.398   0.249   1.000 -0.5103  0.0629  0.0113
17055SOL    HW152008   3.470   0.283   1.053 -1.6301  1.9683  0.4176
17055SOL    HW252009   3.348   0.192   1.060  0.1859 -0.6311 -0.0516
17056SOL     OW52010   6.935   7.640   6.022  0.3017 -0.1850 -0.1280
17056SOL    HW152011   7.017   7.658   5.976 -0.4910  2.5011 -0.6643
17056SOL    HW252012   6.956   7.649   6.115  0.7163 -0.0072 -0.2406
17057SOL     OW52013   4.326   8.146   7.933 -0.3965  0.1212 -0.3197
17057SOL    HW152014   4.360   8.058   7.950  2.7389  1.5088  1.6648
17057SOL    HW252015   4.378   8.178   7.859 -0.1046  0.9581  0.2356
17058SOL     OW52016   6.993   3.700   1.495  0.6788 -0.3018  0.2645
17058SOL    HW152017   6.962   3.764   1.431  0.6362  1.3409  1.8374
17058SOL    HW252018   7.080   3.732   1.521  1.0249 -1.3679  0.4843
17059SOL     OW52019   3.551   7.250   1.544 -0.3934  0.2027  0.5872
17059SOL    HW152020   3.575   7.160   1.521 -0.6840  0.2864 -0.0714
17059SOL    HW252021   3.616   7.275   1.610  1.5813  0.5249 -1.3359
17060SOL     OW52022   5.141   6.878   2.196 -0.0948 -0.1462  0.1960
17060SOL    HW152023   5.102   6.929   2.124 -0.1013  1.1302  1.0773
17060SOL    HW252024   5.137   6.788   2.165 -0.1706  0.3554 -1.3830
17061SOL     OW52025   0.318   7.119   4.458 -0.4692  0.0100 -0.0930
17061SOL    HW152026   0.223   7.107   4.461 -0.3584 -1.1256 -0.4504
17061SOL    HW252027   0.343   7.138   4.549 -1.1146  1.1168 -0.1322
17062SOL     OW52028   4.503   5.710   7.519 -0.6824  0.0533 -0.2798
17062SOL    HW152029   4.569   5.641   7.510 -0.8466  0.0097 -1.2299
17062SOL    HW252030   4.521   5.769   7.446 -1.6672  0.0640 -0.5189
17063SOL     OW52031   8.066   2.802   1.646  0.2394 -0.0630  0.5089
17063SOL    HW152032   8.061   2.817   1.552  2.7760  1.7250  0.5639
17063SOL    HW252033   8.102   2.883   1.681 -0.0488 -0.9246  2.9614
17064SOL     OW52034   6.509   8.165   0.505  0.1759 -0.0776 -0.5211
17064SOL    HW152035   6.493   8.076   0.472  0.1265 -0.2597 -0.0175
17064SOL    HW252036   6.441   8.178   0.571 -1.2365  1.1850 -2.1244
17065SOL     OW52037   3.241   6.873   3.275 -0.1503 -0.7150  0.4212
17065SOL    HW152038   3.230   6.786   3.313  1.1764 -1.1135 -0.0563
17065SOL    HW252039   3.205   6.932   3.341 -1.2525 -1.6204  0.6681
17066SOL     OW52040   5.416   0.483   7.350  0.1306 -0.5623  0.1446
17066SOL    HW152041   5.488   0.460   7.409  1.3752 -1.6609 -1.7093
17066SOL    HW252042   5.346   0.422   7.373 -0.3606  0.6734  2.1282
17067SOL     OW52043   4.276   2.932   1.331 -0.5794 -0.1055 -0.4924
17067SOL    HW152044   4.353   2.890   1.292 -0.6138  0.4076 -1.1242
17067SOL    HW252045   4.227   2.967   1.257 -0.9868  0.3116 -0.0379
17068SOL     OW52046   4.808   5.823   4.204 -0.7958  0.1310  0.4959
17068SOL    HW152047   4.804   5.817   4.109 -0.0176  1.3561  0.3619
17068SOL    HW252048   4.749   5.754   4.235 -0.8167 -0.5004 -0.8574
17069SOL     OW52049   7.828   5.528   8.155  0.2595  0.3572  0.2126
17069SOL    HW152050   7.846   5.615   8.190  1.1538  0.8944 -1.4767
17069SOL    HW252051   7.850   5.534   8.062  2.9163 -2.3792  0.4884
17070SOL     OW52052   3.892   7.051   8.077  0.2839 -0.3019 -0.3072
17070SOL    HW152053   3.923   6.963   8.100  1.6868 -0.0964 -1.3182
17070SOL    HW252054   3.971   7.101   8.061 -0.5284  0.3671 -2.5510
17071SOL     OW52055   4.260   5.775   0.235  0.3071 -0.1324  0.2288
17071SOL    HW152056   4.256   5.726   0.317  0.2956  0.2775  0.4806
17071SOL    HW252057   4.214   5.721   0.171  2.1385 -1.4790 -0.0499
17072SOL     OW52058   1.158   0.411   2.119  0.2846  0.3649  0.3114
17072SOL    HW152059   1.147   0.322   2.087 -0.1965  0.0473  1.3326
17072SOL    HW252060   1.230   0.406   2.181  2.3791  1.3041 -1.8527
17073SOL     OW52061   2.190   3.967   3.289  0.6202 -0.0992  0.2048
17073SOL    HW152062   2.234   4.051   3.299 -0.3798  0.1691  3.1824
17073SOL    HW252063   2.257   3.909   3.252  1.9402  1.4693  0.0359
17074SOL     OW52064   0.654   1.520   1.606 -0.1301 -0.3512 -0.2192
17074SOL    HW152065   0.564   1.544   1.628  0.8726  3.3276  0.4445
17074SOL    HW252066   0.693   1.493   1.689  0.2401  1.2879  0.1586
17075SOL     OW52067   1.603   5.638   3.481  0.3755  0.1309 -0.5035
17075SOL    HW152068   1.531   5.674   3.429 -0.2629 -0.2447  0.1017
17075SOL    HW252069   1.581   5.546   3.492  1.1506 -0.0735 -0.6364
17076SOL     OW52070   6.037   2.049   2.245 -0.2046  0.3532  0.2977
17076SOL    HW152071   6.103   2.038   2.177  0.5312  0.9487  0.9028
17076SOL    HW252072   6.008   2.140   2.237 -2.5768 -0.4452 -1.3851
17077SOL     OW52073   2.506   4.925   6.299  0.0107 -0.5954  0.2691
17077SOL    HW152074   2.557   4.986   6.352 -0.6977 -0.6529  1.0354
17077SOL    HW252075   2.462   4.869   6.363 -1.0363 -0.5284 -0.3758
17078SOL     OW52076   5.520   4.900   7.315  0.1561  0.0603 -0.3865
17078SOL    HW152077   5.542   4.924   7.225  0.8934 -0.0910 -0.2577
17078SOL    HW252078   5.578   4.955   7.369  0.4256 -0.5516 -0.0412
17079SOL     OW52079   4.682   6.813   3.835 -0.0173  0.4721 -0.4408
17079SOL    HW152080   4.601   6.864   3.828  0.1989  0.9241  0.2602
17079SOL    HW252081   4.661   6.730   3.792 -0.9633  0.4569  0.0139
17080SOL     OW52082   4.286   5.012   1.487  0.3847 -0.5607  0.2464
17080SOL    HW152083   4.329   5.097   1.485 -0.4023 -0.0631  2.0950
17080SOL    HW252084   4.230   5.011   1.410  0.3375  0.6434  0.2436
17081SOL     OW52085   5.510   4.662   7.610  0.3048 -0.1549 -0.2015
17081SOL    HW152086   5.488   4.689   7.699 -0.7243  2.8336 -1.2113
17081SOL    HW252087   5.429   4.675   7.560  1.3494  0.1337 -1.9218
17082SOL     OW52088   2.749   0.996   1.240  0.3532  0.2221 -0.0088
17082SOL    HW152089   2.743   0.922   1.180 -0.5436 -0.3004  0.6908
17082SOL    HW252090   2.755   1.073   1.184  2.4870 -0.4334 -0.7556
17083SOL     OW52091   0.481   0.280   5.762 -0.4710  0.0256 -0.2880
17083SOL    HW152092   0.390   0.252   5.775 -0.2633 -0.0446  1.2592
17083SOL    HW252093   0.477   0.339   5.687 -1.6765 -0.5127 -0.6798
17084SOL     OW52094   6.542   3.108   3.336  0.2135 -0.4548  0.0562
17084SOL    HW152095   6.637   3.105   3.350  0.2091  2.0934  0.9820
17084SOL    HW252096   6.529   3.057   3.255  2.5085  0.2047 -0.8180
17085SOL     OW52097   2.621   0.406   4.696  0.3139  0.3686  0.5737
17085SOL    HW152098   2.551   0.441   4.751  0.4745 -0.7739  1.5554
17085SOL    HW252099   2.577   0.345   4.637  0.3123  0.6158  0.3196
17086SOL     OW52100   0.555   3.270   6.136  0.2988  0.1054  0.1432
17086SOL    HW152101   0.467   3.289   6.103  0.4610  1.1279  0.2650
17086SOL    HW252102   0.543   3.194   6.193 -0.7145  0.9160  1.0613
17087SOL     OW52103   1.159   8.085   5.266 -0.3637 -0.3386  0.3242
17087SOL    HW152104   1.127   8.026   5.198  0.3327 -0.5162  0.1438
17087SOL    HW252105   1.224   8.034   5.313  0.5681  0.4242 -0.1113
17088SOL     OW52106   0.492   8.145   1.117 -0.4198  0.1146  0.3720
17088SOL    HW152107   0.398   8.126   1.115 -0.1710 -1.2735  0.8056
17088SOL    HW252108   0.534   8.060   1.109  0.7926  0.5962  1.3257
17089SOL     OW52109   4.119   6.542   8.052  0.1484  0.0894 -0.2066
17089SOL    HW152110   4.082   6.485   8.120  0.2370 -0.1010 -0.3180
17089SOL    HW252111   4.098   6.498   7.970  1.7833 -0.7404 -0.2342
17090SOL     OW52112   2.656   0.901   6.060 -0.2954 -0.3959 -0.1532
17090SOL    HW152113   2.581   0.919   6.003  0.5661  0.4568 -1.0447
17090SOL    HW252114   2.630   0.822   6.109 -1.1512 -1.0163 -1.5398
17091SOL     OW52115   2.001   2.661   6.635  0.0956 -0.0655 -0.3704
17091SOL    HW152116   1.935   2.694   6.574 -2.0318 -1.3341  1.1173
17091SOL    HW252117   1.970   2.574   6.660  0.7201  0.4551  2.6282
17092SOL     OW52118   0.880   7.212   2.765  0.0949 -0.2865  0.0320
17092SOL    HW152119   0.964   7.249   2.793  0.5704 -1.3263  0.0543
17092SOL    HW252120   0.904   7.130   2.722 -0.9098 -0.5611 -0.0220
17093SOL     OW52121   1.148   2.343   1.632 -0.5859 -0.2282  0.1546
17093SOL    HW152122   1.197   2.424   1.645  1.6756 -1.7122  1.6934
17093SOL    HW252123   1.124   2.344   1.540 -0.4116  2.0492  0.0824
17094SOL     OW52124   3.351   5.342   6.252  0.3979 -0.0363 -0.0513
17094SOL    HW152125   3.286   5.333   6.181 -0.1206  0.4252  0.3573
17094SOL    HW252126   3.348   5.258   6.297 -0.8075  0.3878  0.7018
17095SOL     OW52127   7.705   3.986   5.786 -0.1503 -0.0259  0.4844
17095SOL    HW152128   7.634   3.922   5.793  0.3023 -0.5513  0.2960
17095SOL    HW252129   7.667   4.058   5.735 -0.3283 -0.6267 -0.2467
17096SOL     OW52130   0.617   3.534   3.289 -0.5979 -0.0930  0.2874
17096SOL    HW152131   0.601   3.442   3.268 -2.2466  0.4835 -1.2431
17096SOL    HW252132   0.653   3.532   3.378 -0.5805 -2.1964  0.2912
17097SOL     OW52133   4.577   4.035   0.428 -0.2622 -0.1098  0.0441
17097SOL    HW152134   4.667   4.015   0.403  1.0320  1.7636  2.7952
17097SOL    HW252135   4.533   3.950   0.427  1.8094 -1.2516 -0.2749
17098SOL     OW52136   3.413   4.372   1.377  0.0490 -0.6163 -0.0964
17098SOL    HW152137   3.488   4.365   1.318  1.1675 -0.6054  1.2688
17098SOL    HW252138   3.405   4.466   1.393  0.4155 -0.6979  0.5823
17099SOL     OW52139   7.192   0.784   5.337  0.0424  0.4090  0.1624
17099SOL    HW152140   7.186   0.802   5.431  0.3331  1.0734  0.0571
17099SOL    HW252141   7.104   0.756   5.313  0.4030 -1.5823  0.9863
17100SOL     OW52142   0.466   4.644   4.364 -0.1784 -0.3282  0.2626
17100SOL    HW152143   0.457   4.704   4.291 -1.5519 -0.5743  0.2000
17100SOL    HW252144   0.443   4.558   4.329 -0.3504 -0.5362  0.8591
17101SOL     OW52145   2.406   2.825   4.891  0.1375  0.2278  0.5878
17101SOL    HW152146   2.483   2.866   4.932 -0.1150 -0.9598  2.3475
17101SOL    HW252147   2.431   2.733   4.880  0.6904  0.6870 -3.2755
17102SOL     OW52148   5.850   0.339   1.358 -1.0325  0.1345 -0.4224
17102SOL    HW152149   5.935   0.329   1.401 -0.9800  0.3901 -0.4666
17102SOL    HW252150   5.810   0.415   1.401 -1.3680 -0.1755 -0.1880
17103SOL     OW52151   7.851   8.128   2.213  0.4885  0.2379 -0.1380
17103SOL    HW152152   7.902   8.056   2.176  0.4396  0.1361 -0.0064
17103SOL    HW252153   7.835   8.186   2.139  0.1995 -0.0786 -0.3262
17104SOL     OW52154   3.638   4.968   6.271 -0.2912  0.7680  0.5039
17104SOL    HW152155   3.559   4.999   6.316 -0.3567 -0.7993  1.5416
17104SOL    HW252156   3.673   4.900   6.329 -0.1935 -1.1386 -1.6624
17105SOL     OW52157   4.127   6.108   2.310 -0.3581 -0.0121  0.1402
17105SOL    HW152158   4.039   6.071   2.313 -1.0198  1.4250  2.8081
17105SOL    HW252159   4.169   6.076   2.390  1.3112 -0.1095 -0.7396
17106SOL     OW52160   5.363   0.341   1.111  0.5774 -0.1565  0.3016
17106SOL    HW152161   5.431   0.383   1.059  0.1957  1.1780  0.8338
17106SOL    HW252162   5.401   0.335   1.199  0.3496 -0.2156  0.3967
17107SOL     OW52163   1.429   3.659   6.923 -0.4577 -0.1101 -0.3482
17107SOL    HW152164   1.516   3.680   6.890 -0.5912 -0.7404 -1.1277
17107SOL    HW252165   1.445   3.596   6.994 -0.3263 -1.3766 -1.4523
17108SOL     OW52166   6.154   6.244   6.049  0.1892 -0.5303  0.0160
17108SOL    HW152167   6.133   6.202   5.965 -0.2795 -0.5332  0.1324
17108SOL    HW252168   6.188   6.330   6.024 -0.5407 -0.2846 -0.1634
17109SOL     OW52169   4.896   5.853   3.895 -0.0391  0.0751 -0.4023
17109SOL    HW152170   4.943   5.787   3.945  2.5924  2.0566 -0.0046
17109SOL    HW252171   4.834   5.804   3.842  1.9171 -2.7288 -0.3106
17110SOL     OW52172   5.993   4.210   5.839  0.8362 -0.4323  0.5264
17110SOL    HW152173   6.016   4.285   5.894 -0.9100  0.1236  0.5566
17110SOL    HW252174   5.988   4.136   5.899 -0.3465  0.0338  1.0317
17111SOL     OW52175   3.433   5.412   0.386 -0.7508 -0.1118  0.2796
17111SOL    HW152176   3.416   5.327   0.426  0.5346  0.4814  2.2421
17111SOL    HW252177   3.455   5.469   0.459 -2.5664  2.2282 -0.8455
17112SOL     OW52178   5.389   2.399   0.392 -0.1366  0.5118  0.4441
17112SOL    HW152179   5.328   2.403   0.466  0.0300  1.3635  0.5394
17112SOL    HW252180   5.469   2.363   0.429 -0.6044 -0.7707  0.2856
17113SOL     OW52181   3.356   1.714   0.579 -0.3441  0.4899  0.0245
17113SOL    HW152182   3.297   1.742   0.649  1.1073  0.3152  1.3728
17113SOL    HW252183   3.444   1.735   0.611  0.4608 -0.8597 -1.1551
17114SOL     OW52184   4.782   5.545   1.422 -0.2910 -0.3386 -0.5742
17114SOL    HW152185   4.790   5.539   1.517 -0.2596 -0.7306 -0.5986
17114SOL    HW252186   4.851   5.605   1.396  1.2164 -1.9995 -0.5705
17115SOL     OW52187   6.534   0.412   0.532 -0.3641 -0.0637  0.7383
17115SOL    HW152188   6.613   0.387   0.483 -2.1442 -0.0525 -2.3873
17115SOL    HW252189   6.554   0.388   0.623  2.5919 -1.5567 -0.1623
17116SOL     OW52190   6.342   3.897   4.850  0.1033 -0.1206 -0.3715
17116SOL    HW152191   6.371   3.810   4.879 -1.2061 -0.8339 -1.1094
17116SOL    HW252192   6.274   3.921   4.912 -0.5082 -0.2588 -0.9715
17117SOL     OW52193   5.148   0.365   2.330  0.2057 -0.1185 -0.1639
17117SOL    HW152194   5.079   0.426   2.356  0.4558 -0.1169  0.5273
17117SOL    HW252195   5.104   0.280   2.324 -0.4691  0.3245 -2.5890
17118SOL     OW52196   2.608   1.292   4.738  0.4893 -0.8157 -0.0782
17118SOL    HW152197   2.531   1.237   4.724  0.8424 -1.4971  0.5753
17118SOL    HW252198   2.643   1.264   4.823  0.4555  0.6917  0.4624
17119SOL     OW52199   2.095   4.545   2.120  0.1448  0.2977  0.0829
17119SOL    HW152200   2.060   4.457   2.106  0.5069  0.5287 -2.6497
17119SOL    HW252201   2.060   4.597   2.048 -0.0905  2.4566  1.6621
17120SOL     OW52202   3.659   2.197   1.763  0.1754  0.3536 -0.0846
17120SOL    HW152203   3.588   2.198   1.828  0.6996  0.7555  0.4901
17120SOL    HW252204   3.739   2.186   1.815  0.4522 -1.4315 -0.8140
17121SOL     OW52205   6.895   2.279   0.366 -0.6881  0.1886  0.3708
17121SOL    HW152206   6.803   2.254   0.375 -0.6924  0.4202  1.0301
17121SOL    HW252207   6.903   2.362   0.413 -0.6117  1.3432 -1.5760
17122SOL     OW52208   4.136   0.897   3.386  0.1764 -0.1551  0.6434
17122SOL    HW152209   4.164   0.807   3.404  0.6806 -0.0393  0.4589
17122SOL    HW252210   4.171   0.947   3.459  1.0750  0.1030  0.0550
17123SOL     OW52211   0.261   3.531   5.411  0.3869  0.6502 -0.4131
17123SOL    HW152212   0.200   3.534   5.485  2.8618  0.7665  1.7860
17123SOL    HW252213   0.262   3.621   5.377 -0.3932  0.7194 -0.2682
17124SOL     OW52214   7.149   2.752   2.584 -0.4204  0.2645 -0.1262
17124SOL    HW152215   7.059   2.758   2.614 -0.6478  1.0517 -0.9283
17124SOL    HW252216   7.154   2.666   2.542 -0.5667 -0.1143  0.6094
17125SOL     OW52217   7.267   2.096   1.126  0.1022 -0.5309 -0.0317
17125SOL    HW152218   7.244   2.026   1.065 -0.8732 -0.7119  0.5354
17125SOL    HW252219   7.273   2.053   1.211  1.8938 -0.3578 -0.0411
17126SOL     OW52220   0.417   2.960   0.323 -0.1024  0.3460  0.3888
17126SOL    HW152221   0.382   2.921   0.244 -0.6197 -1.5182  1.4832
17126SOL    HW252222   0.349   2.947   0.389  0.9900  0.2949  1.5582
17127SOL     OW52223   7.208   6.465   2.230  0.2998 -0.3855 -0.1912
17127SOL    HW152224   7.199   6.394   2.167  1.9201 -0.2868 -0.5858
17127SOL    HW252225   7.205   6.421   2.315  3.9677 -1.4400 -0.4202
17128SOL     OW52226   1.302   0.227   3.115  0.7991 -0.3893  0.5610
17128SOL    HW152227   1.252   0.237   3.034 -2.1159 -1.7466  2.0232
17128SOL    HW252228   1.340   0.139   3.109 -1.8405 -1.7206  1.7374
17129SOL     OW52229   5.317   3.230   3.033  0.4429  0.3620 -0.3478
17129SOL    HW152230   5.288   3.319   3.054  1.2565  0.0615  2.4111
17129SOL    HW252231   5.412   3.236   3.030  0.4658 -0.2351 -1.2276
17130SOL     OW52232   6.064   4.584   6.456  0.3350 -0.2403  0.2769
17130SOL    HW152233   6.143   4.532   6.463  0.1860 -0.5243 -0.0956
17130SOL    HW252234   5.994   4.520   6.440  0.3777  0.1599 -1.8167
17131SOL     OW52235   2.280   0.934   1.472 -0.5406 -0.4110 -0.4297
17131SOL    HW152236   2.374   0.948   1.475 -0.4555 -0.8609 -0.8597
17131SOL    HW252237   2.262   0.910   1.381 -1.3785  1.7895 -0.9168
17132SOL     OW52238   0.275   4.870   4.705 -0.1831  0.4099  0.2796
17132SOL    HW152239   0.355   4.874   4.758 -0.6521  0.9050  0.9769
17132SOL    HW252240   0.241   4.960   4.705 -0.4660  0.3107 -0.4408
17133SOL     OW52241   7.881   0.145   0.999 -0.6407  0.1889 -0.1808
17133SOL    HW152242   7.860   0.052   1.003  0.6614 -0.1415 -0.3564
17133SOL    HW252243   7.939   0.159   1.074  1.4868  0.1756 -1.7338
17134SOL     OW52244   0.100   1.304   5.090 -0.1962 -0.4399  0.2269
17134SOL    HW152245   0.077   1.285   5.181  0.5970  0.6761  0.6761
17134SOL    HW252246   0.025   1.353   5.056  0.7370  1.7681  1.1997
17135SOL     OW52247   4.759   0.307   7.300 -0.1294 -0.2567 -0.2127
17135SOL    HW152248   4.692   0.247   7.332  0.1227  0.0105  0.8447
17135SOL    HW252249   4.768   0.373   7.369 -0.4351  1.0397 -1.3678
17136SOL     OW52250   1.737   1.018   1.013 -0.4996  0.1698  0.2332
17136SOL    HW152251   1.749   1.089   1.076  0.3555  0.8713 -0.6985
17136SOL    HW252252   1.758   1.057   0.928  0.3524 -1.2868 -0.2616
17137SOL     OW52253   2.716   2.208   2.100 -0.2185  0.3064  0.0354
17137SOL    HW152254   2.692   2.298   2.122  1.0732  0.4116  1.1262
17137SOL    HW252255   2.802   2.216   2.058 -0.5832 -0.3399 -0.8749
17138SOL     OW52256   3.798   5.002   7.905 -0.0430  0.0110 -0.1639
17138SOL    HW152257   3.707   4.999   7.935  0.2763 -1.4601  0.7557
17138SOL    HW252258   3.822   4.911   7.889  1.8896  0.1205  1.6338
17139SOL     OW52259   0.087   1.794   0.041 -0.4731  0.1991 -0.0244
17139SOL    HW152260   0.056   1.705   0.058 -0.9910  0.5291  0.8281
17139SOL    HW252261   0.010   1.839   0.004 -0.6204  0.6429  0.7928
17140SOL     OW52262   6.310   2.440   7.860 -0.2369 -0.0167 -0.0480
17140SOL    HW152263   6.401   2.444   7.830 -0.4407  0.7298 -0.6332
17140SOL    HW252264   6.304   2.507   7.928 -0.9826  1.9926 -1.9581
17141SOL     OW52265   5.796   0.011   6.191  0.0735  0.1873  0.0074
17141SOL    HW152266   5.748   0.022   6.109  0.6238  1.3359 -0.1711
17141SOL    HW252267   5.780   0.091   6.240 -1.4699 -1.0845  1.7109
17142SOL     OW52268   4.844   7.572   6.896  0.3239  0.1852 -0.1022
17142SOL    HW152269   4.779   7.501   6.895  0.6403 -0.1252 -1.2719
17142SOL    HW252270   4.898   7.554   6.973 -0.7770  0.2755  0.7143
17143SOL     OW52271   6.444   4.336   6.237  0.1137 -0.1558  0.0512
17143SOL    HW152272   6.517   4.390   6.267  0.4293 -1.1145  1.0408
17143SOL    HW252273   6.468   4.310   6.148  0.2254  0.8315 -0.2177
17144SOL     OW52274   0.621   4.345   0.640 -0.5212 -0.1449 -0.3211
17144SOL    HW152275   0.666   4.426   0.664  0.9480 -1.1163  0.3297
17144SOL    HW252276   0.557   4.332   0.710  1.1335 -0.9637  1.0877
17145SOL     OW52277   6.452   5.463   7.556  0.1817 -0.3291 -0.3911
17145SOL    HW152278   6.459   5.558   7.564 -0.4762 -0.2925 -0.2103
17145SOL    HW252279   6.442   5.447   7.462 -2.0337 -0.0382 -0.2501
17146SOL     OW52280   3.436   5.650   4.116  0.3663  0.6137 -0.1945
17146SOL    HW152281   3.456   5.556   4.108 -1.7848  0.0721  0.0215
17146SOL    HW252282   3.521   5.693   4.107  1.5897 -1.4029  0.7823
17147SOL     OW52283   6.265   5.886   6.627 -0.2770 -0.2540  0.1175
17147SOL    HW152284   6.194   5.946   6.651 -1.3408 -1.2377 -0.4686
17147SOL    HW252285   6.273   5.828   6.702  1.0076  0.8071  0.8420
17148SOL     OW52286   0.541   2.499   3.018 -1.0616 -0.3474 -0.2418
17148SOL    HW152287   0.605   2.479   2.950 -1.4233 -0.6586 -0.4923
17148SOL    HW252288   0.462   2.454   2.990 -0.6538 -2.2417  1.4393
17149SOL     OW52289   1.188   4.091   5.714 -0.5459 -0.2357  0.2025
17149SOL    HW152290   1.221   4.181   5.718 -4.1771  1.3990 -1.8691
17149SOL    HW252291   1.253   4.044   5.661  0.6249  1.6016 -0.0740
17150SOL     OW52292   8.194   3.020   1.740 -0.0397 -0.4299 -0.1411
17150SOL    HW152293   8.285   3.019   1.710  0.5587 -3.9078  1.3431
17150SOL    HW252294   8.201   3.037   1.835 -0.9443 -0.7855 -0.0074
17151SOL     OW52295   7.703   6.336   2.245  0.0283  0.3081 -0.1375
17151SOL    HW152296   7.677   6.265   2.303 -0.1315  0.9501  0.5908
17151SOL    HW252297   7.641   6.332   2.172  0.0803 -0.3539 -0.1469
17152SOL     OW52298   6.189   5.822   5.266 -0.0961  0.2850 -0.4589
17152SOL    HW152299   6.276   5.858   5.253  0.6710 -1.5223 -0.4843
17152SOL    HW252300   6.168   5.842   5.357  0.3121  0.7488 -0.4643
17153SOL     OW52301   3.201   4.112   5.225 -0.0692  0.0102  0.0088
17153SOL    HW152302   3.252   4.033   5.209 -0.4594 -0.1173 -0.6325
17153SOL    HW252303   3.262   4.184   5.206  0.4282 -0.1211  1.0524
17154SOL     OW52304   3.199   3.951   4.617 -0.3877  0.2270  0.1532
17154SOL    HW152305   3.280   3.931   4.664  0.6426 -0.0843 -1.6342
17154SOL    HW252306   3.150   4.009   4.675  0.9310  0.0794  1.4498
17155SOL     OW52307   6.193   8.219   8.156 -0.3373 -0.5636 -0.2867
17155SOL    HW152308   6.156   8.166   8.227 -0.0368 -0.0988  0.2229
17155SOL    HW252309   6.282   8.241   8.185 -0.2296 -0.3195 -0.7785
17156SOL     OW52310   7.929   4.696   5.970 -0.1791  0.0598  0.4889
17156SOL    HW152311   8.002   4.722   5.913 -0.0953 -1.1130  0.0342
17156SOL    HW252312   7.853   4.740   5.932 -0.0410 -0.3245 -0.2618
17157SOL     OW52313   1.697   6.969   0.338 -0.0599  0.0804  0.4687
17157SOL    HW152314   1.662   7.051   0.375  1.5940  1.0321  0.0212
17157SOL    HW252315   1.775   6.951   0.390  1.0126  0.1790 -1.0667
17158SOL     OW52316   3.712   0.284   1.978  0.1829 -0.1766 -0.2818
17158SOL    HW152317   3.639   0.325   2.025  1.6348  0.0415  1.9714
17158SOL    HW252318   3.755   0.357   1.933  1.6608  0.6071  2.2019
17159SOL     OW52319   6.359   2.805   5.245 -0.4847  0.0426  0.0906
17159SOL    HW152320   6.367   2.718   5.284 -1.9649 -0.6166 -0.9654
17159SOL    HW252321   6.445   2.844   5.256  0.8743 -2.3244 -1.1786
17160SOL     OW52322   1.107   0.763   0.772 -0.1258  0.0146  0.1070
17160SOL    HW152323   1.106   0.669   0.758 -0.7353 -0.0322  0.4584
17160SOL    HW252324   1.027   0.795   0.731 -0.5441  0.2158  1.0383
17161SOL     OW52325   4.942   2.906   4.570  0.3842  0.5526  0.1994
17161SOL    HW152326   4.914   2.820   4.537 -1.3325  1.2662 -0.3269
17161SOL    HW252327   4.980   2.887   4.656 -1.6261 -0.5968  0.9356
17162SOL     OW52328   5.336   8.209   0.098  0.1072  0.6127  0.0162
17162SOL    HW152329   5.281   8.247   0.166 -1.0591 -1.7148  0.4506
17162SOL    HW252330   5.425   8.235   0.122 -0.6299  3.9473 -0.3754
17163SOL     OW52331   5.989   0.165   3.259 -0.0968 -0.2657  0.2713
17163SOL    HW152332   5.939   0.097   3.214 -1.7121  0.5086  0.8011
17163SOL    HW252333   5.940   0.245   3.242  1.1492  0.5908  0.5934
17164SOL     OW52334   0.389   5.647   0.159 -0.4849 -0.1026  0.0045
17164SOL    HW152335   0.484   5.654   0.165 -0.5338  0.3425  0.2818
17164SOL    HW252336   0.365   5.594   0.235 -0.4642 -0.1799 -0.0424
17165SOL     OW52337   3.886   5.025   2.362  0.2009 -0.9718 -0.0610
17165SOL    HW152338   3.858   5.071   2.442 -0.3638 -1.1180 -0.1649
17165SOL    HW252339   3.949   5.083   2.321  0.3609 -0.8128  0.4037
17166SOL     OW52340   8.009   1.564   5.226  0.4172  0.4251  0.0231
17166SOL    HW152341   8.082   1.624   5.236  0.7041  0.0433  0.2534
17166SOL    HW252342   8.016   1.532   5.136 -0.2822  1.4322 -0.4079
17167SOL     OW52343   1.189   5.301   0.497  0.5207  0.2668 -0.2822
17167SOL    HW152344   1.097   5.302   0.525  0.2278 -0.2144 -1.1765
17167SOL    HW252345   1.210   5.208   0.489  0.4154  0.3705 -2.1519
17168SOL     OW52346   1.667   1.102   0.361 -0.4779  0.3663  0.2068
17168SOL    HW152347   1.746   1.117   0.310  0.1884 -1.2362  0.7094
17168SOL    HW252348   1.660   1.178   0.419  0.2107  0.9151 -0.4110
17169SOL     OW52349   3.803   7.970   6.924  0.0585  0.7092 -0.5089
17169SOL    HW152350   3.771   8.060   6.916  0.0503  0.8214  0.5654
17169SOL    HW252351   3.865   7.959   6.852 -0.2527  1.4363 -0.8939
17170SOL     OW52352   3.847   1.875   2.094 -1.0731  0.0666 -0.1287
17170SOL    HW152353   3.825   1.782   2.087 -1.9041  0.3144 -1.0026
17170SOL    HW252354   3.895   1.894   2.013 -0.0715  0.1891  0.4800
17171SOL     OW52355   4.598   5.380   5.726  0.3863  0.3849 -0.0776
17171SOL    HW152356   4.516   5.377   5.677  1.0699 -0.3485 -1.2280
17171SOL    HW252357   4.641   5.297   5.707  0.4752 -0.1498  2.1956
17172SOL     OW52358   5.158   7.031   4.743 -0.0729 -0.2536  0.6797
17172SOL    HW152359   5.144   6.953   4.689 -1.7694  0.3470  0.1871
17172SOL    HW252360   5.140   7.104   4.683  0.9247  0.5057  1.2902
17173SOL     OW52361   2.342   1.335   0.989 -0.1848 -0.1062 -0.1453
17173SOL    HW152362   2.259   1.371   0.958 -0.0533  0.8025  0.5174
17173SOL    HW252363   2.380   1.405   1.042  1.1269 -0.4118 -0.6366
17174SOL     OW52364   3.420   5.013   1.920  0.1240 -0.3083  0.0842
17174SOL    HW152365   3.439   4.951   1.849  0.0934 -0.2884  0.0586
17174SOL    HW252366   3.344   4.977   1.964 -1.6670  1.1306 -1.6426
17175SOL     OW52367   6.709   7.074   2.398 -0.9640  0.0919 -0.2473
17175SOL    HW152368   6.622   7.097   2.431 -0.4020 -0.0388  1.3877
17175SOL    HW252369   6.747   7.158   2.371 -1.2298  0.2794 -0.0463
17176SOL     OW52370   7.698   5.100   8.002 -0.0332 -0.7018  0.0366
17176SOL    HW152371   7.774   5.125   7.948 -0.1601 -0.9742 -0.2698
17176SOL    HW252372   7.659   5.183   8.029 -1.4340 -0.5073 -2.3490
17177SOL     OW52373   2.965   8.109   5.536 -0.4760  0.3399  0.8987
17177SOL    HW152374   3.006   8.043   5.481  1.1596  0.6932  1.6204
17177SOL    HW252375   2.984   8.081   5.626 -3.6172 -0.5670  1.3931
17178SOL     OW52376   3.935   5.822   7.075  0.1332  0.4150 -0.1799
17178SOL    HW152377   3.983   5.842   7.156  1.6932 -3.6342  0.1024
17178SOL    HW252378   4.002   5.821   7.007 -0.3214 -0.7834 -0.6392
17179SOL     OW52379   7.994   2.373   2.359  0.1146  0.0071  0.9060
17179SOL    HW152380   8.005   2.432   2.435 -1.9271  1.2553  0.3011
17179SOL    HW252381   7.914   2.325   2.377  0.6611 -1.1274  0.4018
17180SOL     OW52382   6.885   2.599   6.994 -0.1874 -0.5008 -0.1115
17180SOL    HW152383   6.839   2.682   6.988 -0.3604 -0.6137 -0.3436
17180SOL    HW252384   6.857   2.561   7.078  0.3626 -0.0483  0.2910
17181SOL     OW52385   6.609   0.397   5.628  0.0760 -0.3242  0.2137
17181SOL    HW152386   6.701   0.374   5.634  0.3795  0.5560 -0.8540
17181SOL    HW252387   6.576   0.387   5.718  1.1947 -0.6284  0.6039
17182SOL     OW52388   6.973   3.419   1.545  0.4380 -0.5995  0.0514
17182SOL    HW152389   6.992   3.511   1.526 -0.9878 -0.2487  0.2043
17182SOL    HW252390   7.038   3.394   1.610 -0.0549  0.7410  1.1052
17183SOL     OW52391   6.976   0.918   0.555  0.6148 -0.1054  0.1875
17183SOL    HW152392   6.969   0.857   0.629 -0.3365  0.1806  0.3544
17183SOL    HW252393   6.973   1.005   0.595 -0.8808  0.0695 -0.2112
17184SOL     OW52394   1.244   0.441   3.806  0.8423 -0.6873  0.1589
17184SOL    HW152395   1.250   0.411   3.897  0.8079 -0.4472  0.2386
17184SOL    HW252396   1.189   0.519   3.810  0.6714 -0.7934 -0.0947
17185SOL     OW52397   0.957   6.266   1.057 -0.6544 -0.1090  0.2874
17185SOL    HW152398   0.985   6.353   1.085  0.0735  0.0116 -0.7533
17185SOL    HW252399   0.874   6.251   1.103  0.0844  0.3926  1.8367
17186SOL     OW52400   0.627   3.169   4.990 -0.1593 -0.5570  0.2110
17186SOL    HW152401   0.551   3.117   4.963 -0.2823  0.9891 -2.8762
17186SOL    HW252402   0.702   3.121   4.955  0.2465 -1.3547  2.0526
17187SOL     OW52403   3.103   4.235   2.717  0.5920 -0.3534 -0.3209
17187SOL    HW152404   3.036   4.282   2.768  0.4098  0.0575 -0.9303
17187SOL    HW252405   3.183   4.243   2.770 -0.1462 -2.2080  1.2104
17188SOL     OW52406   4.399   0.949   3.787  0.4077 -0.0701 -0.0066
17188SOL    HW152407   4.324   0.987   3.742  0.6553 -0.1630 -0.5065
17188SOL    HW252408   4.475   0.988   3.743  0.6519  0.5135  0.9180
17189SOL     OW52409   7.668   2.663   4.283 -0.3600 -0.1290  0.2672
17189SOL    HW152410   7.737   2.601   4.259  0.1148 -0.0347  1.3178
17189SOL    HW252411   7.613   2.669   4.205  1.4647  0.6911 -1.0391
17190SOL     OW52412   6.363   4.583   0.955 -0.2510  0.0166 -0.2532
17190SOL    HW152413   6.382   4.638   0.879 -0.8216 -0.2710 -0.6104
17190SOL    HW252414   6.449   4.555   0.987 -0.0254 -0.2801 -1.1059
17191SOL     OW52415   4.125   3.833   5.049 -0.3247  0.1505  0.5714
17191SOL    HW152416   4.088   3.921   5.049 -0.2995  0.1714 -0.4673
17191SOL    HW252417   4.082   3.789   4.976 -0.7651 -0.8980  1.4268
17192SOL     OW52418   7.476   4.358   3.209  0.1143 -0.1553 -0.1881
17192SOL    HW152419   7.488   4.310   3.290  0.7732  1.7627  0.9376
17192SOL    HW252420   7.391   4.329   3.175 -1.3035  0.6201  2.4080
17193SOL     OW52421   4.489   1.623   7.529 -0.2819 -0.3342  0.1854
17193SOL    HW152422   4.406   1.600   7.570 -0.5691  0.7982  0.2623
17193SOL    HW252423   4.466   1.656   7.443  0.2302 -1.5066 -0.4290
17194SOL     OW52424   1.638   5.491   1.590 -0.4802 -0.2239 -0.1135
17194SOL    HW152425   1.694   5.503   1.667 -1.0719  1.1819  0.1420
17194SOL    HW252426   1.656   5.567   1.535 -0.4622 -0.9399 -1.1245
17195SOL     OW52427   0.490   6.279   2.152 -0.3937  0.4421  0.1152
17195SOL    HW152428   0.442   6.212   2.201 -0.3983  0.1285 -0.3126
17195SOL    HW252429   0.424   6.317   2.094  0.0106 -0.4250 -0.9281
17196SOL     OW52430   5.794   4.860   8.084  0.1972 -0.0493  0.3512
17196SOL    HW152431   5.724   4.904   8.132  1.0422  0.2527  1.3562
17196SOL    HW252432   5.871   4.916   8.099  0.5951 -0.2266 -0.9482
17197SOL     OW52433   1.276   5.282   3.328  0.2088  0.1447 -0.3706
17197SOL    HW152434   1.232   5.357   3.289 -1.2668 -0.0885  0.7498
17197SOL    HW252435   1.252   5.285   3.421 -2.1898 -3.1427 -0.7069
17198SOL     OW52436   5.145   1.852   8.116 -0.3567  0.4754  0.0121
17198SOL    HW152437   5.237   1.846   8.093 -0.1885  0.7997  0.5931
17198SOL    HW252438   5.137   1.806   8.200 -0.2948  2.3193  1.0812
17199SOL     OW52439   4.101   6.014   0.428  0.4493 -0.0552 -0.2370
17199SOL    HW152440   4.196   6.028   0.430  0.5469 -0.3890 -1.5768
17199SOL    HW252441   4.066   6.078   0.490  1.5860 -0.4077  0.8237
17200SOL     OW52442   8.201   4.364   2.658 -0.5222  0.0769 -0.2500
17200SOL    HW152443   8.113   4.339   2.688 -0.3311 -1.5445 -0.9621
17200SOL    HW252444   8.236   4.417   2.730 -0.9278 -1.7905  1.4272
17201SOL     OW52445   3.360   2.467   6.179 -0.1269 -0.2115 -0.1347
17201SOL    HW152446   3.394   2.383   6.209 -0.0739 -0.9292 -2.0424
17201SOL    HW252447   3.430   2.502   6.124 -0.5143  0.6495 -0.0852
17202SOL     OW52448   2.190   0.101   0.913  0.1618  0.0898 -0.3280
17202SOL    HW152449   2.257   0.045   0.874 -0.0362  0.4585 -1.2461
17202SOL    HW252450   2.235   0.184   0.930 -0.1256  0.4494 -1.2582
17203SOL     OW52451   4.554   1.454   7.023 -0.2087 -0.5551  0.4669
17203SOL    HW152452   4.588   1.368   6.996 -1.2667 -1.2324  1.2556
17203SOL    HW252453   4.619   1.486   7.086  1.3297  0.2321 -1.4021
17204SOL     OW52454   1.482   4.651   4.380  0.2471 -0.0024  0.0832
17204SOL    HW152455   1.438   4.677   4.461  2.4025 -0.1029  1.3503
17204SOL    HW252456   1.510   4.561   4.395 -1.5870 -1.0138 -1.8536
17205SOL     OW52457   5.975   6.484   3.957  0.1925  0.1133 -0.5021
17205SOL    HW152458   5.949   6.545   4.027  1.1468  0.6763 -0.6115
17205SOL    HW252459   5.941   6.524   3.877 -1.7804 -1.0419 -0.2962
17206SOL     OW52460   8.088   7.546   5.373  0.5104 -0.1700 -0.1689
17206SOL    HW152461   8.162   7.544   5.313  0.1164  2.1655 -0.8153
17206SOL    HW252462   8.123   7.582   5.454 -0.0830  2.2134 -0.8826
17207SOL     OW52463   6.655   5.725   0.167 -0.1428 -0.0014  0.4728
17207SOL    HW152464   6.672   5.706   0.259 -1.7281 -0.6573  0.6541
17207SOL    HW252465   6.563   5.702   0.153  0.7217 -2.6295 -1.9500
17208SOL     OW52466   6.110   6.821   0.643 -0.0881 -0.3629  0.2454
17208SOL    HW152467   6.178   6.872   0.687  1.1254 -0.4063 -1.4954
17208SOL    HW252468   6.140   6.731   0.649  0.6532 -0.2754 -1.5221
17209SOL     OW52469   3.938   5.203   4.042  0.6960 -0.7217 -0.2762
17209SOL    HW152470   3.967   5.241   4.125  0.8769 -2.0830  0.3100
17209SOL    HW252471   3.959   5.269   3.976  1.1649  0.0966  0.6850
17210SOL     OW52472   8.058   6.546   4.757  0.1466  0.3259 -0.0105
17210SOL    HW152473   8.005   6.599   4.697  0.6112 -1.0701 -1.7350
17210SOL    HW252474   8.017   6.559   4.843 -2.7039 -0.3011 -1.1736
17211SOL     OW52475   1.663   2.056   4.990 -0.4054  0.5613  0.3570
17211SOL    HW152476   1.728   1.988   4.973  0.5593  1.0522  1.8672
17211SOL    HW252477   1.619   2.069   4.906 -0.4983 -1.7669 -0.0154
17212SOL     OW52478   2.666   5.129   3.397  0.5059 -0.5454  0.4190
17212SOL    HW152479   2.625   5.094   3.318  0.6334 -0.3585  0.2688
17212SOL    HW252480   2.751   5.086   3.401 -0.1278 -1.8146  1.3540
17213SOL     OW52481   5.348   0.276   4.903 -0.6345  0.1531 -0.4232
17213SOL    HW152482   5.304   0.322   4.832 -0.6008  0.5746 -0.1759
17213SOL    HW252483   5.403   0.342   4.945 -1.8954  0.3431  1.0188
17214SOL     OW52484   6.822   6.759   1.468  0.0050  0.3713  0.2936
17214SOL    HW152485   6.742   6.763   1.521  0.3849  2.6898  0.7597
17214SOL    HW252486   6.892   6.742   1.532  0.3389  2.1991  0.4510
17215SOL     OW52487   8.018   0.487   0.297 -0.2396 -0.3170 -0.4711
17215SOL    HW152488   7.952   0.489   0.367  0.7043 -0.0047  0.4404
17215SOL    HW252489   7.983   0.425   0.233 -1.4818 -0.0421 -0.0872
17216SOL     OW52490   2.091   7.478   8.138 -0.3710  0.6630  0.4964
17216SOL    HW152491   2.072   7.496   8.230  0.5279 -0.1481  0.8596
17216SOL    HW252492   2.170   7.423   8.140  0.5137  1.8292 -0.8218
17217SOL     OW52493   3.898   6.999   7.242  0.6903  0.0672 -0.4878
17217SOL    HW152494   3.990   6.975   7.252  0.6260  0.6087  1.9970
17217SOL    HW252495   3.900   7.075   7.183  1.9532  0.7677  0.4196
17218SOL     OW52496   5.098   4.822   4.767 -0.0114  0.0562 -0.2901
17218SOL    HW152497   5.184   4.811   4.808  0.0654  0.3258 -0.3796
17218SOL    HW252498   5.099   4.763   4.692 -0.8201 -1.8738  1.1030
17219SOL     OW52499   1.845   2.396   5.268 -0.2369 -0.1483 -0.5177
17219SOL    HW152500   1.758   2.426   5.242 -1.1059 -1.8965  0.2499
17219SOL    HW252501   1.905   2.444   5.210 -1.6993  0.8848 -1.2397
17220SOL     OW52502   3.475   6.454   4.171 -0.0205 -0.3589  0.3552
17220SOL    HW152503   3.455   6.434   4.263 -2.0430 -0.5928 -0.0754
17220SOL    HW252504   3.412   6.522   4.148 -1.0732 -1.8614 -1.4523
17221SOL     OW52505   2.510   2.878   4.054  0.1294  0.0334 -0.1739
17221SOL    HW152506   2.531   2.824   4.130  0.8718 -0.5945 -0.8130
17221SOL    HW252507   2.414   2.877   4.049  0.1288 -1.0231 -0.0320
17222SOL     OW52508   3.388   5.496   1.532  0.5139 -0.4225 -0.3539
17222SOL    HW152509   3.432   5.430   1.479  0.8219 -0.3177 -0.2289
17222SOL    HW252510   3.443   5.506   1.609  0.2358 -0.3381 -0.1659
17223SOL     OW52511   4.082   3.746   1.251 -0.3945  0.3038 -0.3963
17223SOL    HW152512   4.171   3.716   1.273 -0.1013  2.0068  0.9789
17223SOL    HW252513   4.043   3.769   1.335 -2.2880 -0.6618 -0.9483
17224SOL     OW52514   6.383   1.754   6.383 -0.4069  0.2468  0.4263
17224SOL    HW152515   6.462   1.742   6.330 -1.2607 -0.9115 -0.6327
17224SOL    HW252516   6.312   1.760   6.319 -1.3483 -0.1404  1.4093
17225SOL     OW52517   1.595   2.333   5.021  0.0613 -0.4390  0.0691
17225SOL    HW152518   1.612   2.354   4.929  0.4134 -0.2182  0.1809
17225SOL    HW252519   1.587   2.238   5.022 -0.8911 -0.3741 -0.3342
17226SOL     OW52520   0.730   6.707   3.893  0.5676  0.1407 -0.8025
17226SOL    HW152521   0.644   6.731   3.859  0.3333 -0.1328 -0.4137
17226SOL    HW252522   0.752   6.625   3.847  1.0939  0.7549 -1.6759
17227SOL     OW52523   8.086   2.676   7.491  0.0186  0.3958 -0.1469
17227SOL    HW152524   8.133   2.744   7.539 -1.8239  3.1883 -1.9539
17227SOL    HW252525   7.999   2.674   7.532 -0.3068 -0.0304 -0.8417
17228SOL     OW52526   0.972   0.427   3.210  0.1644 -0.6023  0.0091
17228SOL    HW152527   1.007   0.344   3.243 -0.1047 -1.1433 -1.0063
17228SOL    HW252528   0.880   0.409   3.194  0.0581 -0.0400 -0.0208
17229SOL     OW52529   5.662   5.349   3.640 -0.0278  0.2118  0.0149
17229SOL    HW152530   5.638   5.313   3.554 -1.2529 -0.6529  0.6914
17229SOL    HW252531   5.746   5.392   3.625  1.3390 -2.5661 -0.9816
17230SOL     OW52532   3.576   4.474   0.035  0.2556  0.1827 -0.0191
17230SOL    HW152533   3.532   4.485  -0.049  3.1014  0.2650 -1.6518
17230SOL    HW252534   3.595   4.380   0.039 -1.0938 -0.0624  1.2641
17231SOL     OW52535   0.283   3.771   6.457 -0.1272 -0.0958 -0.7026
17231SOL    HW152536   0.333   3.706   6.408 -0.6566  0.2601 -1.7207
17231SOL    HW252537   0.294   3.852   6.408 -1.8881 -0.0551 -1.0817
17232SOL     OW52538   5.553   6.182   0.007  0.0354 -0.0114  0.2949
17232SOL    HW152539   5.555   6.262  -0.045  0.5904 -0.6789 -0.7442
17232SOL    HW252540   5.585   6.114  -0.052 -1.7151 -1.2708  0.7127
17233SOL     OW52541   1.647   3.042   1.890  0.3796 -0.1605 -0.1986
17233SOL    HW152542   1.699   3.080   1.819  0.8459 -0.1206  0.1627
17233SOL    HW252543   1.656   2.947   1.879 -2.8687 -0.3543 -2.6881
17234SOL     OW52544   6.522   3.409   6.135 -0.5863 -0.0098 -0.2461
17234SOL    HW152545   6.504   3.489   6.086  0.8443  0.0274 -0.7666
17234SOL    HW252546   6.591   3.366   6.084  1.7630  0.5428  2.2531
17235SOL     OW52547   3.272   0.597   2.753 -0.0360  0.5184  0.0672
17235SOL    HW152548   3.217   0.645   2.815  0.6791  2.0470 -0.4398
17235SOL    HW252549   3.251   0.634   2.668  0.3376 -0.2669 -0.3765
17236SOL     OW52550   5.343   6.580   3.950 -0.0546  0.1138 -0.0366
17236SOL    HW152551   5.297   6.535   4.020  0.5578  0.3909  0.5591
17236SOL    HW252552   5.274   6.610   3.891 -0.4640 -2.1017 -0.7902
17237SOL     OW52553   5.502   2.607   6.802 -0.3438  0.2235 -0.3287
17237SOL    HW152554   5.505   2.693   6.761 -1.1317  1.1558  1.4591
17237SOL    HW252555   5.425   2.565   6.764 -1.1449  1.1227  0.2570
17238SOL     OW52556   3.103   2.496   5.390  0.0919 -0.2681  0.5144
17238SOL    HW152557   3.125   2.492   5.297 -0.0113  1.2882  0.4005
17238SOL    HW252558   3.029   2.436   5.399  0.0624 -0.3939 -0.4197
17239SOL     OW52559   7.143   2.004   0.104  0.2286 -0.5518 -0.0844
17239SOL    HW152560   7.171   2.086   0.145  0.5072 -0.0543 -1.2315
17239SOL    HW252561   7.056   2.023   0.070  0.4390 -0.6193 -0.6655
17240SOL     OW52562   4.948   0.681   7.496  0.1013 -0.1537  0.2518
17240SOL    HW152563   4.957   0.760   7.442  0.2242 -0.5086 -0.2555
17240SOL    HW252564   5.017   0.689   7.562  1.7843 -0.9957 -1.2782
17241SOL     OW52565   8.044   0.569   4.980 -0.5042  0.0691  1.0498
17241SOL    HW152566   8.029   0.636   4.914 -0.7949 -0.9918 -0.0072
17241SOL    HW252567   7.959   0.556   5.021 -0.2767  0.8758  1.7820
17242SOL     OW52568   3.615   5.505   3.833 -0.6138  0.3561  0.5397
17242SOL    HW152569   3.631   5.599   3.827  4.0798 -0.2658  0.1700
17242SOL    HW252570   3.575   5.482   3.749 -0.4698  1.7706  0.0651
17243SOL     OW52571   3.877   5.107   5.146 -0.2352  0.0354 -0.4109
17243SOL    HW152572   3.932   5.151   5.211 -1.0980  1.2146 -0.4451
17243SOL    HW252573   3.937   5.083   5.076  0.2800  1.1295 -0.3623
17244SOL     OW52574   3.891   6.504   0.303 -0.4227 -0.2616 -0.3920
17244SOL    HW152575   3.886   6.518   0.398  0.5435 -0.4919 -0.2972
17244SOL    HW252576   3.800   6.502   0.274 -0.7597 -1.1642  0.6741
17245SOL     OW52577   1.599   4.005   1.713  0.3626 -0.0108  0.1340
17245SOL    HW152578   1.611   4.063   1.788 -0.5373 -0.6791  0.8210
17245SOL    HW252579   1.505   4.007   1.696  0.5737  0.3123 -1.1480
17246SOL     OW52580   7.337   3.532   1.435  0.4181  0.3671  0.5321
17246SOL    HW152581   7.378   3.618   1.441 -1.5827  1.3549  0.8315
17246SOL    HW252582   7.293   3.532   1.350 -0.9376  0.3019  1.2082
17247SOL     OW52583   1.359   1.733   0.985 -0.4326  0.4352  0.5681
17247SOL    HW152584   1.295   1.794   0.949  1.4646  2.2871  0.1679
17247SOL    HW252585   1.323   1.707   1.070 -1.4283  1.8702  0.6128
17248SOL     OW52586   4.657   0.662   6.006  0.0962 -0.2315 -0.2272
17248SOL    HW152587   4.612   0.582   5.979 -2.5918  0.8530  0.7086
17248SOL    HW252588   4.736   0.632   6.049  0.0860 -2.2859 -1.4933
17249SOL     OW52589   3.558   3.438   0.482  0.0703 -0.7481  0.1548
17249SOL    HW152590   3.524   3.382   0.412  2.0342  0.2835 -1.7582
17249SOL    HW252591   3.646   3.404   0.500  1.1571  1.3725 -0.7845
17250SOL     OW52592   4.123   5.005   7.353  0.1566  0.5058  0.0041
17250SOL    HW152593   4.060   5.077   7.349  0.3197  0.7383  1.3657
17250SOL    HW252594   4.207   5.046   7.331  0.1265  0.5611 -0.0094
17251SOL     OW52595   4.282   0.604   0.506 -0.7333  0.0136 -0.2883
17251SOL    HW152596   4.343   0.560   0.565 -1.9545  1.3981  2.1698
17251SOL    HW252597   4.201   0.552   0.513 -0.9963  0.3905 -0.4967
17252SOL     OW52598   2.235   7.881   3.555  0.3077  0.3796  0.0115
17252SOL    HW152599   2.276   7.843   3.478  0.8669 -0.0036  0.4866
17252SOL    HW252600   2.236   7.976   3.539  0.6753  0.3166 -0.3258
17253SOL     OW52601   5.390   2.606   6.229 -0.3733 -0.6394 -0.3465
17253SOL    HW152602   5.311   2.574   6.185 -1.6953  0.5891  1.0015
17253SOL    HW252603   5.393   2.700   6.208 -0.6555 -0.1661  1.4775
17254SOL     OW52604   0.195   2.297   4.554 -0.0438  0.5624 -0.3110
17254SOL    HW152605   0.109   2.338   4.544  0.7544  2.1120 -1.2011
17254SOL    HW252606   0.223   2.278   4.465  0.4706 -0.1297 -0.0124
17255SOL     OW52607   4.880   0.650   1.671  0.1862  0.1645  0.1931
17255SOL    HW152608   4.848   0.732   1.708  0.1209  2.1997 -3.7572
17255SOL    HW252609   4.975   0.656   1.678  0.1592  0.3277  0.4225
17256SOL     OW52610   7.409   2.129   6.883  0.0400  0.0261 -0.3806
17256SOL    HW152611   7.503   2.121   6.864 -0.0448 -1.4772 -0.2199
17256SOL    HW252612   7.402   2.213   6.929  1.2199  0.4086 -0.8521
17257SOL     OW52613   2.667   1.629   7.246  0.8027 -0.0838 -0.1874
17257SOL    HW152614   2.633   1.658   7.331  1.7159  0.1406  0.1068
17257SOL    HW252615   2.753   1.669   7.239  0.8602 -0.3361 -1.1009
17258SOL     OW52616   4.210   0.086   4.926  0.2839 -0.1511  0.2730
17258SOL    HW152617   4.288   0.123   4.968 -0.1678 -2.0201  3.0003
17258SOL    HW252618   4.242   0.009   4.880  0.0034 -1.4880  2.2109
17259SOL     OW52619   7.624   3.123   7.607 -0.4826 -0.4334 -0.1429
17259SOL    HW152620   7.549   3.086   7.559 -0.2589 -2.7527  1.1352
17259SOL    HW252621   7.585   3.162   7.685 -0.3799 -3.8954  1.8786
17260SOL     OW52622   0.237   4.209   4.151 -0.1752 -0.2734 -0.5066
17260SOL    HW152623   0.222   4.119   4.177  0.9613 -0.2660  0.2606
17260SOL    HW252624   0.151   4.250   4.152 -0.4261 -0.7524  1.4991
17261SOL     OW52625   4.293   1.512   1.898 -0.3157 -0.2467 -0.3419
17261SOL    HW152626   4.380   1.532   1.933 -0.1297  0.2441 -1.0784
17261SOL    HW252627   4.303   1.516   1.803 -0.9995 -0.8191 -0.4484
17262SOL     OW52628   2.738   2.665   4.037  0.1133  0.2270 -0.6018
17262SOL    HW152629   2.742   2.575   4.068 -1.1526 -0.4291 -2.1835
17262SOL    HW252630   2.737   2.718   4.117 -0.9118 -1.2467  0.4293
17263SOL     OW52631   2.204   5.830   7.734  0.2208  0.2457 -0.1082
17263SOL    HW152632   2.112   5.815   7.711  0.2176  0.8971 -0.5300
17263SOL    HW252633   2.253   5.804   7.656  0.2096  2.4455 -0.9072
17264SOL     OW52634   0.049   1.385   2.927 -0.4543  0.1714  0.1822
17264SOL    HW152635   0.015   1.297   2.913  0.1115 -0.2586  1.3630
17264SOL    HW252636   0.139   1.381   2.895 -1.4377  1.3470 -3.0836
17265SOL     OW52637   3.320   2.811   1.255 -0.6381  0.2922  0.2588
17265SOL    HW152638   3.290   2.720   1.262  0.3088 -0.0649 -0.1116
17265SOL    HW252639   3.280   2.844   1.174  0.3430 -0.3438 -0.5118
17266SOL     OW52640   4.705   2.401   4.470 -0.4048 -0.1371  0.2777
17266SOL    HW152641   4.614   2.374   4.458 -0.1129 -1.0945  0.1859
17266SOL    HW252642   4.711   2.427   4.562 -0.7087 -0.2707  0.3364
17267SOL     OW52643   1.970   3.609   6.318  0.6504  0.0016 -0.1372
17267SOL    HW152644   1.946   3.630   6.228 -1.4331 -0.1803  0.3297
17267SOL    HW252645   1.941   3.685   6.369 -0.5101 -0.9465  0.6677
17268SOL     OW52646   2.694   1.464   0.494 -0.7642 -0.3832  0.7022
17268SOL    HW152647   2.732   1.406   0.427 -2.4597 -0.9218  0.1489
17268SOL    HW252648   2.717   1.423   0.577 -0.1382 -0.6897  0.3851
17269SOL     OW52649   6.916   1.877   6.393  0.1481 -1.0356 -0.0451
17269SOL    HW152650   6.905   1.969   6.369  0.7913 -1.0549 -0.4537
17269SOL    HW252651   6.925   1.831   6.309 -2.1740 -1.7747  0.0396
17270SOL     OW52652   3.664   4.254   1.532  0.1128 -0.0315  0.0484
17270SOL    HW152653   3.727   4.252   1.605 -1.5704 -1.2324  1.5608
17270SOL    HW252654   3.673   4.342   1.495  3.7436 -0.6397 -0.8403
17271SOL     OW52655   7.797   1.281   6.850  0.1771 -0.5055  0.0695
17271SOL    HW152656   7.816   1.196   6.810  2.6888 -0.2622  0.6257
17271SOL    HW252657   7.768   1.259   6.939  0.3073 -0.8019  0.0405
17272SOL     OW52658   3.498   0.140   4.531 -0.3945  0.5172 -0.3892
17272SOL    HW152659   3.453   0.080   4.473  1.0028  0.1025 -1.1022
17272SOL    HW252660   3.466   0.119   4.618 -1.7740  0.4600 -0.8938
17273SOL     OW52661   7.118   0.143   2.024  0.1783  0.6288  0.1954
17273SOL    HW152662   7.204   0.129   1.985  1.4222  0.3839  2.8325
17273SOL    HW252663   7.065   0.069   1.992  1.0037  0.5870 -1.1792
17274SOL     OW52664   8.054   6.993   6.098 -0.2744  0.1808 -0.0243
17274SOL    HW152665   8.009   7.029   6.175 -2.6290  1.7292 -1.9692
17274SOL    HW252666   7.992   6.929   6.063  0.9301 -0.7694 -0.4528
17275SOL     OW52667   6.934   0.350   1.572  0.0872  0.4691 -0.0785
17275SOL    HW152668   6.903   0.281   1.632  2.7777 -0.8728 -0.1176
17275SOL    HW252669   6.984   0.409   1.628 -0.0122  0.9546 -0.4961
17276SOL     OW52670   6.586   7.391   7.599 -0.3049  0.3312  0.2303
17276SOL    HW152671   6.579   7.300   7.627 -3.6235  0.4086  0.0352
17276SOL    HW252672   6.604   7.386   7.505 -3.6112 -0.3478 -0.4992
17277SOL     OW52673   2.908   7.490   2.667  0.1321  0.1712 -0.5314
17277SOL    HW152674   2.949   7.506   2.582 -1.4947 -0.0335 -1.3729
17277SOL    HW252675   2.981   7.498   2.729  0.9853  2.4144 -1.6915
17278SOL     OW52676   5.823   5.453   1.890  1.0151 -0.5582 -0.1969
17278SOL    HW152677   5.847   5.538   1.925 -0.4336  0.1967 -0.9337
17278SOL    HW252678   5.907   5.410   1.871  1.7775  0.9324 -0.3532
17279SOL     OW52679   6.864   5.426   5.417  0.5895  0.1879 -0.2699
17279SOL    HW152680   6.832   5.501   5.368  0.6904  0.1148 -0.4473
17279SOL    HW252681   6.798   5.412   5.486  1.3679  1.4250  0.7627
17280SOL     OW52682   6.946   0.848   7.300  0.4049 -0.0971 -0.2229
17280SOL    HW152683   6.891   0.913   7.344  1.9610  0.9738  0.2351
17280SOL    HW252684   6.950   0.774   7.360  0.0893  0.1184  0.0671
17281SOL     OW52685   6.572   4.524   0.472 -0.0788  0.1095 -0.0068
17281SOL    HW152686   6.525   4.604   0.449  1.9991  1.8808  1.4969
17281SOL    HW252687   6.663   4.552   0.483  0.7162 -2.4725  0.6353
17282SOL     OW52688   0.222   1.159   6.701  0.5862  0.2295 -0.3450
17282SOL    HW152689   0.212   1.064   6.706 -0.0944 -0.0328 -3.9859
17282SOL    HW252690   0.145   1.193   6.747  0.9891 -0.8971  1.2620
17283SOL     OW52691   6.916   6.425   1.755 -0.0586  0.0921  0.0924
17283SOL    HW152692   6.835   6.424   1.703  0.0404 -0.4930 -0.0550
17283SOL    HW252693   6.962   6.346   1.729  0.6938  0.5536 -0.0169
17284SOL     OW52694   3.213   7.664   7.651 -0.7198  0.1332 -0.7312
17284SOL    HW152695   3.240   7.710   7.572  3.3324 -2.0891 -0.9227
17284SOL    HW252696   3.142   7.607   7.623 -1.1615  1.2885 -2.0709
17285SOL     OW52697   7.440   7.643   7.041 -0.3394  0.1883  0.2691
17285SOL    HW152698   7.444   7.623   6.948 -1.0550  0.5413  0.1566
17285SOL    HW252699   7.521   7.690   7.059  0.7663 -1.6151  0.2701
17286SOL     OW52700   3.251   0.374   2.017  0.2963  0.1780 -0.6934
17286SOL    HW152701   3.183   0.431   2.055  0.4787 -0.2729  0.3339
17286SOL    HW252702   3.204   0.293   1.995  0.4407 -0.0388 -0.2187
17287SOL     OW52703   3.014   2.585   1.696  0.2878  0.1823 -0.5689
17287SOL    HW152704   2.960   2.619   1.624 -1.9916  0.5550  1.2207
17287SOL    HW252705   3.066   2.660   1.724  0.5292  0.2658 -1.2093
17288SOL     OW52706   4.030   1.202   7.948  0.1719  0.9648 -0.0197
17288SOL    HW152707   3.986   1.284   7.969  0.7438  0.9008  1.6055
17288SOL    HW252708   4.067   1.173   8.031 -1.1884 -1.6626 -0.2160
17289SOL     OW52709   5.229   0.449   5.680 -0.4121 -0.2361  0.7517
17289SOL    HW152710   5.135   0.467   5.691 -0.3628 -0.0272  0.8375
17289SOL    HW252711   5.272   0.532   5.701 -0.2641 -0.0653 -0.1797
17290SOL     OW52712   3.893   0.304   7.724 -0.0189  0.0373  0.3273
17290SOL    HW152713   3.836   0.370   7.685  0.3304 -0.1083 -0.4437
17290SOL    HW252714   3.856   0.221   7.695  1.3636 -0.0417 -1.3421
17291SOL     OW52715   3.818   1.860   4.781 -0.2667 -0.9711 -0.7529
17291SOL    HW152716   3.757   1.789   4.800  0.8879 -1.2675  2.3338
17291SOL    HW252717   3.896   1.816   4.747 -0.1287 -1.0227 -0.3683
17292SOL     OW52718   7.550   7.537   4.968 -0.4567  1.0184  0.0643
17292SOL    HW152719   7.502   7.588   5.033 -1.1500 -1.4822  1.6288
17292SOL    HW252720   7.486   7.518   4.900 -1.2342 -0.6779  1.2109
17293SOL     OW52721   3.158   1.073   3.078 -0.6427  0.3368  0.3529
17293SOL    HW152722   3.170   1.020   3.157 -0.3301  1.5802  1.1558
17293SOL    HW252723   3.245   1.077   3.038 -0.3620  1.4016  1.0498
17294SOL     OW52724   6.200   2.549   6.578  0.0908  0.0638 -0.7716
17294SOL    HW152725   6.261   2.622   6.587 -0.0956  0.4067 -2.0693
17294SOL    HW252726   6.231   2.500   6.502 -0.8680 -0.0993 -1.0814
17295SOL     OW52727   1.917   0.659   0.495  0.1927 -0.2935 -0.1399
17295SOL    HW152728   1.840   0.682   0.443 -0.7602 -2.0150  0.4151
17295SOL    HW252729   1.914   0.719   0.570  0.3302  0.7251 -0.9322
17296SOL     OW52730   6.951   4.936   1.948 -0.4426  0.5019  0.3662
17296SOL    HW152731   6.880   4.908   1.890 -1.1816 -1.4685  2.1325
17296SOL    HW252732   6.984   4.856   1.988  2.7945  1.3390 -0.2893
17297SOL     OW52733   2.903   2.562   3.147 -0.4160 -0.2294 -0.2125
17297SOL    HW152734   2.860   2.602   3.072  1.3485  2.2903 -0.0268
17297SOL    HW252735   2.876   2.615   3.222  1.6882  0.5003  0.1143
17298SOL     OW52736   6.044   2.338   2.074  0.4452 -0.1501 -0.2152
17298SOL    HW152737   5.997   2.364   1.995 -0.5444 -1.0102  0.0674
17298SOL    HW252738   6.135   2.327   2.046 -0.1950 -2.3616 -1.7325
17299SOL     OW52739   2.242   4.251   0.703 -0.4150  0.3650  0.8396
17299SOL    HW152740   2.258   4.158   0.689 -0.4602  0.2411  1.5926
17299SOL    HW252741   2.329   4.289   0.716 -0.3699  0.4866  0.2068
17300SOL     OW52742   7.546   2.038   3.836  0.0816 -0.0672 -0.2098
17300SOL    HW152743   7.641   2.026   3.837 -0.1789 -2.4931 -0.2713
17300SOL    HW252744   7.522   2.029   3.744 -0.4669 -2.3167  0.1008
17301SOL     OW52745   2.739   7.958   3.849 -0.0189  0.2525 -0.1068
17301SOL    HW152746   2.721   7.949   3.755  1.4264  2.9374 -0.7207
17301SOL    HW252747   2.653   7.972   3.888 -0.7482 -1.7753 -0.8284
17302SOL     OW52748   1.680   4.680   2.932 -0.1438 -0.3261 -0.0358
17302SOL    HW152749   1.680   4.599   2.983  1.5517  0.5077  1.4190
17302SOL    HW252750   1.613   4.735   2.973 -1.4521 -1.0239 -1.1637
17303SOL     OW52751   4.387   7.332   3.560  0.4201 -0.1600  0.1588
17303SOL    HW152752   4.441   7.266   3.605  2.0062  0.3562 -0.9062
17303SOL    HW252753   4.341   7.283   3.493 -0.8591 -0.6890  1.3717
17304SOL     OW52754   1.844   0.207   2.064 -0.2304  0.1398  0.0311
17304SOL    HW152755   1.868   0.211   2.157 -0.0155 -2.3814  0.1555
17304SOL    HW252756   1.797   0.124   2.055 -3.7900  2.1214 -1.3921
17305SOL     OW52757   5.096   6.659   5.112 -0.2980 -0.2780 -0.9168
17305SOL    HW152758   5.093   6.751   5.139 -0.7066 -0.4354 -0.4249
17305SOL    HW252759   5.075   6.662   5.018 -0.8300  0.0830 -0.7914
17306SOL     OW52760   2.719   5.730   6.487 -0.1837 -0.1471 -0.4335
17306SOL    HW152761   2.781   5.715   6.416 -1.7816  0.7106 -2.1184
17306SOL    HW252762   2.769   5.775   6.555  1.2530 -0.3987 -1.2968
17307SOL     OW52763   1.927   7.523   7.907 -0.5716  0.3988  0.1081
17307SOL    HW152764   1.983   7.600   7.901  1.3989 -1.0651 -2.0522
17307SOL    HW252765   1.948   7.484   7.991 -1.3538  1.9760  1.0773
17308SOL     OW52766   5.279   2.872   0.708 -0.1158 -0.8032 -0.3286
17308SOL    HW152767   5.228   2.801   0.749 -2.1101  0.9162  0.3242
17308SOL    HW252768   5.215   2.940   0.689  1.7065  0.7875 -1.0925
17309SOL     OW52769   0.066   0.496   0.161  0.3111 -0.2417  0.2421
17309SOL    HW152770   0.115   0.427   0.206  0.2658 -0.1181  0.4839
17309SOL    HW252771  -0.013   0.507   0.214 -0.5944 -1.3108 -0.8293
17310SOL     OW52772   3.623   6.570   2.750  0.1410 -0.1931  0.0469
17310SOL    HW152773   3.666   6.651   2.722  1.2653 -1.4009 -1.9345
17310SOL    HW252774   3.673   6.542   2.827  0.0302  0.7224  0.4704
17311SOL     OW52775   1.639   6.694   6.148  0.1283 -0.5558 -0.3055
17311SOL    HW152776   1.697   6.703   6.072 -0.0985 -1.9925 -0.6931
17311SOL    HW252777   1.551   6.688   6.110 -0.1230  0.0237  0.1717
17312SOL     OW52778   3.922   6.254   7.622  0.1569 -0.4906  0.1378
17312SOL    HW152779   3.830   6.229   7.630  0.1568 -0.8096 -0.7968
17312SOL    HW252780   3.923   6.322   7.555  0.6178 -0.5735  0.0551
17313SOL     OW52781   7.826   6.963   4.929  0.2023  0.5904 -0.1446
17313SOL    HW152782   7.770   6.941   4.855  0.2109 -0.7248  0.2222
17313SOL    HW252783   7.771   7.020   4.984 -0.3735  0.2324 -0.3413
17314SOL     OW52784   2.314   7.181   2.984 -0.0786 -0.2853 -0.0496
17314SOL    HW152785   2.307   7.117   2.913 -1.6052  0.2833 -0.4382
17314SOL    HW252786   2.330   7.264   2.940  1.6922 -0.3295  0.4444
17315SOL     OW52787   7.088   2.396   0.876 -0.0755  0.7865 -0.4629
17315SOL    HW152788   7.061   2.408   0.967 -1.1004 -1.7975 -0.3235
17315SOL    HW252789   7.131   2.478   0.852  0.0673  1.6056  2.2700
17316SOL     OW52790   6.486   4.854   1.312  0.1253  0.1151 -0.2146
17316SOL    HW152791   6.518   4.929   1.262  0.2894 -0.2530 -0.6770
17316SOL    HW252792   6.436   4.803   1.248 -1.8293  0.9229  0.6071
17317SOL     OW52793   6.411   0.380   4.622 -0.7427 -0.1607  0.7305
17317SOL    HW152794   6.439   0.301   4.575  2.2283  0.4559  1.2634
17317SOL    HW252795   6.315   0.378   4.616 -0.6976 -2.6005 -1.1870
17318SOL     OW52796   6.589   0.945   7.779 -0.1299 -0.5106 -0.1163
17318SOL    HW152797   6.648   0.895   7.723 -0.2760  0.4002 -1.1008
17318SOL    HW252798   6.596   1.036   7.748  0.7304  0.2615  2.1291
17319SOL     OW52799   4.719   6.632   2.641 -0.2029  0.6320 -0.1936
17319SOL    HW152800   4.647   6.569   2.635 -0.8758  1.0529  2.4319
17319SOL    HW252801   4.681   6.715   2.614  0.1920  0.3287 -1.8220
17320SOL     OW52802   6.322   6.706   3.617 -0.3101  0.2022 -0.5776
17320SOL    HW152803   6.286   6.695   3.529 -0.8149  0.0856 -0.3551
17320SOL    HW252804   6.360   6.620   3.638  1.9134  0.8480 -1.6065
17321SOL     OW52805   5.495   6.640   6.705 -0.0929 -0.5885 -0.1614
17321SOL    HW152806   5.495   6.588   6.625  0.6297  1.5817 -1.6806
17321SOL    HW252807   5.418   6.697   6.696  0.6062  0.4301  0.1183
17322SOL     OW52808   5.915   1.013   4.107 -0.9592  0.1646 -0.6920
17322SOL    HW152809   5.884   0.946   4.045  1.4606 -1.0183 -0.7377
17322SOL    HW252810   5.983   1.060   4.058 -0.0519  0.1925  0.5670
17323SOL     OW52811   6.992   6.643   0.954 -0.1002 -0.1430  0.0842
17323SOL    HW152812   6.971   6.723   0.906  1.6222  0.9813  1.1142
17323SOL    HW252813   7.087   6.645   0.964 -0.2619 -0.9822  2.3887
17324SOL     OW52814   5.579   7.140   3.011  0.5255 -0.3063 -0.3344
17324SOL    HW152815   5.570   7.218   2.956  0.2347 -0.4065 -0.4347
17324SOL    HW252816   5.621   7.075   2.954 -0.3175 -0.6049 -0.6475
17325SOL     OW52817   5.887   6.299   0.072  0.3679  0.0348  0.7336
17325SOL    HW152818   5.832   6.377   0.076 -0.6960 -0.6661  0.3184
17325SOL    HW252819   5.830   6.228   0.102  0.2162 -1.1225 -2.0065
17326SOL     OW52820   7.927   2.274   0.643 -0.3240 -0.2660 -0.3737
17326SOL    HW152821   8.018   2.279   0.672 -0.1787 -1.2439 -0.6233
17326SOL    HW252822   7.904   2.182   0.653 -2.1297  0.3618  2.1741
17327SOL     OW52823   3.110   4.649   5.808  0.2612  0.0266  0.3282
17327SOL    HW152824   3.143   4.690   5.888 -0.7925  0.8782  0.3460
17327SOL    HW252825   3.109   4.555   5.828  0.0060  0.2251  1.3113
17328SOL     OW52826   5.948   2.769   1.858  0.4197 -0.7117 -0.0311
17328SOL    HW152827   6.029   2.792   1.906 -0.6224 -0.2165  1.5800
17328SOL    HW252828   5.886   2.745   1.927 -1.4559  0.9219 -1.0493
17329SOL     OW52829   2.875   6.477   3.004 -0.1371 -0.1287  0.3822
17329SOL    HW152830   2.852   6.391   3.039 -2.4345  0.7539  1.1814
17329SOL    HW252831   2.893   6.531   3.081  0.6651  0.3058 -0.0914
17330SOL     OW52832   6.795   6.108   1.052  0.2310  0.2718 -0.3357
17330SOL    HW152833   6.764   6.033   1.001  2.2363 -1.4510  0.8292
17330SOL    HW252834   6.729   6.119   1.121 -1.1613  0.9925 -1.7078
17331SOL     OW52835   3.511   7.174   3.644  0.2348  0.1827 -0.0821
17331SOL    HW152836   3.535   7.199   3.554 -1.3517 -0.3635 -0.6939
17331SOL    HW252837   3.419   7.201   3.652  0.0843 -0.6222  1.0691
17332SOL     OW52838   1.902   8.188   0.135 -0.0697  0.2303  0.0209
17332SOL    HW152839   1.892   8.154   0.047 -0.6876  0.6115 -0.0622
17332SOL    HW252840   1.879   8.115   0.193  2.0712 -0.5961 -0.0769
17333SOL     OW52841   0.887   8.178   5.205 -0.0361  0.3399 -0.1594
17333SOL    HW152842   0.932   8.123   5.142 -0.4293 -0.6964  0.4432
17333SOL    HW252843   0.797   8.144   5.207 -0.0302  0.3630  0.9436
17334SOL     OW52844   7.790   4.113   0.200 -0.0793 -0.5637  0.4181
17334SOL    HW152845   7.813   4.033   0.153 -0.2006 -0.0860 -0.4844
17334SOL    HW252846   7.830   4.103   0.286  0.7605 -1.1596 -0.0296
17335SOL     OW52847   0.945   6.477   5.892  0.1736  0.1111 -0.3030
17335SOL    HW152848   0.966   6.418   5.819  0.8251  0.1404 -0.1457
17335SOL    HW252849   1.030   6.500   5.929 -0.1779 -0.4415  0.8947
17336SOL     OW52850   3.932   3.594   0.755 -0.2673 -0.1531  0.3426
17336SOL    HW152851   4.002   3.652   0.786 -1.2657  0.4980  1.4428
17336SOL    HW252852   3.886   3.568   0.834 -1.8738  0.2162 -0.4332
17337SOL     OW52853   2.691   4.828   0.277  0.4468 -0.5194  0.5221
17337SOL    HW152854   2.607   4.871   0.293  0.8583  0.4071  0.3017
17337SOL    HW252855   2.721   4.801   0.364  1.0720  1.4071  0.9532
17338SOL     OW52856   2.554   6.085   0.124 -0.5029  0.3954 -0.0384
17338SOL    HW152857   2.480   6.146   0.132  0.0553  1.3363 -1.6378
17338SOL    HW252858   2.512   6.000   0.108 -1.2849  0.3006  2.0978
17339SOL     OW52859   3.405   7.019   6.890 -0.5263  0.8521  0.1146
17339SOL    HW152860   3.467   7.092   6.899 -1.4619  1.6717  0.1408
17339SOL    HW252861   3.381   7.020   6.797  0.3941 -0.2311 -0.1499
17340SOL     OW52862   5.783   5.433   3.318 -0.1263  0.7550  0.5322
17340SOL    HW152863   5.716   5.500   3.333 -0.0977  0.4342  2.4552
17340SOL    HW252864   5.848   5.476   3.262 -1.3394  1.4631 -0.3741
17341SOL     OW52865   8.172   6.014   7.666  0.0100  0.3501  0.0917
17341SOL    HW152866   8.128   5.957   7.604  0.7645  0.4891 -0.5845
17341SOL    HW252867   8.140   6.102   7.645  0.3933  0.4176 -0.2176
17342SOL     OW52868   3.963   3.762   6.327  0.0784 -0.4482 -0.0797
17342SOL    HW152869   3.989   3.719   6.408 -3.2244  1.5752  2.3055
17342SOL    HW252870   3.966   3.856   6.348 -2.4096  0.0887 -1.6836
17343SOL     OW52871   6.371   6.140   4.166 -0.1196 -0.0476 -0.5516
17343SOL    HW152872   6.368   6.142   4.262  0.3284  1.3783 -0.5508
17343SOL    HW252873   6.462   6.161   4.144 -0.5885  1.3593 -1.2923
17344SOL     OW52874   7.647   5.440   2.294 -0.0448 -0.1503 -0.2498
17344SOL    HW152875   7.657   5.439   2.198  1.2336 -1.2318 -0.1347
17344SOL    HW252876   7.610   5.526   2.313  0.6092  0.4754 -1.6301
17345SOL     OW52877   1.348   0.286   8.086 -0.1259  0.0455  0.1075
17345SOL    HW152878   1.426   0.333   8.116  0.5960 -1.3695  0.5212
17345SOL    HW252879   1.297   0.352   8.040  0.2228  1.5519  1.7799
17346SOL     OW52880   7.787   6.627   4.192 -0.1092 -0.4211  0.0343
17346SOL    HW152881   7.870   6.675   4.185 -0.4332  0.2592  0.6742
17346SOL    HW252882   7.809   6.536   4.174  0.4339  0.0281 -1.8318
17347SOL     OW52883   7.313   8.053   2.530 -0.2304  0.6505 -0.2154
17347SOL    HW152884   7.298   8.095   2.445  0.4725  0.0716 -0.6338
17347SOL    HW252885   7.408   8.045   2.536 -0.2931  0.3949  0.4836
17348SOL     OW52886   6.542   2.380   1.948  0.4871  0.4159 -0.1339
17348SOL    HW152887   6.625   2.358   1.905  0.6089 -0.2818  0.4278
17348SOL    HW252888   6.530   2.473   1.931  1.0084  0.3611 -0.8572
17349SOL     OW52889   1.547   7.494   3.135  0.0146 -0.4306 -0.3403
17349SOL    HW152890   1.569   7.582   3.103 -1.3265 -0.5630 -1.7411
17349SOL    HW252891   1.587   7.435   3.072 -0.7133 -0.7600 -0.5087
17350SOL     OW52892   0.719   1.184   6.526 -0.7286  0.4278  0.0159
17350SOL    HW152893   0.778   1.239   6.578 -0.4827  1.1439 -0.9653
17350SOL    HW252894   0.770   1.163   6.447 -0.9746 -0.8757  0.1867
17351SOL     OW52895   2.413   7.219   3.679  0.0303  0.1474 -0.6707
17351SOL    HW152896   2.406   7.312   3.701 -0.3218 -0.2765  1.2415
17351SOL    HW252897   2.344   7.204   3.615 -1.6958  0.7046  0.9789
17352SOL     OW52898   7.024   0.695   1.026  0.3751  0.4708  0.3581
17352SOL    HW152899   6.961   0.629   1.054 -0.8088  0.7615 -1.4208
17352SOL    HW252900   7.082   0.708   1.101  0.2049 -2.0447  0.9940
17353SOL     OW52901   5.372   3.255   0.573  0.5348  0.3281  0.8590
17353SOL    HW152902   5.424   3.175   0.584 -1.0960 -1.0514 -0.6768
17353SOL    HW252903   5.293   3.225   0.527 -0.8797  2.5781  1.6848
17354SOL     OW52904   5.755   6.777   2.645  0.5616  0.0963 -0.2424
17354SOL    HW152905   5.728   6.711   2.582  0.1520 -0.5251  0.5718
17354SOL    HW252906   5.758   6.731   2.729  2.1817  0.6334  0.0277
17355SOL     OW52907   5.449   8.089   4.247 -0.1898  0.7230 -0.2009
17355SOL    HW152908   5.359   8.077   4.276 -0.1208  1.5684  0.4010
17355SOL    HW252909   5.448   8.169   4.195 -0.1284 -0.2807 -1.7972
17356SOL     OW52910   6.352   3.473   4.582 -0.1893 -0.5790  0.5219
17356SOL    HW152911   6.376   3.499   4.671 -0.2540  0.7610  0.1658
17356SOL    HW252912   6.259   3.451   4.587 -0.4820  0.6190  0.5625
17357SOL     OW52913   4.023   3.601   4.357 -0.6438 -0.4522  0.5307
17357SOL    HW152914   3.944   3.645   4.326 -0.5348  0.3053  1.2917
17357SOL    HW252915   4.065   3.665   4.414  1.3735 -0.2157 -1.1039
17358SOL     OW52916   0.062   1.657   4.323  0.3805 -0.9798 -0.4467
17358SOL    HW152917   0.012   1.733   4.353  3.0540  0.0059  1.9188
17358SOL    HW252918   0.097   1.683   4.238  2.2769  1.0397  0.8713
17359SOL     OW52919   5.368   0.967   0.775  0.1653  0.0514  0.6449
17359SOL    HW152920   5.308   1.039   0.794 -1.6889 -1.2221 -0.0987
17359SOL    HW252921   5.455   1.005   0.787 -0.7263  2.4948 -0.0319
17360SOL     OW52922   5.557   5.443   5.114  0.3953  0.4424  0.0921
17360SOL    HW152923   5.631   5.503   5.124  0.9291 -0.4001  1.4227
17360SOL    HW252924   5.487   5.497   5.077  1.2603  1.5718  0.0680
17361SOL     OW52925   0.962   3.673   7.667  0.2435  0.6874 -0.2882
17361SOL    HW152926   1.052   3.656   7.696 -0.0024  0.1478  0.1639
17361SOL    HW252927   0.964   3.658   7.572 -0.1418 -2.8081  0.1421
17362SOL     OW52928   1.421   5.905   6.289 -0.0235 -0.3059  0.1265
17362SOL    HW152929   1.407   5.958   6.368 -1.9602 -0.9202  0.2583
17362SOL    HW252930   1.404   5.815   6.317 -0.3272 -0.5828 -0.8783
17363SOL     OW52931   7.874   2.241   6.366  0.1106 -0.4648 -0.5178
17363SOL    HW152932   7.854   2.327   6.402  1.1734 -0.7886  0.9217
17363SOL    HW252933   7.800   2.222   6.307 -0.3614  1.2099 -0.5071
17364SOL     OW52934   4.204   1.278   5.180 -0.4355  0.4228  0.5084
17364SOL    HW152935   4.256   1.322   5.112  2.4674 -0.9245  1.7089
17364SOL    HW252936   4.166   1.202   5.136  3.0214 -1.5654  0.6272
17365SOL     OW52937   6.797   4.504   7.075  0.2218  0.1217  0.3054
17365SOL    HW152938   6.707   4.535   7.082  0.2315  0.1633  0.2495
17365SOL    HW252939   6.790   4.421   7.028  0.2343  0.2422  0.0868
17366SOL     OW52940   0.763   1.479   1.865  0.1100 -0.1626 -0.4471
17366SOL    HW152941   0.734   1.428   1.941  1.5661 -2.1649 -1.1389
17366SOL    HW252942   0.853   1.450   1.849 -0.2909 -0.2238 -3.2203
17367SOL     OW52943   6.501   3.567   3.504 -0.5001 -0.0019  0.0016
17367SOL    HW152944   6.455   3.549   3.585 -2.7717  0.8335 -1.0095
17367SOL    HW252945   6.482   3.493   3.447  1.0289 -0.5585  0.1736
17368SOL     OW52946   6.096   0.727   7.523 -0.1225  0.0789  0.2495
17368SOL    HW152947   6.135   0.802   7.479 -1.9593  1.0656  0.2324
17368SOL    HW252948   6.080   0.757   7.613 -0.1097 -0.5762  0.4772
17369SOL     OW52949   7.229   5.151   3.112 -0.3490 -0.3720 -0.1910
17369SOL    HW152950   7.237   5.191   3.198  0.0514 -0.4527 -0.1900
17369SOL    HW252951   7.220   5.057   3.130 -0.6823 -0.3487 -0.2212
17370SOL     OW52952   3.327   5.815   2.609  0.6306  0.4887  0.4077
17370SOL    HW152953   3.410   5.803   2.655 -0.1287 -1.4424  1.4328
17370SOL    HW252954   3.262   5.821   2.679 -0.1488  1.5845 -0.3825
17371SOL     OW52955   5.061   3.173   6.539 -0.4950  0.0330  0.3007
17371SOL    HW152956   5.089   3.240   6.476  1.0840  1.3533  2.2595
17371SOL    HW252957   5.137   3.115   6.546 -1.8067 -2.0198 -1.2858
17372SOL     OW52958   0.751   5.123   1.314  0.0132  0.0846  0.2085
17372SOL    HW152959   0.787   5.095   1.230  2.7126 -0.9427  1.5905
17372SOL    HW252960   0.823   5.169   1.357 -1.1819  0.2997  2.0899
17373SOL     OW52961   1.795   4.624   6.658 -0.2080 -0.8099 -0.3499
17373SOL    HW152962   1.760   4.662   6.577  1.1219  0.7284 -0.2554
17373SOL    HW252963   1.888   4.614   6.641  0.4570  1.3088  1.5825
17374SOL     OW52964   3.873   2.799   0.430 -0.4381  0.9832  0.9981
17374SOL    HW152965   3.909   2.835   0.512 -2.5287  1.6532  1.6906
17374SOL    HW252966   3.906   2.858   0.362 -0.4353  1.7329  1.6293
17375SOL     OW52967   3.907   5.730   7.945 -0.0403 -0.3890  0.2806
17375SOL    HW152968   3.831   5.780   7.917 -0.8180 -1.0063  1.2330
17375SOL    HW252969   3.886   5.639   7.924 -0.4851 -0.8272  2.4162
17376SOL     OW52970   3.456   7.143   2.613  0.4279 -0.2047  0.1354
17376SOL    HW152971   3.540   7.156   2.569  0.8943  0.3196  1.1625
17376SOL    HW252972   3.391   7.170   2.548  1.1586  2.0339  0.2546
17377SOL     OW52973   4.417   1.826   1.324 -0.5349 -0.1158 -0.4215
17377SOL    HW152974   4.347   1.891   1.317  1.2284  1.6893 -2.7833
17377SOL    HW252975   4.419   1.785   1.237  0.1811 -1.4406  0.1978
17378SOL     OW52976   5.437   3.747   5.733  0.0885 -0.2027 -0.2079
17378SOL    HW152977   5.419   3.791   5.816 -4.5050  0.5627 -1.3600
17378SOL    HW252978   5.398   3.660   5.743 -0.3146 -0.1832 -1.4329
17379SOL     OW52979   2.083   1.552   1.060  0.5366  0.1439 -0.3290
17379SOL    HW152980   2.069   1.623   1.123 -1.6413 -0.2155 -0.3151
17379SOL    HW252981   2.101   1.475   1.113  1.4017  0.3642 -0.2861
17380SOL     OW52982   3.576   5.249   5.376 -0.9212 -0.4126 -0.3387
17380SOL    HW152983   3.519   5.184   5.335 -0.3383  0.1387 -2.1152
17380SOL    HW252984   3.517   5.307   5.424 -1.9492  0.3699 -2.4419
17381SOL     OW52985   6.630   5.249   2.342  0.4911  0.3963 -0.8376
17381SOL    HW152986   6.566   5.296   2.395  1.5293  1.1061 -0.1581
17381SOL    HW252987   6.692   5.212   2.405  0.9974  0.1081 -1.4878
17382SOL     OW52988   1.745   1.455   4.345 -0.2047  0.1356  0.0892
17382SOL    HW152989   1.663   1.427   4.387 -0.3293 -0.4958 -0.5502
17382SOL    HW252990   1.779   1.375   4.303  0.8455  0.3460  0.5088
17383SOL     OW52991   2.624   3.742   2.310 -0.3343  0.1799 -0.4504
17383SOL    HW152992   2.552   3.758   2.370  0.9118 -0.2980  1.2640
17383SOL    HW252993   2.700   3.783   2.352  0.4288  0.6179 -2.1487
17384SOL     OW52994   6.275   4.300   1.283 -0.0493 -0.1744 -0.1938
17384SOL    HW152995   6.243   4.350   1.358 -1.2862 -0.3712 -0.5624
17384SOL    HW252996   6.200   4.294   1.224  0.7536 -0.4487 -1.2278
17385SOL     OW52997   4.843   2.860   3.269  0.0247 -0.0930  0.4037
17385SOL    HW152998   4.893   2.871   3.188 -0.7605  1.2999  0.0715
17385SOL    HW252999   4.893   2.908   3.335 -0.2203  0.2300  0.3550
17386SOL     OW53000   6.011   2.021   2.666  0.0186 -0.0210  0.4726
17386SOL    HW153001   6.036   1.942   2.618 -2.2763  0.0603 -1.0342
17386SOL    HW253002   5.950   2.066   2.607 -1.2072  1.2659  2.5893
17387SOL     OW53003   4.462   3.506   3.071 -0.1244 -0.0450 -0.3929
17387SOL    HW153004   4.556   3.519   3.067 -0.1371  2.3620  2.6384
17387SOL    HW253005   4.425   3.585   3.031 -0.8732 -0.6803 -0.9935
17388SOL     OW53006   7.581   1.170   0.857 -0.7116 -0.3940 -0.0485
17388SOL    HW153007   7.555   1.118   0.781  1.8959 -1.0703 -0.5983
17388SOL    HW253008   7.600   1.105   0.925  3.8813 -0.5842 -1.1421
17389SOL     OW53009   4.511   0.155   7.410  0.0721  0.1876  0.2989
17389SOL    HW153010   4.519   0.116   7.323  1.3081  0.8140  0.1137
17389SOL    HW253011   4.531   0.084   7.470  0.3313  0.0339  0.0335
17390SOL     OW53012   6.755   2.221   3.417 -0.1293 -0.1276 -0.1429
17390SOL    HW153013   6.746   2.239   3.323 -0.9342 -1.9894 -0.4647
17390SOL    HW253014   6.849   2.206   3.429  0.4228  2.8160 -0.0590
17391SOL     OW53015   1.898   6.762   1.440  0.3485  0.4950 -0.5012
17391SOL    HW153016   1.985   6.765   1.402  0.8290  2.6488  0.6518
17391SOL    HW253017   1.845   6.818   1.384  0.5142  1.8085  0.5995
17392SOL     OW53018   6.673   2.187   0.541  0.8374  0.0407 -0.7143
17392SOL    HW153019   6.580   2.176   0.524  0.7413 -0.3225 -0.0303
17392SOL    HW253020   6.681   2.274   0.580  0.3649 -0.9399  1.7779
17393SOL     OW53021   1.039   1.000   6.132  0.1718  0.2649 -0.1548
17393SOL    HW153022   1.012   1.006   6.040 -0.7018  1.9005  0.1607
17393SOL    HW253023   1.135   1.002   6.129  0.1651 -0.2099 -1.0436
17394SOL     OW53024   1.962   7.492   5.138 -0.7874  0.4120  0.2082
17394SOL    HW153025   2.044   7.445   5.153 -1.4294 -0.3600  1.4006
17394SOL    HW253026   1.896   7.441   5.184 -1.8385  1.3926 -0.1667
17395SOL     OW53027   6.797   1.616   0.262 -0.0893 -0.2662  0.5131
17395SOL    HW153028   6.865   1.643   0.201  2.2194 -1.5222  2.3594
17395SOL    HW253029   6.743   1.555   0.212  0.7625 -0.0671 -0.7038
17396SOL     OW53030   5.508   7.821   2.310 -0.0173  0.0091  0.5204
17396SOL    HW153031   5.548   7.792   2.392  0.2734 -1.5987 -0.1440
17396SOL    HW253032   5.569   7.792   2.242 -1.3847 -0.8430 -0.3939
17397SOL     OW53033   5.575   0.753   4.318 -0.1782  0.6667 -0.4246
17397SOL    HW153034   5.601   0.758   4.410  0.9550  1.9646 -0.7754
17397SOL    HW253035   5.594   0.840   4.283  1.7383 -0.4672 -2.4769
17398SOL     OW53036   4.965   4.705   7.095 -0.2380  0.5141  0.3981
17398SOL    HW153037   4.974   4.755   7.014 -1.5169  0.2013  0.0297
17398SOL    HW253038   5.029   4.743   7.154  1.0413  0.4607 -0.8988
17399SOL     OW53039   7.920   6.580   0.164  0.4454 -0.0855  0.2574
17399SOL    HW153040   7.853   6.517   0.139  0.3334  0.4381 -0.8255
17399SOL    HW253041   7.935   6.564   0.257 -1.0022 -0.3714  0.4594
17400SOL     OW53042   1.883   1.251   2.044  0.2731  0.6996  0.0225
17400SOL    HW153043   1.939   1.311   2.094  0.0342  1.1590 -0.2489
17400SOL    HW253044   1.794   1.269   2.075  0.1037  1.1116 -0.6753
17401SOL     OW53045   5.321   5.360   8.060 -0.6381  0.1144  0.0846
17401SOL    HW153046   5.396   5.360   8.000 -2.1288  0.6183 -1.8704
17401SOL    HW253047   5.307   5.267   8.081 -0.2028 -0.0896 -0.5014
17402SOL     OW53048   5.283   6.360   4.456  0.0790  0.1691 -0.3030
17402SOL    HW153049   5.284   6.267   4.480 -1.1147 -0.1973 -1.5632
17402SOL    HW253050   5.376   6.384   4.451  0.3975 -0.5457  1.4662
17403SOL     OW53051   1.836   0.734   3.331  0.4772  0.0840  0.3095
17403SOL    HW153052   1.766   0.671   3.311  1.6650 -1.1470 -0.1315
17403SOL    HW253053   1.791   0.809   3.369 -1.3379  0.2490 -1.9319
17404SOL     OW53054   3.991   4.386   2.131 -0.3865  0.5282 -0.6637
17404SOL    HW153055   4.085   4.373   2.116 -0.4931 -0.6993 -0.4041
17404SOL    HW253056   3.953   4.388   2.043 -0.1600  0.6254 -0.7605
17405SOL     OW53057   0.148   5.623   4.330  0.1445 -0.0186  0.2218
17405SOL    HW153058   0.118   5.676   4.404  0.9112  0.2903  0.3195
17405SOL    HW253059   0.133   5.533   4.358 -0.2583  0.1169  0.4528
17406SOL     OW53060   0.961   5.653   7.601  0.5160 -0.9915 -0.4057
17406SOL    HW153061   0.870   5.625   7.606  0.6464 -1.4272 -0.4799
17406SOL    HW253062   1.005   5.606   7.672  0.8724 -1.4979 -0.9565
17407SOL     OW53063   2.938   1.961   7.451  0.2617 -0.2130 -0.6909
17407SOL    HW153064   2.887   1.898   7.400  0.7511 -1.7589  0.6455
17407SOL    HW253065   3.025   1.958   7.412 -0.1224  0.9254 -1.6901
17408SOL     OW53066   5.808   2.832   7.937  0.2306 -0.0919  0.4259
17408SOL    HW153067   5.830   2.781   8.015 -0.2976 -1.8280 -0.4864
17408SOL    HW253068   5.868   2.906   7.937  0.8871 -0.6043  1.9494
17409SOL     OW53069   1.073   2.259   3.741 -0.2055 -0.7349  0.1908
17409SOL    HW153070   0.982   2.234   3.727 -0.3145 -0.3418  0.1799
17409SOL    HW253071   1.124   2.187   3.703 -0.4928 -0.1163 -1.4437
17410SOL     OW53072   1.943   0.294   2.308  0.3345 -0.2139 -0.5603
17410SOL    HW153073   1.988   0.366   2.264 -1.3971  2.0103  1.0916
17410SOL    HW253074   2.002   0.270   2.380  0.5065  0.1565 -0.5741
17411SOL     OW53075   6.052   4.614   0.252 -0.1521  0.4691  0.5750
17411SOL    HW153076   5.966   4.646   0.278 -0.2287  1.2069 -0.5239
17411SOL    HW253077   6.075   4.666   0.175 -0.6091 -2.6332 -1.8143
17412SOL     OW53078   2.724   6.581   6.934 -0.6436 -0.0111  0.6016
17412SOL    HW153079   2.712   6.499   6.982 -2.0744 -1.1568 -1.5357
17412SOL    HW253080   2.640   6.626   6.942 -0.0674  0.9719  1.2294
17413SOL     OW53081   2.445   5.871   4.557 -0.7429 -0.1505 -0.1488
17413SOL    HW153082   2.397   5.954   4.554  1.6815  1.3539  0.1561
17413SOL    HW253083   2.526   5.891   4.603  1.2352 -2.0036 -2.5405
17414SOL     OW53084   7.639   5.842   0.069  0.9759 -0.2982 -0.1723
17414SOL    HW153085   7.733   5.824   0.064  1.1440  0.5059  0.0035
17414SOL    HW253086   7.605   5.775   0.129  1.6615  0.2178  0.8239
17415SOL     OW53087   4.662   6.653   4.716 -0.1942  0.5264  0.7835
17415SOL    HW153088   4.664   6.560   4.691 -0.3788  1.0933 -1.4998
17415SOL    HW253089   4.574   6.665   4.753 -0.4192 -0.0599  0.4641
17416SOL     OW53090   1.056   5.931   4.374  0.9728 -0.4630 -0.0426
17416SOL    HW153091   1.010   5.978   4.304  0.3869 -1.0707 -0.0633
17416SOL    HW253092   1.028   5.840   4.365 -1.0239 -0.1944  2.4725
17417SOL     OW53093   1.304   5.665   1.106 -0.0486 -0.0041 -0.2770
17417SOL    HW153094   1.214   5.676   1.137  0.3182  0.2077  0.7587
17417SOL    HW253095   1.351   5.628   1.181  1.1243  1.5836 -0.1911
17418SOL     OW53096   7.292   1.408   2.855 -0.0546 -0.1696  0.3330
17418SOL    HW153097   7.372   1.356   2.849  0.6415  1.0105 -2.2619
17418SOL    HW253098   7.227   1.358   2.806 -0.0208  0.2497 -0.1613
17419SOL     OW53099   3.851   2.319   0.082  0.5623 -0.1077  0.1862
17419SOL    HW153100   3.878   2.231   0.109  0.5800  0.3470  1.7529
17419SOL    HW253101   3.813   2.358   0.161  0.3081  1.2014 -0.5479
17420SOL     OW53102   0.131   1.836   6.213  0.3730  0.3406 -0.1715
17420SOL    HW153103   0.053   1.787   6.238  1.6558 -2.4936 -1.3208
17420SOL    HW253104   0.126   1.844   6.118  1.0445  0.9237 -0.1696
17421SOL     OW53105   8.129   3.571   3.022  0.3241  0.0352  0.0591
17421SOL    HW153106   8.198   3.543   2.962 -0.0883 -0.7034 -0.0814
17421SOL    HW253107   8.090   3.490   3.054 -0.6325  0.4416 -0.0375
17422SOL     OW53108   3.604   6.878   6.483 -0.8500  0.4013 -0.4605
17422SOL    HW153109   3.626   6.797   6.529  0.3750 -0.0835 -1.8278
17422SOL    HW253110   3.689   6.912   6.452 -1.2186  2.6181  0.6835
17423SOL     OW53111   1.934   4.633   4.232 -0.1071 -0.5529  0.1860
17423SOL    HW153112   2.027   4.657   4.228 -0.3687  0.3833 -0.7276
17423SOL    HW253113   1.893   4.705   4.280 -1.0729  1.6579 -3.4883
17424SOL     OW53114   6.883   0.145   6.449  0.3409  0.2350  0.7854
17424SOL    HW153115   6.828   0.216   6.483  1.8653  0.6304  2.5580
17424SOL    HW253116   6.877   0.154   6.354 -1.3208  1.2952  0.9473
17425SOL     OW53117   5.156   5.292   1.706  0.1782 -0.5565  0.2920
17425SOL    HW153118   5.235   5.278   1.759 -0.6083 -2.3241  1.0760
17425SOL    HW253119   5.154   5.218   1.646 -0.3375  0.0460 -0.4565
17426SOL     OW53120   6.986   0.520   3.604 -0.1536 -0.0449  0.2351
17426SOL    HW153121   6.984   0.602   3.653  1.9085  0.9787 -1.2359
17426SOL    HW253122   7.030   0.458   3.662 -0.6960  0.1940  0.9131
17427SOL     OW53123   4.037   5.646   2.234 -0.3878  0.3751 -0.5847
17427SOL    HW153124   4.100   5.690   2.291 -1.4284  2.2844 -0.8322
17427SOL    HW253125   4.090   5.611   2.162  0.5727  0.4889  0.0460
17428SOL     OW53126   4.600   0.943   6.010  0.2703  0.2086  0.0851
17428SOL    HW153127   4.684   0.910   6.042  0.5644  0.7090 -0.1531
17428SOL    HW253128   4.617   1.035   5.988 -0.2322  0.2002 -0.3689
17429SOL     OW53129   7.758   7.787   6.393  0.0172  0.2532 -0.4321
17429SOL    HW153130   7.671   7.748   6.393  0.5274 -0.9249 -0.8150
17429SOL    HW253131   7.751   7.861   6.454 -1.1767  0.0272 -0.2683
17430SOL     OW53132   6.647   2.864   7.416 -0.0632  0.4387 -0.0031
17430SOL    HW153133   6.642   2.770   7.395 -0.3094  0.3354  0.5021
17430SOL    HW253134   6.675   2.866   7.508  0.2500  0.8693 -0.1039
17431SOL     OW53135   2.631   3.900   5.948 -0.2279 -0.2707  0.8273
17431SOL    HW153136   2.555   3.865   5.902 -1.4559  2.2794  0.7477
17431SOL    HW253137   2.647   3.985   5.906  1.5664  0.0314  2.0316
17432SOL     OW53138   6.466   5.360   3.162 -0.0245  0.1177  0.4397
17432SOL    HW153139   6.561   5.360   3.179  0.2365 -0.4004 -0.8557
17432SOL    HW253140   6.439   5.269   3.175 -0.0705 -0.0104 -0.4712
17433SOL     OW53141   3.528   1.548   7.981 -0.5354  0.2408  0.1781
17433SOL    HW153142   3.599   1.607   7.958 -1.1416  0.1056 -2.3373
17433SOL    HW253143   3.571   1.471   8.019  0.6412  0.3009 -0.9935
17434SOL     OW53144   7.928   3.803   1.268 -0.1484  0.6355  0.7283
17434SOL    HW153145   7.926   3.712   1.238  2.1861  0.3126  1.3275
17434SOL    HW253146   7.906   3.854   1.191  1.3724 -0.3545 -0.4417
17435SOL     OW53147   0.411   4.717   3.648 -0.1091  0.2672  0.3540
17435SOL    HW153148   0.328   4.759   3.669 -0.3377 -0.3173  0.6337
17435SOL    HW253149   0.476   4.763   3.701 -0.1239  1.2721 -0.4811
17436SOL     OW53150   0.720   2.331   2.108  0.0428 -0.2413  0.4430
17436SOL    HW153151   0.674   2.277   2.043 -1.7766  0.7653  0.8336
17436SOL    HW253152   0.812   2.325   2.082 -0.5604 -0.1459 -2.0546
17437SOL     OW53153   0.791   6.057   5.053  0.1568  0.2076 -0.2673
17437SOL    HW153154   0.706   6.061   5.096  0.6009  1.9116  0.5276
17437SOL    HW253155   0.850   6.023   5.120  0.1511 -0.8789 -0.7877
17438SOL     OW53156   5.550   4.446   6.829  0.0384 -0.0388 -0.6841
17438SOL    HW153157   5.486   4.510   6.798  1.2822  2.5501  1.6660
17438SOL    HW253158   5.614   4.439   6.758  0.8225  2.8234 -0.3862
17439SOL     OW53159   4.558   7.369   4.157 -0.6137 -0.5095 -0.7503
17439SOL    HW153160   4.595   7.281   4.157 -0.2412 -0.3590  0.0442
17439SOL    HW253161   4.587   7.407   4.074  2.5106  0.2164  0.5362
17440SOL     OW53162   2.829   1.044   2.012  0.0290  0.1785 -0.2451
17440SOL    HW153163   2.921   1.048   1.988 -0.2200  1.7578 -1.0290
17440SOL    HW253164   2.806   1.134   2.036 -0.5845 -0.6677  2.8425
17441SOL     OW53165   5.542   6.136   2.182 -0.3357  0.4391 -0.5126
17441SOL    HW153166   5.542   6.194   2.259 -1.6309 -0.6410  0.3431
17441SOL    HW253167   5.451   6.106   2.175  0.0400 -0.4900 -1.7070
17442SOL     OW53168   0.669   1.759   3.953  0.4125  0.1492  0.3879
17442SOL    HW153169   0.716   1.677   3.969 -0.9741 -0.7954 -0.2458
17442SOL    HW253170   0.738   1.822   3.933  1.7012 -0.2912  2.9566
17443SOL     OW53171   3.840   2.592   2.798  0.3852 -0.1247 -0.0635
17443SOL    HW153172   3.933   2.570   2.792  0.0210 -1.5372 -1.0016
17443SOL    HW253173   3.830   2.670   2.743  0.9942 -0.0236 -0.0344
17444SOL     OW53174   0.067   3.802   0.442 -0.8015  0.1545 -0.9301
17444SOL    HW153175   0.084   3.854   0.521  1.2216  0.0572 -1.2405
17444SOL    HW253176   0.135   3.829   0.380 -0.5977 -1.7648 -1.6174
17445SOL     OW53177   7.348   5.609   3.599  0.5432  0.7782 -0.4740
17445SOL    HW153178   7.380   5.538   3.544  0.8268  0.5948 -0.0765
17445SOL    HW253179   7.333   5.568   3.685  1.4780  1.3741 -0.0171
17446SOL     OW53180   2.906   6.810   1.447  0.0039  0.1699 -0.3185
17446SOL    HW153181   2.923   6.770   1.533 -0.2422  0.3522 -0.1862
17446SOL    HW253182   2.971   6.879   1.440 -0.8243  1.0313  0.2962
17447SOL     OW53183   4.754   1.699   6.886  0.1342  0.0930 -1.1859
17447SOL    HW153184   4.752   1.675   6.978 -1.2948  1.1600 -0.9040
17447SOL    HW253185   4.847   1.704   6.864  0.5292  1.1239  0.5500
17448SOL     OW53186   5.892   7.039   7.539 -0.5438  0.3005 -0.1442
17448SOL    HW153187   5.828   7.017   7.606 -0.3061 -0.2685 -0.0909
17448SOL    HW253188   5.849   7.015   7.456  0.1907 -1.6836 -0.0125
17449SOL     OW53189   1.738   0.500   2.337  0.3750 -0.7704 -0.7051
17449SOL    HW153190   1.811   0.439   2.330  1.5043  0.3835  0.4125
17449SOL    HW253191   1.774   0.583   2.304 -0.9758 -0.5647 -1.7454
17450SOL     OW53192   6.413   2.192   4.552  0.1777 -0.2732  0.6299
17450SOL    HW153193   6.350   2.122   4.567 -0.9963  0.9511  1.7291
17450SOL    HW253194   6.492   2.164   4.599  0.0100 -1.2241  0.3577
17451SOL     OW53195   2.847   5.698   6.906 -0.0704  0.0012 -0.1239
17451SOL    HW153196   2.817   5.761   6.972  0.7966  1.4962 -1.1029
17451SOL    HW253197   2.822   5.737   6.823 -1.3461 -1.9682 -0.7375
17452SOL     OW53198   3.072   1.671   3.749 -0.0676  0.1448 -0.2638
17452SOL    HW153199   3.061   1.709   3.836 -0.8852  1.8507 -1.0643
17452SOL    HW253200   3.162   1.692   3.725  0.2867 -0.6740  0.3004
17453SOL     OW53201   3.976   1.256   0.552  0.0678  0.4005 -0.2662
17453SOL    HW153202   3.993   1.199   0.478  0.6270  1.7965 -1.2679
17453SOL    HW253203   4.019   1.214   0.626 -0.3971 -0.9577 -0.7474
17454SOL     OW53204   6.042   0.147   5.210  0.1102  0.2862 -0.3362
17454SOL    HW153205   5.980   0.219   5.219 -1.0148 -0.7551  0.5003
17454SOL    HW253206   5.989   0.072   5.185  0.7719 -0.9560  1.6901
17455SOL     OW53207   0.056   3.988   3.952  0.5483  0.4119 -0.5254
17455SOL    HW153208   0.016   4.002   3.866  0.0354 -0.3458 -0.4210
17455SOL    HW253209   0.150   4.001   3.937  0.4008  0.9089 -1.0585
17456SOL     OW53210   5.857   0.539   1.017 -0.5336 -0.0623  0.4836
17456SOL    HW153211   5.862   0.583   1.102  0.7445  0.5894  0.0956
17456SOL    HW253212   5.947   0.513   0.999 -0.5619  0.9015 -1.2218
17457SOL     OW53213   4.743   1.784   3.019 -0.3451 -0.2389 -0.6094
17457SOL    HW153214   4.826   1.745   3.047 -0.2552 -0.5918 -1.3448
17457SOL    HW253215   4.765   1.875   2.998 -0.3730 -0.0260  0.2383
17458SOL     OW53216   3.891   6.392   3.956 -0.5323  0.1742  0.4225
17458SOL    HW153217   3.865   6.362   3.869 -0.0757 -0.9073  0.6301
17458SOL    HW253218   3.982   6.361   3.965 -0.5239  0.4135  1.2191
17459SOL     OW53219   6.064   6.364   2.814 -0.1085  0.1447  0.6987
17459SOL    HW153220   6.061   6.348   2.720 -0.2496 -0.2728  0.7705
17459SOL    HW253221   6.024   6.286   2.853  2.3945 -1.0195  1.2176
17460SOL     OW53222   5.126   1.860   0.949 -0.0396  0.3013  0.0608
17460SOL    HW153223   5.113   1.837   1.041 -1.8622  0.1471 -0.1908
17460SOL    HW253224   5.221   1.864   0.938  0.2471  2.8201  2.5309
17461SOL     OW53225   2.833   0.872   5.287  0.2524 -0.3190  0.3288
17461SOL    HW153226   2.876   0.801   5.241 -4.1672 -1.1796 -3.1371
17461SOL    HW253227   2.784   0.829   5.357  1.2045  0.0253  1.2310
17462SOL     OW53228   7.714   0.649   3.256  0.0754 -0.5007  0.1055
17462SOL    HW153229   7.778   0.597   3.304  1.1919  0.8231  0.1430
17462SOL    HW253230   7.630   0.630   3.297  0.7502 -0.7558  1.4007
17463SOL     OW53231   7.525   0.063   3.042  0.1733  0.0014 -0.4783
17463SOL    HW153232   7.550  -0.024   3.073  0.1026  0.1076 -0.1250
17463SOL    HW253233   7.430   0.059   3.032  0.0374  0.3708  0.5815
17464SOL     OW53234   4.563   0.431   6.244 -0.1832  0.5355 -0.3179
17464SOL    HW153235   4.566   0.389   6.330  1.1204 -1.1562 -1.1192
17464SOL    HW253236   4.483   0.482   6.245 -0.4854  0.1132  1.6958
17465SOL     OW53237   0.258   1.003   1.319 -0.0046  0.3855 -0.4001
17465SOL    HW153238   0.232   0.998   1.227  0.6639 -1.0570 -0.5372
17465SOL    HW253239   0.185   0.964   1.367  0.5907 -0.9454 -0.5345
17466SOL     OW53240   3.591   3.904   1.781 -0.2828 -0.4278  0.0185
17466SOL    HW153241   3.611   3.811   1.794  1.3298 -0.3979 -1.7577
17466SOL    HW253242   3.530   3.905   1.707 -1.3200 -0.1084  0.8537
17467SOL     OW53243   3.453   5.546   3.374  0.4655  0.0631 -0.0320
17467SOL    HW153244   3.381   5.608   3.368  1.3209  1.2057  0.8760
17467SOL    HW253245   3.510   5.567   3.301  0.5703  0.0961  0.0584
17468SOL     OW53246   0.794   6.122   6.175  0.1453  0.2151 -0.5277
17468SOL    HW153247   0.886   6.107   6.200 -0.1567  0.3396  0.6925
17468SOL    HW253248   0.778   6.057   6.106  1.1661  0.2309 -0.8049
17469SOL     OW53249   3.795   3.286   0.488 -0.0161  0.6762 -0.8194
17469SOL    HW153250   3.782   3.196   0.519 -2.8043  0.6405 -1.8076
17469SOL    HW253251   3.853   3.325   0.553  0.3767 -1.5070  0.2549
17470SOL     OW53252   1.204   1.126   7.148 -0.8679  0.4354  0.5524
17470SOL    HW153253   1.223   1.201   7.092  1.0412 -0.4882 -0.1056
17470SOL    HW253254   1.270   1.129   7.217 -1.5220  0.0268  1.2140
17471SOL     OW53255   2.384   5.491   7.932 -0.3325 -0.4073  0.1139
17471SOL    HW153256   2.443   5.420   7.907 -0.0916 -0.9437  2.0769
17471SOL    HW253257   2.309   5.480   7.874  0.4844 -1.1259 -0.8588
17472SOL     OW53258   3.620   2.093   8.076 -0.1929  0.3565 -0.5996
17472SOL    HW153259   3.584   2.103   7.988 -1.0353  0.5754 -0.2377
17472SOL    HW253260   3.612   2.180   8.115  1.5935  0.6639 -0.8115
17473SOL     OW53261   1.888   7.161   3.662 -0.6954  0.2246 -0.1497
17473SOL    HW153262   1.896   7.071   3.632 -0.7954 -0.3478  1.4252
17473SOL    HW253263   1.952   7.168   3.733 -1.1035  1.2007  0.1436
17474SOL     OW53264   2.533   1.038   3.838 -0.2065 -0.0647 -0.3232
17474SOL    HW153265   2.504   1.009   3.924  1.5187 -2.3664 -0.4392
17474SOL    HW253266   2.504   0.969   3.778 -1.1422  1.3608 -1.5865
17475SOL     OW53267   6.441   3.452   7.575 -0.2239 -0.3959  0.0612
17475SOL    HW153268   6.446   3.522   7.640 -0.0599 -1.2023  0.9327
17475SOL    HW253269   6.400   3.493   7.499  1.4034  1.1131 -0.0868
17476SOL     OW53270   6.861   0.248   5.642  0.2669 -0.0869  0.0201
17476SOL    HW153271   6.852   0.245   5.547  0.8487  0.5640 -0.0666
17476SOL    HW253272   6.956   0.240   5.657  0.3230  1.1510  0.4689
17477SOL     OW53273   7.921   4.747   7.187 -0.1251 -0.2102 -0.0699
17477SOL    HW153274   7.934   4.733   7.093 -0.2959  0.0627 -0.1347
17477SOL    HW253275   7.996   4.705   7.228  0.1150 -0.0573 -0.3483
17478SOL     OW53276   2.803   7.440   8.050  0.1977 -0.1784 -0.0140
17478SOL    HW153277   2.799   7.455   7.956 -0.2780 -0.3172 -0.0186
17478SOL    HW253278   2.786   7.347   8.061 -1.8241  0.1897  0.3340
17479SOL     OW53279   1.417   6.659   0.417 -0.4038 -0.4078  0.1335
17479SOL    HW153280   1.512   6.664   0.406 -0.6145  0.5253 -1.6337
17479SOL    HW253281   1.392   6.580   0.368 -0.5399 -0.7431  0.7320
17480SOL     OW53282   2.325   4.964   7.757  0.6765  0.5608  0.9353
17480SOL    HW153283   2.334   5.044   7.706  0.0711  2.3031  3.3837
17480SOL    HW253284   2.392   4.905   7.722 -0.1780  1.3141 -2.2650
17481SOL     OW53285   6.026   2.957   1.632 -0.2975 -0.1142 -0.4488
17481SOL    HW153286   6.085   2.989   1.701 -0.5942 -1.4424  0.4495
17481SOL    HW253287   5.959   2.908   1.679  1.0890 -3.6355 -1.7933
17482SOL     OW53288   6.658   5.572   1.026 -0.3146 -0.0823 -0.6551
17482SOL    HW153289   6.575   5.619   1.027 -1.1063 -1.4684  0.1348
17482SOL    HW253290   6.724   5.641   1.032 -1.4419  0.9387  0.3691
17483SOL     OW53291   7.907   8.037   7.502 -0.3023 -0.1191  0.3747
17483SOL    HW153292   7.992   8.047   7.545  0.1646 -0.2547 -0.4945
17483SOL    HW253293   7.902   8.111   7.443 -1.4115  0.6630  1.4028
17484SOL     OW53294   1.384   0.128   6.807 -0.1457  0.0623  0.3149
17484SOL    HW153295   1.299   0.140   6.765  0.4051  0.4439 -0.7495
17484SOL    HW253296   1.374   0.051   6.862 -1.3333  0.4240  0.6394
17485SOL     OW53297   3.074   7.584   1.740  0.3534 -0.0217 -0.0024
17485SOL    HW153298   3.032   7.503   1.714 -0.9084  1.0888 -1.5626
17485SOL    HW253299   3.046   7.598   1.830  1.3614 -1.7482  0.6408
17486SOL     OW53300   4.589   0.835   4.470  0.0760  0.0723  0.0540
17486SOL    HW153301   4.603   0.926   4.492  1.4293  0.0936 -0.8085
17486SOL    HW253302   4.619   0.786   4.546  2.4765  0.2422 -0.6946
17487SOL     OW53303   4.398   7.380   6.323  0.2381  0.4708  0.0835
17487SOL    HW153304   4.370   7.437   6.394 -0.9118 -0.1378  0.1423
17487SOL    HW253305   4.492   7.397   6.314  0.0123  2.0614  0.3687
17488SOL     OW53306   5.705   6.573   1.971 -0.3836 -0.0186  0.0387
17488SOL    HW153307   5.757   6.636   1.920  0.2245  0.1463  0.8522
17488SOL    HW253308   5.752   6.565   2.054  0.5992 -2.9529 -0.6834
17489SOL     OW53309   4.413   5.710   5.319  0.2865 -0.0451 -0.0860
17489SOL    HW153310   4.468   5.730   5.243  0.4303 -1.2682 -0.3240
17489SOL    HW253311   4.324   5.718   5.286  0.3422  0.1010 -0.2040
17490SOL     OW53312   4.666   2.770   0.918 -0.3854 -0.0983 -0.1901
17490SOL    HW153313   4.730   2.759   0.988 -1.2660 -0.0006  0.6579
17490SOL    HW253314   4.683   2.858   0.884  1.8296 -1.1408 -1.9843
17491SOL     OW53315   1.243   5.814   8.102 -0.5779 -0.7210 -0.3588
17491SOL    HW153316   1.302   5.796   8.175 -0.8004  0.1485  0.0555
17491SOL    HW253317   1.289   5.782   8.025  0.7932  0.6173 -0.1521
17492SOL     OW53318   0.324   1.084   5.300  0.6953 -0.0737 -0.0920
17492SOL    HW153319   0.253   1.148   5.295  1.1278  0.3389 -1.3382
17492SOL    HW253320   0.281   1.000   5.289  0.2961  0.1122  0.0274
17493SOL     OW53321   4.651   3.646   5.994  0.1725  0.0254 -0.0405
17493SOL    HW153322   4.619   3.568   5.949 -1.0527 -0.5212  1.6778
17493SOL    HW253323   4.579   3.708   5.988  1.3586  1.3197 -1.9137
17494SOL     OW53324   7.029   7.848   1.929 -0.1679  0.2262 -0.4197
17494SOL    HW153325   7.050   7.831   2.021  0.1534 -0.6004 -0.6349
17494SOL    HW253326   7.056   7.939   1.914  1.2128 -0.1107 -0.0903
17495SOL     OW53327   0.880   2.470   3.363  0.2811  0.1154 -0.6671
17495SOL    HW153328   0.913   2.560   3.364  0.6604 -0.0194  0.2429
17495SOL    HW253329   0.957   2.417   3.384 -0.4023 -0.2363  1.1198
17496SOL     OW53330   0.365   8.026   5.714 -0.6941  0.0687  0.0469
17496SOL    HW153331   0.411   8.033   5.797  0.0448  1.7897 -0.4604
17496SOL    HW253332   0.400   7.948   5.673  1.4244  1.0164 -0.0691
17497SOL     OW53333   0.807   4.106   4.096 -0.0065  0.0583  0.1190
17497SOL    HW153334   0.737   4.052   4.133  0.7059 -0.2074  1.1440
17497SOL    HW253335   0.764   4.161   4.031 -1.1659 -0.0977  0.7278
17498SOL     OW53336   3.242   0.446   7.862  0.1116  0.7121  0.2004
17498SOL    HW153337   3.204   0.528   7.893 -0.3133  0.8649 -0.6861
17498SOL    HW253338   3.322   0.434   7.914 -1.2240  0.2783  2.2940
17499SOL     OW53339   1.089   2.609   2.384  0.3699  0.1687  0.7186
17499SOL    HW153340   1.011   2.585   2.334  1.0556 -0.5371 -0.0447
17499SOL    HW253341   1.055   2.657   2.460 -0.6755  1.6719 -0.6415
17500SOL     OW53342   1.941   2.128   6.866 -0.6174 -0.4800  0.5021
17500SOL    HW153343   1.953   2.048   6.918 -0.2282 -0.1162  0.9845
17500SOL    HW253344   2.018   2.181   6.886  0.0074 -0.6920 -1.1388
17501SOL     OW53345   6.546   4.917   2.237 -0.2734  0.5109 -0.1267
17501SOL    HW153346   6.529   4.892   2.146  4.4364 -1.1734 -0.8186
17501SOL    HW253347   6.568   4.834   2.280 -0.4832  1.5440  2.0701
17502SOL     OW53348   4.898   3.558   7.880 -0.5757 -0.3780  0.1990
17502SOL    HW153349   4.918   3.650   7.896 -0.9980 -0.6509  2.7360
17502SOL    HW253350   4.811   3.545   7.917 -0.5693 -1.7755 -0.1947
17503SOL     OW53351   2.239   5.495   3.374  0.2862  0.0917  0.1470
17503SOL    HW153352   2.214   5.587   3.370  0.1675  0.2795  2.9607
17503SOL    HW253353   2.159   5.447   3.354 -0.4800  0.6506  1.7490
17504SOL     OW53354   4.213   5.288   3.454  0.5687 -0.0074 -0.5176
17504SOL    HW153355   4.295   5.338   3.459 -0.0815  1.1262 -0.8698
17504SOL    HW253356   4.162   5.333   3.387 -0.6232 -0.2830  0.1767
17505SOL     OW53357   6.726   1.949   6.009  0.6512 -0.4075 -0.5447
17505SOL    HW153358   6.675   1.882   5.962  0.2073 -0.6917  0.3209
17505SOL    HW253359   6.790   1.979   5.945  0.3280 -1.0836 -1.2060
17506SOL     OW53360   4.892   3.740   5.334 -0.4025 -1.2910 -0.4646
17506SOL    HW153361   4.926   3.720   5.421  1.6085 -1.8098 -1.3300
17506SOL    HW253362   4.952   3.697   5.273  0.0553  1.5653 -2.2290
17507SOL     OW53363   7.922   7.124   7.781  0.1224  0.0831  0.1591
17507SOL    HW153364   7.846   7.081   7.741 -0.2279  1.1471 -0.3572
17507SOL    HW253365   7.953   7.062   7.847 -0.2921 -1.0065 -0.6340
17508SOL     OW53366   1.890   2.662   4.420 -0.7090 -0.4373 -0.1654
17508SOL    HW153367   1.952   2.680   4.349  0.0547  2.6762  1.1196
17508SOL    HW253368   1.806   2.649   4.376 -0.1760  0.9646 -1.7021
17509SOL     OW53369   5.832   0.786   5.638 -0.6880 -0.0705  0.0793
17509SOL    HW153370   5.835   0.787   5.542 -3.8045  0.4436 -0.1346
17509SOL    HW253371   5.803   0.874   5.662  1.6051  0.3251  1.6608
17510SOL     OW53372   8.172   7.748   1.315  0.5581  0.7513  0.1927
17510SOL    HW153373   8.253   7.701   1.294  0.7455  1.6883 -1.3520
17510SOL    HW253374   8.128   7.758   1.231 -1.0039  0.5812  0.9649
17511SOL     OW53375   1.117   7.200   6.224  0.0051  0.3838 -0.1773
17511SOL    HW153376   1.199   7.155   6.245 -1.1730 -2.9522 -1.8668
17511SOL    HW253377   1.125   7.221   6.131 -1.0296  0.0097 -0.3636
17512SOL     OW53378   1.290   4.905   1.228  0.3245  0.2472 -0.5484
17512SOL    HW153379   1.348   4.974   1.258  0.3321  0.7324 -1.6247
17512SOL    HW253380   1.205   4.947   1.217  0.1214 -0.1159 -0.3991
17513SOL     OW53381   5.259   8.135   0.913  0.0101  0.5632 -0.1289
17513SOL    HW153382   5.246   8.221   0.873 -1.8719  1.4037  2.0652
17513SOL    HW253383   5.330   8.148   0.977  0.8595  0.0273 -0.9391
17514SOL     OW53384   7.687   1.896   3.000  0.4099  0.1916  0.0086
17514SOL    HW153385   7.783   1.895   2.991  0.6242 -1.7639  1.8757
17514SOL    HW253386   7.671   1.962   3.068  0.2531  1.6164 -1.3514
17515SOL     OW53387   7.033   6.664   2.325 -0.1173 -0.0301  0.2609
17515SOL    HW153388   7.073   6.599   2.266  1.3520  1.7346 -0.7996
17515SOL    HW253389   7.003   6.734   2.266 -0.4399  0.8549  1.4511
17516SOL     OW53390   3.807   0.647   0.122  0.0204  0.1134  0.6451
17516SOL    HW153391   3.847   0.565   0.094  0.7681  1.0712 -1.2748
17516SOL    HW253392   3.763   0.625   0.204  0.4670 -2.1082  0.3624
17517SOL     OW53393   2.065   4.034   3.902 -0.9292 -0.0182  0.8087
17517SOL    HW153394   2.032   4.087   3.974 -0.3096  1.0602  0.3098
17517SOL    HW253395   1.991   4.027   3.841 -0.7677  0.9809  0.4848
17518SOL     OW53396   5.998   0.148   0.546  0.3537  0.3457  0.0140
17518SOL    HW153397   6.040   0.073   0.503  0.5144  0.2629  0.3160
17518SOL    HW253398   5.982   0.210   0.475 -1.6577 -0.8086 -0.6375
17519SOL     OW53399   2.658   1.649   2.519 -0.1471  0.4098  0.3777
17519SOL    HW153400   2.599   1.692   2.457 -0.2768 -0.9187 -0.4410
17519SOL    HW253401   2.676   1.717   2.585 -1.9230  1.0821  0.2201
17520SOL     OW53402   7.204   7.934   5.156  0.2713 -0.6214  0.1619
17520SOL    HW153403   7.282   7.987   5.173  1.0789 -1.7994  0.2659
17520SOL    HW253404   7.149   7.947   5.233 -0.3480  1.3829 -0.5532
17521SOL     OW53405   5.387   6.950   1.376  0.2888  0.5559  0.4427
17521SOL    HW153406   5.368   6.959   1.282  0.7909 -4.4296 -0.4088
17521SOL    HW253407   5.314   6.898   1.410 -0.7945  3.6663  3.4139
17522SOL     OW53408   0.003   5.722   1.092  0.3561 -0.0924 -0.7544
17522SOL    HW153409   0.081   5.669   1.107  1.2128  1.1601 -0.5957
17522SOL    HW253410  -0.066   5.677   1.140  1.3126 -0.4239  0.3615
17523SOL     OW53411   4.775   2.287   2.207 -0.2682 -0.8260  0.5750
17523SOL    HW153412   4.699   2.260   2.155  0.0994  0.4278 -0.7014
17523SOL    HW253413   4.794   2.212   2.263 -1.6927 -1.6225  0.0464
17524SOL     OW53414   1.135   7.356   1.469  0.6688  0.1518  0.0621
17524SOL    HW153415   1.112   7.311   1.550  0.2652  0.7359  0.2762
17524SOL    HW253416   1.228   7.377   1.479  0.7136 -0.1070  0.2089
17525SOL     OW53417   7.482   1.270   2.011 -0.5784  0.0190  0.0870
17525SOL    HW153418   7.455   1.355   2.046 -2.4467 -0.3303 -0.3698
17525SOL    HW253419   7.546   1.237   2.074 -1.8455  0.5834  1.7602
17526SOL     OW53420   5.443   0.222   3.495  0.6168  0.2053  0.2352
17526SOL    HW153421   5.518   0.273   3.524  1.3157  0.0699 -1.2571
17526SOL    HW253422   5.466   0.131   3.514  1.1712  0.0956 -0.8731
17527SOL     OW53423   4.001   5.938   8.100  0.6835 -0.1713 -0.4415
17527SOL    HW153424   3.997   5.938   8.196  1.2021  0.3982 -0.4126
17527SOL    HW253425   3.981   5.848   8.075  2.5949 -0.8572  0.3029
17528SOL     OW53426   6.737   8.146   8.053 -0.2751  0.3455 -0.1583
17528SOL    HW153427   6.823   8.148   8.010 -0.8281  4.0030 -1.4183
17528SOL    HW253428   6.753   8.180   8.141 -0.1104 -1.4580  0.5565
17529SOL     OW53429   2.823   4.595   5.149  0.9869 -0.1133  0.5710
17529SOL    HW153430   2.868   4.671   5.111 -0.1074  0.6605  0.7861
17529SOL    HW253431   2.773   4.558   5.076  0.9967 -0.2414  0.6283
17530SOL     OW53432   5.809   2.860   4.541 -0.5776  0.3112 -0.0322
17530SOL    HW153433   5.843   2.777   4.573  1.1954  0.8923 -0.2850
17530SOL    HW253434   5.882   2.899   4.492 -1.6104  1.6639 -0.5793
17531SOL     OW53435   0.941   1.857   5.525  0.0766 -0.0067  0.0682
17531SOL    HW153436   1.010   1.797   5.497 -0.2534  0.0727 -0.9480
17531SOL    HW253437   0.860   1.817   5.492 -0.4057 -0.2042  1.4033
17532SOL     OW53438   7.148   5.436   7.873 -0.0957  0.2700 -0.2881
17532SOL    HW153439   7.126   5.435   7.966 -1.2718  0.1455 -0.5586
17532SOL    HW253440   7.125   5.349   7.842 -4.2681  1.6408 -1.6715
17533SOL     OW53441   7.614   6.040   6.188 -0.0872 -0.4163 -0.4657
17533SOL    HW153442   7.640   6.020   6.098  1.0895  1.0069 -0.4754
17533SOL    HW253443   7.555   6.115   6.179 -0.2739 -0.5173 -0.0731
17534SOL     OW53444   7.073   3.473   6.468 -0.2340  0.5046  0.3866
17534SOL    HW153445   6.995   3.504   6.423  0.1621 -0.5677 -1.1165
17534SOL    HW253446   7.045   3.394   6.514 -0.0935  0.1973 -0.0417
17535SOL     OW53447   5.025   7.080   6.051  0.0743 -0.2229  0.0075
17535SOL    HW153448   5.090   7.066   6.120 -0.1925  0.5538  0.4296
17535SOL    HW253449   4.943   7.096   6.098 -0.0185  0.7990 -0.4623
17536SOL     OW53450   1.345   7.721   5.798 -0.2788 -0.1440 -0.0398
17536SOL    HW153451   1.421   7.669   5.826 -0.4255 -0.1235  0.4048
17536SOL    HW253452   1.341   7.793   5.861 -1.2449 -0.6797  0.5306
17537SOL     OW53453   6.977   2.495   3.244 -0.1812  0.3713  0.0879
17537SOL    HW153454   6.894   2.492   3.196 -0.7403  0.9612  0.9788
17537SOL    HW253455   7.028   2.422   3.210 -1.3106 -0.3714 -0.0426
17538SOL     OW53456   5.939   5.301   1.599 -0.2431 -0.0327 -0.7608
17538SOL    HW153457   6.024   5.304   1.556  1.3802  6.4858  1.6602
17538SOL    HW253458   5.959   5.275   1.689 -0.8347  0.6953 -0.4004
17539SOL     OW53459   1.746   4.522   3.643 -0.2487  0.2536 -0.2690
17539SOL    HW153460   1.780   4.602   3.682  0.1027 -0.3087  0.5960
17539SOL    HW253461   1.794   4.513   3.561 -0.2190  0.8695 -0.3253
17540SOL     OW53462   0.496   4.505   2.046  0.0922  0.2494  0.0923
17540SOL    HW153463   0.426   4.530   1.985 -0.9233 -0.9180  0.7389
17540SOL    HW253464   0.456   4.512   2.132  1.3657  1.3673  0.6221
17541SOL     OW53465   1.523   5.353   6.453 -0.2927 -0.4842  0.5922
17541SOL    HW153466   1.573   5.411   6.396 -1.2102 -0.2216  0.0286
17541SOL    HW253467   1.589   5.306   6.504  0.4639  1.0296  1.0496
17542SOL     OW53468   3.890   0.715   7.156 -0.0345 -0.3236  0.3164
17542SOL    HW153469   3.876   0.648   7.089  0.1173 -0.0909  0.0513
17542SOL    HW253470   3.864   0.672   7.238  1.2458 -1.1443  0.3375
17543SOL     OW53471   6.731   6.111   4.481  0.7609 -0.4362 -0.5733
17543SOL    HW153472   6.749   6.104   4.387  1.5426  0.0987 -0.4741
17543SOL    HW253473   6.802   6.165   4.515  1.3220 -1.8422  0.5819
17544SOL     OW53474   6.556   3.680   6.015  0.0516 -0.4442 -0.2836
17544SOL    HW153475   6.588   3.706   6.102  0.8236 -1.0336 -0.3832
17544SOL    HW253476   6.535   3.763   5.972 -1.6807 -0.1853  0.9399
17545SOL     OW53477   6.085   0.887   4.283 -0.1582 -0.0086  0.0014
17545SOL    HW153478   6.035   0.928   4.212 -1.4609  0.8803  1.3714
17545SOL    HW253479   6.074   0.793   4.267  1.1409  0.1105 -1.9922
17546SOL     OW53480   1.937   3.188   6.595  0.3286  0.2928  0.2833
17546SOL    HW153481   1.990   3.236   6.659  1.3992  1.5620 -1.4470
17546SOL    HW253482   1.991   3.189   6.516 -0.3892 -2.3550 -0.2966
17547SOL     OW53483   0.063   6.167   0.598 -0.4386  0.2546 -0.4098
17547SOL    HW153484   0.002   6.142   0.668 -0.0478 -0.6335 -0.3697
17547SOL    HW253485   0.142   6.115   0.615  0.5982  1.8683 -0.0726
17548SOL     OW53486   1.340   0.507   0.859  0.2363  0.1991  0.1818
17548SOL    HW153487   1.417   0.535   0.908  1.0608 -1.8134  0.0912
17548SOL    HW253488   1.370   0.498   0.769 -0.3606  0.3128 -0.0363
17549SOL     OW53489   4.383   5.147   5.355 -0.1897 -0.2687  0.3463
17549SOL    HW153490   4.478   5.144   5.342 -0.0703 -0.4919  1.1864
17549SOL    HW253491   4.370   5.216   5.419 -0.7326  0.7056 -0.7813
17550SOL     OW53492   5.096   3.521   0.528  0.1225 -0.1352  0.9364
17550SOL    HW153493   5.187   3.518   0.559  0.5480 -0.4763 -0.2486
17550SOL    HW253494   5.102   3.566   0.444 -0.7557 -0.4764  0.6847
17551SOL     OW53495   4.496   1.554   3.784  0.4847  0.0868  0.6888
17551SOL    HW153496   4.420   1.562   3.842 -0.4587  2.5752 -0.7523
17551SOL    HW253497   4.495   1.463   3.756  0.3238 -0.9254  3.6086
17552SOL     OW53498   7.425   3.639   2.945 -0.1064  0.2336  0.1039
17552SOL    HW153499   7.511   3.681   2.954 -0.4770  0.7485  1.6404
17552SOL    HW253500   7.438   3.550   2.978  0.5908 -0.8308 -2.8075
17553SOL     OW53501   0.805   0.594   6.609  0.2091 -0.2858  0.2973
17553SOL    HW153502   0.845   0.668   6.653  1.1533  0.9083 -2.3818
17553SOL    HW253503   0.746   0.633   6.544 -0.0648 -1.8986 -0.4803
17554SOL     OW53504   5.557   5.756   8.112  0.3194  0.0644  0.1909
17554SOL    HW153505   5.475   5.716   8.139 -0.1523  0.3608 -0.7822
17554SOL    HW253506   5.559   5.747   8.017  1.9306 -0.9142  0.2830
17555SOL     OW53507   7.862   7.004   6.759 -0.2338 -0.0325  0.0319
17555SOL    HW153508   7.926   7.033   6.824  0.5060 -0.6941 -0.3844
17555SOL    HW253509   7.838   7.084   6.712 -0.8901  0.4811  1.1850
17556SOL     OW53510   7.364   4.355   4.076  0.0833  0.1703  0.3306
17556SOL    HW153511   7.349   4.282   4.137  0.0835  0.2773  0.4583
17556SOL    HW253512   7.417   4.316   4.006  0.1075  0.0534  0.4119
17557SOL     OW53513   4.398   3.731   4.580 -0.1500  0.8873 -0.2497
17557SOL    HW153514   4.456   3.772   4.516  0.1943 -1.4694 -1.5355
17557SOL    HW253515   4.312   3.732   4.540 -0.1055  0.2302 -0.3767
17558SOL     OW53516   6.919   0.569   2.589 -0.3854 -0.0341 -0.4882
17558SOL    HW153517   7.011   0.550   2.570 -0.0850  0.5974  0.2419
17558SOL    HW253518   6.875   0.484   2.587  0.5919 -0.6138  1.0628
17559SOL     OW53519   2.865   4.096   1.631  0.2176 -0.0310  0.2224
17559SOL    HW153520   2.780   4.086   1.673 -0.6427 -1.5221 -1.7432
17559SOL    HW253521   2.928   4.068   1.697 -0.8553  0.2011  1.3894
17560SOL     OW53522   6.866   1.840   4.616  0.4810 -0.6288  0.2009
17560SOL    HW153523   6.909   1.908   4.564  3.2767 -0.1593  2.8071
17560SOL    HW253524   6.783   1.880   4.642  0.9408  0.8081 -0.3970
17561SOL     OW53525   3.790   7.479   1.537 -0.4908 -0.5293 -0.1317
17561SOL    HW153526   3.778   7.555   1.481  0.1489 -0.2392  0.1191
17561SOL    HW253527   3.864   7.432   1.498  0.6060  0.1891  1.0047
17562SOL     OW53528   0.641   2.852   6.950 -0.3039 -0.4820  0.3075
17562SOL    HW153529   0.573   2.832   7.014 -0.9926  1.2357  0.1480
17562SOL    HW253530   0.593   2.873   6.870  0.4539 -0.2323 -0.0867
17563SOL     OW53531   4.520   1.389   8.141 -0.0549 -0.1104  0.1258
17563SOL    HW153532   4.557   1.445   8.210  2.3686  0.6574 -1.6891
17563SOL    HW253533   4.573   1.310   8.143  0.0078 -0.0998 -0.8268
17564SOL     OW53534   0.804   4.723   3.820 -0.4983  0.2143  0.4441
17564SOL    HW153535   0.802   4.667   3.742  0.9203  0.6889  0.0356
17564SOL    HW253536   0.860   4.675   3.882  1.8281  1.7075 -0.3890
17565SOL     OW53537   5.829   2.112   0.282  0.0400  0.1252 -0.9226
17565SOL    HW153538   5.828   2.201   0.248  2.2948  0.0883 -1.2708
17565SOL    HW253539   5.832   2.122   0.377 -2.0943  0.3279 -0.8449
17566SOL     OW53540   6.379   7.347   6.184 -0.0006 -0.2540 -0.3460
17566SOL    HW153541   6.442   7.366   6.253 -0.6297 -1.0947  0.4893
17566SOL    HW253542   6.366   7.431   6.139  0.9343  0.1465  0.1069
17567SOL     OW53543   6.562   0.148   4.525 -0.3153  0.0564 -0.3422
17567SOL    HW153544   6.605   0.084   4.469 -0.9962 -2.0212  1.3633
17567SOL    HW253545   6.498   0.097   4.575  1.5244  1.2714  3.7135
17568SOL     OW53546   4.561   2.991   1.659 -0.0748  0.1028  0.0174
17568SOL    HW153547   4.543   3.065   1.601 -0.1560  0.0893  0.0251
17568SOL    HW253548   4.489   2.930   1.643 -0.2729  0.2409  0.3660
17569SOL     OW53549   6.627   4.466   6.525  1.0567  0.1629 -0.4190
17569SOL    HW153550   6.657   4.462   6.615 -0.4922 -2.0886  0.0821
17569SOL    HW253551   6.587   4.381   6.509 -0.6005  1.2310 -2.5536
17570SOL     OW53552   0.584   2.107   5.931 -0.0795  0.3787  0.3130
17570SOL    HW153553   0.609   2.028   5.883 -1.2680 -1.0546  1.9188
17570SOL    HW253554   0.620   2.094   6.019 -0.1277  1.7384  0.5583
17571SOL     OW53555   2.865   0.306   2.301 -0.4021  0.0076  0.4564
17571SOL    HW153556   2.914   0.237   2.345 -2.1966 -1.3924  0.3969
17571SOL    HW253557   2.870   0.382   2.360  0.6464 -0.5304  1.0749
17572SOL     OW53558   5.344   4.422   3.075 -0.2211  0.4437  0.5911
17572SOL    HW153559   5.406   4.488   3.043  0.6892 -0.0328  1.3173
17572SOL    HW253560   5.382   4.338   3.050 -1.1268  0.1712  0.1030
17573SOL     OW53561   7.650   3.227   7.274  0.3367  0.3644 -0.3804
17573SOL    HW153562   7.719   3.200   7.335  0.2731 -0.3336 -0.6084
17573SOL    HW253563   7.606   3.145   7.250 -0.6327  0.8097 -0.1636
17574SOL     OW53564   7.406   3.446   5.251 -0.3316 -0.1338  0.2958
17574SOL    HW153565   7.418   3.380   5.183 -3.6368 -1.1168  0.5123
17574SOL    HW253566   7.342   3.408   5.311  0.9795  1.5144  2.9406
17575SOL     OW53567   7.664   0.251   4.815 -0.4371 -0.2839  0.7277
17575SOL    HW153568   7.687   0.334   4.856 -1.4522  0.5630 -0.3794
17575SOL    HW253569   7.749   0.207   4.801  0.4040  1.7475 -1.1214
17576SOL     OW53570   4.092   3.004   4.034 -0.1821  0.3278 -0.2195
17576SOL    HW153571   4.036   3.018   3.958 -2.1099  2.5866  1.4635
17576SOL    HW253572   4.047   2.937   4.086 -0.4944  0.9317  0.3158
17577SOL     OW53573   7.356   3.506   2.140  0.4104 -0.5246  0.3766
17577SOL    HW153574   7.382   3.585   2.091 -1.4707 -0.3330 -0.4032
17577SOL    HW253575   7.371   3.529   2.231 -1.0698  1.1869  0.2509
17578SOL     OW53576   7.221   6.819   7.843 -0.3669 -0.1609 -0.1057
17578SOL    HW153577   7.223   6.913   7.862  0.5338 -0.1909 -0.0187
17578SOL    HW253578   7.142   6.807   7.790  0.1628  0.8393 -1.1532
17579SOL     OW53579   3.986   7.805   5.334 -0.7778 -0.4189  0.1245
17579SOL    HW153580   4.049   7.734   5.342 -0.3733 -0.0973 -0.1519
17579SOL    HW253581   4.039   7.885   5.335 -1.1069 -0.1752 -0.8405
17580SOL     OW53582   5.855   5.031   2.691 -0.1122 -0.2201 -0.2276
17580SOL    HW153583   5.871   4.941   2.720  0.9652 -0.4693 -1.4889
17580SOL    HW253584   5.929   5.081   2.725  0.1353 -0.1379 -0.8764
17581SOL     OW53585   1.279   2.613   1.647 -0.1989  0.0742  0.0214
17581SOL    HW153586   1.190   2.635   1.672 -0.7995 -0.4391 -1.5191
17581SOL    HW253587   1.330   2.692   1.664 -1.4711  1.2802 -1.4575
17582SOL     OW53588   6.989   2.841   1.116 -0.2174  0.2388 -0.1729
17582SOL    HW153589   7.050   2.895   1.167 -0.9913 -0.5157  1.6266
17582SOL    HW253590   7.033   2.828   1.032  1.6789  0.4825  0.7358
17583SOL     OW53591   4.849   6.356   0.482 -0.4145  0.0312  0.1605
17583SOL    HW153592   4.805   6.332   0.401  0.1066 -0.8418  0.1197
17583SOL    HW253593   4.827   6.286   0.543 -0.1605  0.2711  0.5298
17584SOL     OW53594   6.029   4.056   4.862  0.2543 -0.3269 -0.4946
17584SOL    HW153595   6.069   4.021   4.941  0.7873  0.0070 -0.6105
17584SOL    HW253596   5.939   4.026   4.865 -0.2221  1.0996  1.1200
17585SOL     OW53597   4.847   2.497   7.803  0.2715  0.4683 -0.2008
17585SOL    HW153598   4.761   2.485   7.842  0.1615  0.0870 -0.5504
17585SOL    HW253599   4.907   2.497   7.877 -0.1457  2.1499  0.1790
17586SOL     OW53600   4.477   0.116   4.363 -0.3192 -0.8496  0.5072
17586SOL    HW153601   4.571   0.125   4.351 -0.2163 -1.0920  1.1173
17586SOL    HW253602   4.448   0.059   4.291 -0.5261  1.7914 -1.6839
17587SOL     OW53603   2.252   2.179   4.179  0.0529  0.6569  1.0048
17587SOL    HW153604   2.271   2.111   4.243  0.0183  1.8158  2.2853
17587SOL    HW253605   2.194   2.137   4.115 -0.6065 -0.2825  2.1957
17588SOL     OW53606   7.652   6.352   7.068  0.5834 -0.2816  0.6455
17588SOL    HW153607   7.672   6.271   7.021  2.8840  0.7496 -0.3115
17588SOL    HW253608   7.628   6.415   7.000  1.4941  0.5497  1.0637
17589SOL     OW53609   0.524   5.030   0.581 -0.1606 -0.5507  0.2164
17589SOL    HW153610   0.483   4.966   0.522 -0.1065  0.5644 -1.0792
17589SOL    HW253611   0.594   5.069   0.529  0.4423 -0.1288  1.3185
17590SOL     OW53612   3.362   5.907   6.354 -0.2769 -0.2182 -0.4279
17590SOL    HW153613   3.271   5.936   6.366 -0.3762 -1.1730  1.4124
17590SOL    HW253614   3.358   5.812   6.358  0.7834 -0.2795 -0.5965
17591SOL     OW53615   0.891   3.695   2.175 -0.1713  0.0705  0.2413
17591SOL    HW153616   0.933   3.709   2.260 -1.3973 -0.3233  0.9455
17591SOL    HW253617   0.962   3.667   2.118  0.6719  0.2724  1.1531
17592SOL     OW53618   7.052   3.420   5.431  0.3843  0.0722  0.5277
17592SOL    HW153619   7.032   3.433   5.524 -0.6048  1.4702  0.1440
17592SOL    HW253620   6.982   3.465   5.385 -0.3746 -2.4049 -0.9509
17593SOL     OW53621   4.045   6.570   4.916 -0.1408  0.4142  0.2307
17593SOL    HW153622   3.953   6.549   4.931  0.2357 -0.4455  1.4390
17593SOL    HW253623   4.079   6.495   4.866 -0.3556  1.2755 -1.2615
17594SOL     OW53624   4.414   6.038   3.336  0.5419  0.0626 -0.2479
17594SOL    HW153625   4.501   6.077   3.319  1.8248 -2.3071  0.4986
17594SOL    HW253626   4.432   5.963   3.392 -1.8883 -1.2000 -1.0333
17595SOL     OW53627   3.237   2.576   0.648  0.0067  0.2857 -0.0711
17595SOL    HW153628   3.182   2.597   0.724  0.8739 -0.2943  0.7451
17595SOL    HW253629   3.238   2.480   0.647 -0.1907  0.2891 -0.9761
17596SOL     OW53630   4.696   7.520   3.969  0.6173  0.7778 -0.0612
17596SOL    HW153631   4.641   7.598   3.981  0.3536  0.6714 -0.5498
17596SOL    HW253632   4.666   7.483   3.886 -0.4842 -0.8326  1.0023
17597SOL     OW53633   1.544   3.608   7.360 -0.2653 -0.4380 -0.0716
17597SOL    HW153634   1.543   3.582   7.268  3.9148  0.9247 -0.7188
17597SOL    HW253635   1.600   3.542   7.402 -2.5060 -1.3211  1.7234
17598SOL     OW53636   6.174   3.819   1.921 -0.0885  0.1289  0.0536
17598SOL    HW153637   6.154   3.912   1.912  0.9837  0.1771 -2.7652
17598SOL    HW253638   6.136   3.779   1.843  3.6667 -0.9684 -1.4284
17599SOL     OW53639   2.697   6.255   7.729 -0.1095  0.3911  0.1926
17599SOL    HW153640   2.656   6.336   7.698 -1.5090 -0.6814 -0.8495
17599SOL    HW253641   2.675   6.251   7.822 -1.3693  0.4306 -0.0913
17600SOL     OW53642   4.874   7.724   2.148 -0.3652  0.3990  0.2121
17600SOL    HW153643   4.790   7.720   2.103 -1.0635 -0.7741  1.5490
17600SOL    HW253644   4.856   7.775   2.228  0.7646  2.1423 -0.5699
17601SOL     OW53645   4.607   4.854   5.960 -0.5446  0.1273  0.2889
17601SOL    HW153646   4.652   4.782   5.916 -0.6127 -0.1997  0.7561
17601SOL    HW253647   4.547   4.888   5.893  0.2348  0.4432 -0.2720
17602SOL     OW53648   1.812   6.159   3.024 -0.1045  0.0831 -0.0960
17602SOL    HW153649   1.728   6.178   3.066 -0.2694 -1.0598  0.1315
17602SOL    HW253650   1.873   6.144   3.096 -0.0624 -0.5315 -0.2517
17603SOL     OW53651   3.227   4.538   6.150 -0.0315  0.1977  0.1156
17603SOL    HW153652   3.254   4.461   6.100  2.1105  0.6423  0.4740
17603SOL    HW253653   3.215   4.607   6.085  0.8748  0.2706  0.0039
17604SOL     OW53654   4.630   2.283   7.978 -0.1803  0.3326  0.0909
17604SOL    HW153655   4.573   2.350   7.941 -0.2973 -1.0540 -2.4569
17604SOL    HW253656   4.576   2.205   7.982  0.2705  0.0765  1.9854
17605SOL     OW53657   3.448   4.033   2.265  0.2954 -0.7467  0.3363
17605SOL    HW153658   3.529   4.012   2.218  0.6143 -0.0312  0.5620
17605SOL    HW253659   3.388   4.063   2.196  1.5919  2.8486  0.6035
17606SOL     OW53660   6.395   0.220   7.995  0.3756 -0.0989  0.4634
17606SOL    HW153661   6.333   0.164   7.949  0.3363  0.2257  0.1129
17606SOL    HW253662   6.410   0.176   8.079  0.1339 -0.4856  0.3060
17607SOL     OW53663   6.460   3.957   7.936  0.0828  0.7897 -0.1278
17607SOL    HW153664   6.484   4.050   7.939  1.5831  0.4451 -0.8720
17607SOL    HW253665   6.417   3.947   7.851 -0.5738  0.9026  0.1841
17608SOL     OW53666   7.262   2.178   2.184  0.0840 -0.5998 -0.4811
17608SOL    HW153667   7.247   2.267   2.150 -0.4824 -0.8710 -0.9712
17608SOL    HW253668   7.328   2.141   2.126 -0.7271 -0.9877 -1.1888
17609SOL     OW53669   2.494   6.522   5.327 -0.2680 -0.5512  0.2345
17609SOL    HW153670   2.514   6.437   5.286 -0.3944  0.2905 -1.6479
17609SOL    HW253671   2.579   6.554   5.357 -0.0792 -0.9251  0.1118
17610SOL     OW53672   5.522   5.041   5.873  0.1951  0.4084  0.1230
17610SOL    HW153673   5.602   5.009   5.913 -0.9400 -1.4574  1.0458
17610SOL    HW253674   5.540   5.040   5.779  1.3695  0.4316  0.3317
17611SOL     OW53675   7.321   4.394   3.794 -0.2767 -0.3639  0.4625
17611SOL    HW153676   7.260   4.339   3.745  0.5625 -1.2305  0.3694
17611SOL    HW253677   7.295   4.483   3.772 -0.9313 -0.7290 -0.2982
17612SOL     OW53678   6.404   1.998   4.280 -0.0122  0.1113 -0.3839
17612SOL    HW153679   6.461   2.064   4.243 -1.0714  0.6833 -1.0341
17612SOL    HW253680   6.324   2.045   4.303 -0.4153 -0.7595  0.0499
17613SOL     OW53681   6.195   2.372   1.009  0.1785 -0.1663  0.0062
17613SOL    HW153682   6.193   2.358   1.103 -0.1998  0.0349  0.0315
17613SOL    HW253683   6.103   2.361   0.981  0.1063  0.8380 -0.1762
17614SOL     OW53684   6.786   0.832   7.616 -0.2304 -0.2201  0.5263
17614SOL    HW153685   6.867   0.792   7.647  0.3758  0.6484  0.1153
17614SOL    HW253686   6.760   0.779   7.542  0.1486 -0.3194  0.4601
17615SOL     OW53687   5.970   6.026   4.024  0.5215  0.1902  0.3097
17615SOL    HW153688   6.053   5.991   4.056  0.5292 -0.5905 -0.5248
17615SOL    HW253689   5.903   5.983   4.078  0.4704 -1.9187 -1.3066
17616SOL     OW53690   3.524   3.376   2.978 -0.0257 -0.1900  0.0184
17616SOL    HW153691   3.462   3.393   2.907 -0.9612  0.3368  0.9356
17616SOL    HW253692   3.548   3.284   2.968 -0.4370 -0.2253 -0.7328
17617SOL     OW53693   3.038   2.776   5.333  0.2091  0.4893 -0.8508
17617SOL    HW153694   2.953   2.770   5.290  0.7229 -1.1505 -1.7560
17617SOL    HW253695   3.049   2.690   5.375  1.9313  0.2105 -1.7995
17618SOL     OW53696   7.384   2.152   0.702 -0.5993  0.1340  0.1418
17618SOL    HW153697   7.415   2.216   0.639 -1.9919  0.8980  0.1931
17618SOL    HW253698   7.454   2.087   0.707  0.3873  1.0979 -0.6899
17619SOL     OW53699   1.457   1.382   6.694  0.1043  0.3216  0.3063
17619SOL    HW153700   1.547   1.415   6.696  0.0718  0.5008 -0.5833
17619SOL    HW253701   1.403   1.455   6.724  0.2285  0.3169  0.5414
17620SOL     OW53702   0.280   6.718   5.438  0.0699  0.1081  0.0536
17620SOL    HW153703   0.209   6.715   5.373 -0.3076  1.1862  0.3996
17620SOL    HW253704   0.322   6.632   5.430 -0.4246 -0.0533 -1.0983
17621SOL     OW53705   6.911   4.113   1.501  0.0264  0.0903  0.2962
17621SOL    HW153706   6.883   4.037   1.450  0.1514 -0.5542  1.1590
17621SOL    HW253707   6.995   4.086   1.539 -1.1046 -0.3359  2.6511
17622SOL     OW53708   5.544   2.152   8.152 -0.1043 -0.7493  0.4204
17622SOL    HW153709   5.511   2.191   8.233  0.2115  0.7312 -0.1298
17622SOL    HW253710   5.612   2.091   8.181 -1.8473 -2.3211  1.4243
17623SOL     OW53711   6.197   3.327   1.762  0.0241 -0.0031 -0.2049
17623SOL    HW153712   6.158   3.328   1.675 -0.0184  0.1256 -0.1835
17623SOL    HW253713   6.156   3.251   1.805  0.0975 -0.1082 -0.3195
17624SOL     OW53714   3.845   7.498   2.152 -0.0683  0.2237  0.0228
17624SOL    HW153715   3.836   7.406   2.178  2.1967  0.1231  0.6820
17624SOL    HW253716   3.829   7.547   2.232 -2.5914  0.5554 -0.6052
17625SOL     OW53717   4.864   5.837   3.530  0.0084 -0.2275  0.0199
17625SOL    HW153718   4.957   5.826   3.548  0.2921 -1.1641 -1.7871
17625SOL    HW253719   4.820   5.775   3.588  0.4381  0.6730  1.3412
17626SOL     OW53720   5.270   1.077   3.913  0.3017  0.1132 -0.0025
17626SOL    HW153721   5.315   1.126   3.844 -2.3928  1.7943 -0.7517
17626SOL    HW253722   5.192   1.130   3.932 -2.4113 -3.4448 -0.1991
17627SOL     OW53723   3.261   8.056   0.885  0.5730  0.4149  0.0463
17627SOL    HW153724   3.263   8.124   0.952 -0.4364  1.2976 -0.7955
17627SOL    HW253725   3.207   7.986   0.924  0.8833  0.4603  0.5679
17628SOL     OW53726   6.307   7.437   4.710  0.0798 -0.4782 -0.3392
17628SOL    HW153727   6.322   7.500   4.639  0.1851 -2.0990 -1.8448
17628SOL    HW253728   6.394   7.424   4.748  0.2027 -0.3186 -0.5565
17629SOL     OW53729   3.074   1.744   0.666  0.2532 -0.3838  0.2972
17629SOL    HW153730   2.990   1.788   0.677  0.3038 -0.1377 -0.2443
17629SOL    HW253731   3.074   1.715   0.575 -0.6929 -3.4025  1.1627
17630SOL     OW53732   4.521   3.148   1.209  0.1446 -0.0394  0.1491
17630SOL    HW153733   4.480   3.190   1.285 -1.1616 -0.2353 -0.4335
17630SOL    HW253734   4.512   3.054   1.226 -1.2900 -0.1053 -0.8098
17631SOL     OW53735   7.536   2.572   8.126 -0.5804  0.2658  0.0933
17631SOL    HW153736   7.554   2.656   8.084 -0.4677  0.5715  0.7400
17631SOL    HW253737   7.553   2.507   8.058  2.4550  0.5485  0.4491
17632SOL     OW53738   6.123   7.779   7.817  0.6081  0.4712  0.2252
17632SOL    HW153739   6.097   7.770   7.725  0.5851  0.7631  0.2022
17632SOL    HW253740   6.051   7.740   7.866  1.6314 -1.7764  0.0525
17633SOL     OW53741   1.808   5.792   4.166  0.3699 -0.4103  0.4184
17633SOL    HW153742   1.828   5.838   4.248 -1.2632 -0.0636  0.6477
17633SOL    HW253743   1.719   5.758   4.179  0.8200 -2.0182 -0.4797
17634SOL     OW53744   1.649   7.600   2.214 -0.2175 -0.6456  0.1310
17634SOL    HW153745   1.609   7.614   2.128 -0.5813 -3.9642 -0.3699
17634SOL    HW253746   1.743   7.611   2.199 -0.2990 -0.9760 -0.6786
17635SOL     OW53747   2.857   6.459   2.606 -0.5486 -0.5741  0.8158
17635SOL    HW153748   2.907   6.380   2.584 -0.0396 -0.1466  0.4225
17635SOL    HW253749   2.766   6.434   2.592 -0.3234 -0.7482 -0.4611
17636SOL     OW53750   3.551   6.798   1.981 -0.7576  0.0922  0.1782
17636SOL    HW153751   3.617   6.733   2.005 -0.8836  0.0394  0.3872
17636SOL    HW253752   3.468   6.756   2.000 -0.8590  0.0642 -0.3288
17637SOL     OW53753   3.615   2.417   6.390 -0.2782  0.8164  0.6334
17637SOL    HW153754   3.579   2.340   6.434 -0.6994  0.3168 -0.5420
17637SOL    HW253755   3.538   2.464   6.358  0.0282  0.8397 -0.0911
17638SOL     OW53756   5.111   0.444   6.630 -0.0501 -0.3524 -0.7480
17638SOL    HW153757   5.170   0.406   6.695  0.8890 -2.7613 -2.8269
17638SOL    HW253758   5.025   0.408   6.651 -0.4053  1.3770  0.9527
17639SOL     OW53759   0.276   0.476   5.284  0.3277  0.6133  0.2067
17639SOL    HW153760   0.228   0.461   5.202 -0.0754 -0.3738  0.6064
17639SOL    HW253761   0.208   0.496   5.348  0.3023 -1.7186  0.9885
17640SOL     OW53762   4.496   6.965   5.636 -0.4121  0.3772 -0.5387
17640SOL    HW153763   4.561   6.902   5.604  1.3205  2.1957 -0.8589
17640SOL    HW253764   4.499   6.956   5.732  0.4097  0.4976 -0.5459
17641SOL     OW53765   4.113   2.361   4.801 -0.1123  0.5799 -0.0574
17641SOL    HW153766   4.045   2.327   4.744 -1.1585  2.2690  0.1179
17641SOL    HW253767   4.088   2.333   4.889  1.4377 -1.9210 -0.2937
17642SOL     OW53768   5.136   6.402   7.136 -0.4362  0.0616 -0.4879
17642SOL    HW153769   5.162   6.438   7.052  0.6389 -1.2983 -0.7872
17642SOL    HW253770   5.105   6.314   7.116 -1.3531  0.1607  0.4020
17643SOL     OW53771   6.967   1.154   2.381  0.2278 -0.4881  0.0485
17643SOL    HW153772   6.899   1.209   2.422  0.9222 -0.0271  0.5995
17643SOL    HW253773   7.041   1.213   2.368  1.0127 -1.3087  0.7084
17644SOL     OW53774   2.225   0.472   4.538  0.8166 -0.6655  0.0381
17644SOL    HW153775   2.261   0.557   4.512 -0.2627  0.3339  1.6299
17644SOL    HW253776   2.235   0.470   4.634 -0.4233 -1.7173  0.1771
17645SOL     OW53777   4.340   7.605   6.506 -0.7049  0.1385  0.0689
17645SOL    HW153778   4.245   7.613   6.496 -0.9171 -1.8448  0.1243
17645SOL    HW253779   4.376   7.653   6.432 -1.8243 -0.6154 -1.0159
17646SOL     OW53780   6.178   4.637   2.999  0.0307 -0.2639  0.3904
17646SOL    HW153781   6.112   4.637   3.069 -0.0978 -1.4427  0.2939
17646SOL    HW253782   6.133   4.676   2.924 -0.0296  0.4307  0.7797
17647SOL     OW53783   0.680   8.151   1.907  0.3586  0.3586  0.2547
17647SOL    HW153784   0.753   8.140   1.846  2.4306  2.4897  2.1442
17647SOL    HW253785   0.655   8.243   1.898 -2.0715 -0.2811 -0.2283
17648SOL     OW53786   7.729   2.254   3.020  0.1105  0.2249 -0.4962
17648SOL    HW153787   7.662   2.323   3.020 -1.2601 -1.0127 -2.0802
17648SOL    HW253788   7.719   2.211   3.104 -0.1503  0.9149 -0.1635
17649SOL     OW53789   2.817   5.982   0.631  0.5494 -0.9029 -0.6738
17649SOL    HW153790   2.885   5.916   0.642  0.4976 -0.8379  0.0637
17649SOL    HW253791   2.819   6.033   0.711  1.0597  0.4450 -1.5212
17650SOL     OW53792   5.451   3.853   8.189  0.1887 -0.1618  0.3724
17650SOL    HW153793   5.491   3.892   8.111 -1.4058 -0.6919 -0.7662
17650SOL    HW253794   5.506   3.883   8.262  1.1415  1.1653 -0.8305
17651SOL     OW53795   6.350   2.177   2.474 -0.5587 -0.4807 -0.0217
17651SOL    HW153796   6.344   2.110   2.407 -0.0488  1.6806 -2.3577
17651SOL    HW253797   6.428   2.228   2.452 -0.0566  0.0349  2.5461
17652SOL     OW53798   2.730   3.625   7.468  0.1143 -0.3959  0.1826
17652SOL    HW153799   2.785   3.685   7.418  0.2152  0.3025  1.1039
17652SOL    HW253800   2.723   3.547   7.413  1.0793 -0.0525 -0.4491
17653SOL     OW53801   5.930   1.011   7.240  0.1012  0.0863  0.5804
17653SOL    HW153802   5.874   1.040   7.168 -0.3998 -0.6805  0.6445
17653SOL    HW253803   5.882   0.939   7.280  0.4405  0.4192  1.6062
17654SOL     OW53804   3.221   3.065   3.475  0.2539  0.3517  0.3684
17654SOL    HW153805   3.233   2.972   3.494 -0.6835 -0.0113 -0.7835
17654SOL    HW253806   3.311   3.100   3.474  0.5684 -0.3422  1.6588
17655SOL     OW53807   5.538   4.544   3.932 -0.0603  0.2550 -0.2332
17655SOL    HW153808   5.461   4.489   3.919  0.0614  0.0713 -0.1732
17655SOL    HW253809   5.505   4.633   3.929 -0.4798  0.1654  1.0862
17656SOL     OW53810   1.928   2.837   6.853  0.1297  0.7765  0.0325
17656SOL    HW153811   1.882   2.874   6.929 -0.6921 -0.3801  0.1099
17656SOL    HW253812   1.871   2.856   6.779  0.8011  1.6561 -0.2798
17657SOL     OW53813   7.387   2.542   2.727 -0.3068 -0.0392 -0.2633
17657SOL    HW153814   7.365   2.635   2.726  0.0754  0.0477 -0.6076
17657SOL    HW253815   7.309   2.499   2.691 -1.5131 -0.0906  2.1818
17658SOL     OW53816   4.496   0.290   5.494  0.0548 -0.5119 -0.5949
17658SOL    HW153817   4.574   0.246   5.460  0.1727  0.8578 -2.2167
17658SOL    HW253818   4.518   0.383   5.491 -0.3733 -0.2379  2.2532
17659SOL     OW53819   5.435   3.351   7.358 -0.4545  0.2470 -0.5099
17659SOL    HW153820   5.469   3.330   7.445  0.4448  0.9843 -0.6702
17659SOL    HW253821   5.345   3.319   7.359 -0.4860  0.3375  0.7333
17660SOL     OW53822   1.571   5.949   6.802  0.1783  0.9536 -0.2195
17660SOL    HW153823   1.546   5.996   6.722 -3.1441 -0.9499 -0.5125
17660SOL    HW253824   1.497   5.890   6.818  2.7306 -2.0164  1.7335
17661SOL     OW53825   6.048   0.416   1.646 -0.2122 -0.4272 -0.4644
17661SOL    HW153826   6.121   0.429   1.707 -1.1446 -0.1494  0.6464
17661SOL    HW253827   6.080   0.353   1.582  0.1239 -2.5406  1.6201
17662SOL     OW53828   1.544   2.821   4.994  0.6381 -0.3813 -0.4533
17662SOL    HW153829   1.574   2.908   4.968  1.1226 -0.8817 -1.6314
17662SOL    HW253830   1.507   2.783   4.914  0.4269 -1.2535  0.0428
17663SOL     OW53831   5.644   4.709   5.673  0.0305 -0.4751  0.2165
17663SOL    HW153832   5.577   4.695   5.739  0.9892  0.0050  1.3235
17663SOL    HW253833   5.720   4.659   5.705  0.4197 -0.4778 -0.6703
17664SOL     OW53834   6.653   4.014   2.297  0.2071 -0.2607 -0.7055
17664SOL    HW153835   6.601   4.070   2.355  0.7337  1.4214 -1.7820
17664SOL    HW253836   6.600   3.934   2.287 -0.9335  0.3382  0.2804
17665SOL     OW53837   2.535   1.855   1.079 -0.0301  0.6265  0.3503
17665SOL    HW153838   2.451   1.815   1.101 -0.2767  1.5707  1.2427
17665SOL    HW253839   2.600   1.788   1.099 -0.6118 -0.6083 -1.6180
17666SOL     OW53840   8.037   2.111   6.529 -0.3129 -0.0445 -0.6596
17666SOL    HW153841   7.977   2.037   6.531 -0.7222  0.2973 -0.2028
17666SOL    HW253842   8.000   2.170   6.462 -2.3148  1.6639  1.7596
17667SOL     OW53843   7.581   7.907   0.212 -0.4580 -0.2343 -0.4118
17667SOL    HW153844   7.488   7.925   0.195 -0.5920 -1.1961 -0.7401
17667SOL    HW253845   7.621   7.901   0.126 -0.5510 -2.0837 -0.3749
17668SOL     OW53846   6.347   5.238   0.885 -0.0857  0.7251 -0.5324
17668SOL    HW153847   6.296   5.250   0.965 -0.8152  1.5917 -1.1179
17668SOL    HW253848   6.424   5.294   0.897 -0.3520  1.1014 -0.5671
17669SOL     OW53849   2.189   6.132   6.397  0.7525  0.1468 -0.5462
17669SOL    HW153850   2.129   6.068   6.435 -0.0227  0.6254 -0.9316
17669SOL    HW253851   2.155   6.217   6.425  1.1114  0.4360 -0.9667
17670SOL     OW53852   3.746   5.786   3.860  0.3992  0.4547  0.4344
17670SOL    HW153853   3.761   5.877   3.885  1.2225 -0.0169  1.7516
17670SOL    HW253854   3.709   5.745   3.938 -0.2392 -0.2797 -0.2386
17671SOL     OW53855   3.258   8.065   2.244  0.4737 -0.1349 -0.7784
17671SOL    HW153856   3.165   8.054   2.264  0.8834  0.2975  1.6738
17671SOL    HW253857   3.264   8.154   2.208 -0.2262 -0.7530 -2.5692
17672SOL     OW53858   5.745   4.178   8.137  0.2363 -0.7874  0.4966
17672SOL    HW153859   5.815   4.243   8.132 -0.4018  0.0906  2.1627
17672SOL    HW253860   5.781   4.107   8.189 -0.9051  0.9161  3.8854
17673SOL     OW53861   4.666   7.324   0.843 -0.2854  0.5453 -0.2430
17673SOL    HW153862   4.609   7.273   0.786 -0.9094  1.1885 -0.2195
17673SOL    HW253863   4.635   7.414   0.832  1.2328  1.0363 -0.8356
17674SOL     OW53864   0.556   7.859   7.711 -0.1372  0.5737  0.3255
17674SOL    HW153865   0.547   7.796   7.783 -0.4336 -0.7522 -0.8187
17674SOL    HW253866   0.640   7.836   7.670  0.1639  1.4988  0.3987
17675SOL     OW53867   6.274   1.155   5.090  0.2665  1.0798 -0.6286
17675SOL    HW153868   6.312   1.096   5.025 -1.3092 -0.5116 -0.1957
17675SOL    HW253869   6.199   1.194   5.046 -1.2716 -0.5941  0.3914
17676SOL     OW53870   7.445   2.523   7.354  0.0371 -0.1101 -0.6692
17676SOL    HW153871   7.443   2.460   7.282  0.4669 -1.0934  0.1499
17676SOL    HW253872   7.355   2.556   7.360 -0.3208 -1.0528 -0.7666
17677SOL     OW53873   0.903   3.029   4.078  0.2468 -0.0218 -0.0123
17677SOL    HW153874   0.971   3.059   4.019 -1.0443  0.4728 -1.3167
17677SOL    HW253875   0.831   3.003   4.020 -0.6658 -0.5510  1.3114
17678SOL     OW53876   0.358   7.348   4.287 -0.4096  0.2326 -0.8335
17678SOL    HW153877   0.365   7.279   4.353 -1.7410 -0.4202 -1.3313
17678SOL    HW253878   0.396   7.309   4.208 -1.5350 -0.1032 -1.2245
17679SOL     OW53879   1.656   3.670   3.024 -0.4194 -0.5748  0.8276
17679SOL    HW153880   1.662   3.696   2.932 -0.8643 -0.2901  0.8747
17679SOL    HW253881   1.606   3.740   3.065  0.5309 -0.2541  1.4710
17680SOL     OW53882   2.106   2.442   2.620  0.0066 -0.0894  0.0839
17680SOL    HW153883   2.034   2.482   2.669  1.3995  0.3306  1.8891
17680SOL    HW253884   2.146   2.381   2.682  1.5186  0.0634 -0.6970
17681SOL     OW53885   6.195   5.486   4.885 -0.0259 -0.2956  0.1517
17681SOL    HW153886   6.263   5.497   4.951  0.6914  0.5347 -0.6984
17681SOL    HW253887   6.146   5.568   4.887  0.0045 -0.2609 -0.3407
17682SOL     OW53888   3.660   6.288   2.183  0.1488 -0.4487  0.1164
17682SOL    HW153889   3.585   6.346   2.174  0.7325  0.7540  2.2896
17682SOL    HW253890   3.630   6.218   2.241 -0.1332 -1.6253 -1.3862
17683SOL     OW53891   5.341   3.277   3.562  0.0091 -0.0384  0.0970
17683SOL    HW153892   5.425   3.245   3.595 -0.7231 -0.9540  1.1239
17683SOL    HW253893   5.353   3.372   3.555  1.6334 -0.2852 -1.2773
17684SOL     OW53894   7.228   0.552   6.042  0.0611 -0.1272  0.6101
17684SOL    HW153895   7.161   0.597   5.991  0.1399 -0.8906 -0.1871
17684SOL    HW253896   7.190   0.465   6.059  0.9078 -0.6315 -0.0088
17685SOL     OW53897   0.834   4.306   6.369  0.4341 -0.0751 -0.3004
17685SOL    HW153898   0.928   4.312   6.383  0.1527 -0.2628  1.9311
17685SOL    HW253899   0.813   4.214   6.382 -0.0969 -0.0205 -0.6879
17686SOL     OW53900   2.546   6.010   0.758  0.0632  0.5790 -0.2522
17686SOL    HW153901   2.466   6.029   0.709 -0.1118  0.0651 -0.1660
17686SOL    HW253902   2.601   5.960   0.697 -0.3769 -0.5357  0.2462
17687SOL     OW53903   7.888   8.095   0.992 -0.2062 -0.3992 -0.3632
17687SOL    HW153904   7.949   8.039   1.040  0.0014 -0.0011 -0.1548
17687SOL    HW253905   7.802   8.072   1.025 -0.0276  0.2346  0.5851
17688SOL     OW53906   4.561   3.974   1.892 -0.0443 -0.0882  0.5116
17688SOL    HW153907   4.599   3.930   1.968  0.0179 -0.8438  0.0597
17688SOL    HW253908   4.588   4.065   1.899  2.9077 -0.7918 -0.4233
17689SOL     OW53909   3.069   0.949   4.749 -0.0096  0.5156 -0.5488
17689SOL    HW153910   2.990   0.902   4.775  0.3970 -0.1242 -0.4389
17689SOL    HW253911   3.080   0.929   4.656  1.0657 -0.9994 -0.1446
17690SOL     OW53912   7.208   4.925   1.156 -0.4949  0.2179 -0.0346
17690SOL    HW153913   7.262   4.897   1.230  0.4815  0.4324 -0.6546
17690SOL    HW253914   7.182   4.844   1.112  1.4702  0.1760 -1.2240
17691SOL     OW53915   6.114   3.600   1.141  0.0532  0.3478 -0.1475
17691SOL    HW153916   6.169   3.589   1.218 -1.5314  1.7966  1.2662
17691SOL    HW253917   6.049   3.529   1.147 -0.5851  0.9616  0.3390
17692SOL     OW53918   3.897   0.920   4.508  0.2661 -0.0485 -0.4403
17692SOL    HW153919   3.827   0.883   4.562  1.1286 -0.6909  0.2674
17692SOL    HW253920   3.934   0.845   4.463  1.9342 -0.0795  0.8859
17693SOL     OW53921   2.645   3.705   3.690  0.2796  0.2395 -0.0015
17693SOL    HW153922   2.731   3.689   3.728 -0.3849 -0.6767  1.1547
17693SOL    HW253923   2.590   3.635   3.723 -1.1509  1.3135  0.0064
17694SOL     OW53924   7.475   0.751   2.265 -0.5424  0.3445 -0.0965
17694SOL    HW153925   7.443   0.832   2.226 -0.8375 -0.8154 -2.4296
17694SOL    HW253926   7.402   0.690   2.257 -0.7327  0.0914  2.6721
17695SOL     OW53927   6.340   1.102   4.070  0.3512 -0.1697 -0.2296
17695SOL    HW153928   6.355   1.009   4.089  2.9339  0.1818 -0.0763
17695SOL    HW253929   6.318   1.141   4.155 -0.3631 -0.5673 -0.2270
17696SOL     OW53930   7.099   4.671   7.912  0.3982  0.0984 -0.6894
17696SOL    HW153931   7.058   4.599   7.960  1.0925 -0.9528 -1.6088
17696SOL    HW253932   7.115   4.636   7.824  1.1504  1.2312 -1.0399
17697SOL     OW53933   2.258   3.215   1.927 -0.2245  0.1326 -0.2634
17697SOL    HW153934   2.314   3.203   1.850 -0.3484  0.3440 -0.3886
17697SOL    HW253935   2.257   3.130   1.970  1.0340  0.3839  0.3155
17698SOL     OW53936   0.703   5.158   0.415  0.2112  0.4008  0.2242
17698SOL    HW153937   0.646   5.218   0.366 -0.4487 -1.8094 -1.8990
17698SOL    HW253938   0.760   5.120   0.348  0.5996 -1.3210  1.4857
17699SOL     OW53939   5.083   2.641   6.860  0.0927  0.0880  0.0890
17699SOL    HW153940   5.043   2.660   6.944 -0.6075 -0.0167 -0.2117
17699SOL    HW253941   5.107   2.726   6.824 -1.5716  0.3105 -0.5486
17700SOL     OW53942   5.329   7.062   2.544  0.1758 -0.0266 -0.0842
17700SOL    HW153943   5.304   7.096   2.630  1.9104  0.9716  0.0876
17700SOL    HW253944   5.298   6.972   2.543  0.4588 -0.1764  1.7540
17701SOL     OW53945   4.193   1.962   1.323  1.0645  0.2951  0.4737
17701SOL    HW153946   4.116   2.012   1.351  0.8746  0.0945  0.3093
17701SOL    HW253947   4.195   1.972   1.228 -0.5917 -2.2948  0.0815
17702SOL     OW53948   4.666   3.030   5.694  0.1410 -0.7786  0.5621
17702SOL    HW153949   4.584   3.020   5.742 -0.5777  1.1498 -0.1831
17702SOL    HW253950   4.641   3.019   5.602  0.8366 -0.8061  0.3669
17703SOL     OW53951   2.465   7.164   5.443 -0.2511 -0.2116 -0.3262
17703SOL    HW153952   2.528   7.193   5.509 -1.8826 -0.1598  1.2940
17703SOL    HW253953   2.471   7.069   5.445 -0.1787 -0.2057 -0.2227
17704SOL     OW53954   0.693   1.116   2.759 -0.2815  0.0682  0.0327
17704SOL    HW153955   0.754   1.188   2.774 -0.7046  0.5564 -0.5276
17704SOL    HW253956   0.734   1.041   2.800 -0.0148  0.7074  0.9699
17705SOL     OW53957   6.674   6.994   7.246  0.0990 -0.4046 -0.2831
17705SOL    HW153958   6.637   6.922   7.196 -0.6884  0.0154 -0.3190
17705SOL    HW253959   6.693   7.062   7.181  0.5032 -0.4359 -0.2029
17706SOL     OW53960   0.045   0.366   8.151 -0.4081 -0.4266 -0.6205
17706SOL    HW153961   0.044   0.409   8.236  1.3035 -2.1024  0.3333
17706SOL    HW253962   0.135   0.377   8.119 -0.0491 -2.6944 -0.5758
17707SOL     OW53963   1.252   2.145   2.906 -0.4400  0.1753 -0.1281
17707SOL    HW153964   1.175   2.087   2.914  0.3998 -0.8522  1.0475
17707SOL    HW253965   1.267   2.152   2.812 -0.0898 -2.2406 -0.3210
17708SOL     OW53966   3.022   5.012   6.013 -0.0369 -0.0899 -0.0346
17708SOL    HW153967   3.010   5.089   6.069 -1.6229  0.5712 -1.2284
17708SOL    HW253968   3.070   5.045   5.937  0.1113 -0.4959 -0.1169
17709SOL     OW53969   7.722   8.150   7.660  0.5393 -0.2484 -0.3559
17709SOL    HW153970   7.802   8.112   7.623  0.5104 -0.6698 -0.0016
17709SOL    HW253971   7.658   8.078   7.657 -0.1576  0.4015 -1.6385
17710SOL     OW53972   2.417   4.829   3.048  0.1382 -0.1251 -0.2428
17710SOL    HW153973   2.333   4.788   3.068 -0.1196  0.3645 -0.3126
17710SOL    HW253974   2.462   4.765   2.994  1.1232 -1.7963  2.3599
17711SOL     OW53975   1.216   2.899   3.785  0.5978 -0.6659  0.1048
17711SOL    HW153976   1.191   2.975   3.838  3.0072  0.9560 -0.8799
17711SOL    HW253977   1.154   2.831   3.810 -0.8189  1.1913  2.0712
17712SOL     OW53978   4.016   5.903   5.690 -0.7382  0.1221  0.7506
17712SOL    HW153979   3.996   5.904   5.596 -2.0837 -1.2345  0.9784
17712SOL    HW253980   4.053   5.990   5.708  0.0976  0.1956 -1.1277
17713SOL     OW53981   3.613   2.755   0.935 -0.2931 -0.0025  0.1140
17713SOL    HW153982   3.534   2.790   0.895  0.7218  0.1247 -1.9036
17713SOL    HW253983   3.635   2.817   1.004 -1.8006  0.0732  0.5632
17714SOL     OW53984   0.115   7.479   6.156  0.0020  0.8781 -0.3997
17714SOL    HW153985   0.032   7.432   6.148  0.1477  0.5918 -0.2388
17714SOL    HW253986   0.091   7.563   6.196 -0.0048  0.1321  1.2403
17715SOL     OW53987   6.583   0.149   7.559 -0.0937 -0.0477  0.2369
17715SOL    HW153988   6.616   0.123   7.645 -3.4545 -1.2766  1.3044
17715SOL    HW253989   6.604   0.076   7.501 -0.1836 -0.4118  0.6680
17716SOL     OW53990   4.883   6.094   5.968 -0.4458  0.5004 -0.1347
17716SOL    HW153991   4.949   6.144   5.921  0.7176 -0.0935  0.8069
17716SOL    HW253992   4.805   6.150   5.968  0.3293  1.5976 -0.4872
17717SOL     OW53993   7.725   2.209   6.010 -0.1369  0.0288  0.0067
17717SOL    HW153994   7.803   2.256   6.035  0.2060 -1.1684  1.2934
17717SOL    HW253995   7.749   2.163   5.929  0.3303  0.0236  0.1515
17718SOL     OW53996   5.857   0.393   3.195  0.3589 -0.0039  0.1291
17718SOL    HW153997   5.916   0.462   3.164  0.2871  0.7939  1.6589
17718SOL    HW253998   5.777   0.405   3.143  0.4592  0.8976  0.1675
17719SOL     OW53999   8.207   5.115   1.200  0.8209  0.7108  0.1335
17719SOL    HW154000   8.247   5.115   1.113  1.5001  2.6634  0.4197
17719SOL    HW254001   8.202   5.022   1.223 -1.1366 -0.0251 -2.7532
17720SOL     OW54002   5.386   7.969   4.622 -0.1085  0.4404 -0.0024
17720SOL    HW154003   5.401   8.063   4.632 -1.2523  0.4943  1.6740
17720SOL    HW254004   5.357   7.940   4.708  0.9914 -1.6242 -0.2628
17721SOL     OW54005   5.549   6.330   4.302  0.5262  0.0860  0.4248
17721SOL    HW154006   5.600   6.356   4.226  0.4515 -0.7591  0.0737
17721SOL    HW254007   5.472   6.286   4.265  0.0056  0.5278  0.9647
17722SOL     OW54008   3.627   1.589   3.747 -0.9552 -0.3260  0.1615
17722SOL    HW154009   3.660   1.563   3.833 -0.2528  2.2115  0.7674
17722SOL    HW254010   3.644   1.514   3.691  2.0196 -0.7518  1.4101
17723SOL     OW54011   1.843   2.846   6.480 -0.1110  0.3527 -0.6953
17723SOL    HW154012   1.753   2.814   6.468 -0.7154  1.2239  1.1814
17723SOL    HW254013   1.835   2.941   6.470  0.4337  0.5134  0.3263
17724SOL     OW54014   4.265   4.631   6.510 -0.0410 -0.1332 -0.0478
17724SOL    HW154015   4.286   4.540   6.490  0.5845  0.4295 -2.2214
17724SOL    HW254016   4.226   4.665   6.430 -0.5396  1.4475  0.8162
17725SOL     OW54017   2.403   7.178   2.552  0.6354 -0.6180 -0.0977
17725SOL    HW154018   2.358   7.259   2.578  2.4725  1.0019 -1.6755
17725SOL    HW254019   2.334   7.112   2.551 -0.5306  0.3138  3.4947
17726SOL     OW54020   4.785   1.885   3.604 -0.3443  0.5233  0.4138
17726SOL    HW154021   4.727   1.942   3.654 -1.6712  0.4755 -0.9860
17726SOL    HW254022   4.860   1.939   3.582 -0.9815  1.3341  0.2089
17727SOL     OW54023   3.742   2.596   5.048  0.1740  0.5465 -0.0772
17727SOL    HW154024   3.809   2.661   5.029  0.8447 -0.2360 -0.4579
17727SOL    HW254025   3.659   2.640   5.029  0.6939  0.5526 -2.6739
17728SOL     OW54026   2.136   5.694   3.634 -0.1024 -0.8461 -0.1998
17728SOL    HW154027   2.069   5.698   3.566 -0.6232 -0.5406  0.3235
17728SOL    HW254028   2.123   5.609   3.676  1.8034 -2.1474 -2.0531
17729SOL     OW54029   7.654   5.560   5.330 -0.0681  0.4212  0.3551
17729SOL    HW154030   7.651   5.473   5.370  0.4478 -0.1536 -0.8279
17729SOL    HW254031   7.606   5.616   5.392  0.4873 -0.4776  1.6601
17730SOL     OW54032   7.710   0.998   5.143  0.0015  0.5729  0.3228
17730SOL    HW154033   7.729   0.984   5.236  0.6400 -1.7965 -0.1006
17730SOL    HW254034   7.618   1.026   5.141  1.1141  5.2917  1.9130
17731SOL     OW54035   7.900   4.962   5.244  0.1451 -0.0327 -0.3001
17731SOL    HW154036   7.886   4.919   5.328 -1.9175 -2.4605 -1.7266
17731SOL    HW254037   7.995   4.973   5.237  0.9347 -4.5385  0.2612
17732SOL     OW54038   8.126   0.291   3.556  0.2772 -0.1377 -0.3602
17732SOL    HW154039   8.105   0.250   3.472  1.2850 -0.3199 -0.5431
17732SOL    HW254040   8.167   0.375   3.532  2.3137 -1.0015 -0.1545
17733SOL     OW54041   3.565   4.196   5.495  0.0497 -0.3758  0.6545
17733SOL    HW154042   3.528   4.146   5.568  2.9445 -1.1362  1.7434
17733SOL    HW254043   3.610   4.269   5.536 -0.3931  0.6365 -0.5999
17734SOL     OW54044   1.346   5.808   6.787  0.2177  0.0099  0.2735
17734SOL    HW154045   1.370   5.766   6.705  0.5838 -1.4039  1.0736
17734SOL    HW254046   1.263   5.852   6.769 -0.1609 -1.0363 -0.6063
17735SOL     OW54047   6.166   2.957   1.376 -0.6901 -0.2566  0.2483
17735SOL    HW154048   6.257   2.955   1.347 -0.3708 -1.4813  1.2723
17735SOL    HW254049   6.162   2.894   1.447 -2.1620  0.3907  0.7757
17736SOL     OW54050   7.493   0.278   7.042 -0.2034  0.0547  0.1575
17736SOL    HW154051   7.582   0.262   7.011  1.2102  3.8511  1.7511
17736SOL    HW254052   7.464   0.192   7.075  3.9167 -0.8881  2.0415
17737SOL     OW54053   7.588   5.043   6.312  0.5160  0.0708  0.0253
17737SOL    HW154054   7.496   5.028   6.287  0.2227  0.6419  0.7141
17737SOL    HW254055   7.638   4.985   6.255 -0.2714 -0.2026 -0.4078
17738SOL     OW54056   6.597   3.475   0.439  0.1124 -0.2920 -0.3184
17738SOL    HW154057   6.558   3.405   0.387  1.6742 -1.0499 -0.5282
17738SOL    HW254058   6.691   3.469   0.420  0.3033  1.7708 -0.2200
17739SOL     OW54059   7.650   4.051   2.574  0.3080 -0.1053 -0.4199
17739SOL    HW154060   7.563   4.058   2.612  0.7110  1.2676  0.3212
17739SOL    HW254061   7.697   3.992   2.634  0.7864  1.6480  1.0320
17740SOL     OW54062   3.854   6.094   7.914  0.4290  0.4375  0.0272
17740SOL    HW154063   3.832   6.144   7.992  2.6039 -0.5420  1.3868
17740SOL    HW254064   3.938   6.053   7.935  1.2031  0.2750 -2.9133
17741SOL     OW54065   2.320   8.188   1.676  0.0524  0.3419 -0.3573
17741SOL    HW154066   2.375   8.243   1.733  0.3672  1.2766 -1.5101
17741SOL    HW254067   2.298   8.245   1.602 -2.6057  0.0251  0.1101
17742SOL     OW54068   2.615   7.369   7.559 -0.0790 -0.3825 -0.6844
17742SOL    HW154069   2.634   7.450   7.510 -0.4146 -0.9249 -1.7333
17742SOL    HW254070   2.681   7.368   7.628  0.4460  0.3835 -1.1495
17743SOL     OW54071   5.816   5.689   0.583  0.2898 -0.1622 -0.0487
17743SOL    HW154072   5.726   5.713   0.604  0.4238  2.2289 -1.7553
17743SOL    HW254073   5.813   5.595   0.568 -1.6932 -0.3086  0.8906
17744SOL     OW54074   2.701   0.113   2.257  0.4365  0.1130  0.5132
17744SOL    HW154075   2.759   0.189   2.266  0.5501  0.4093 -2.0679
17744SOL    HW254076   2.629   0.143   2.202  0.4769 -1.6042 -0.5796
17745SOL     OW54077   3.962   4.848   6.853  0.0655 -0.4232  0.4448
17745SOL    HW154078   4.010   4.773   6.819 -0.1775 -0.9968  1.3212
17745SOL    HW254079   3.872   4.817   6.862 -0.9675  1.1385 -2.8183
17746SOL     OW54080   4.081   7.949   0.512 -0.1760 -0.1587 -0.3106
17746SOL    HW154081   4.037   7.878   0.466  3.0946 -1.7094 -1.3650
17746SOL    HW254082   4.068   8.026   0.457 -0.9933 -0.7047 -0.8894
17747SOL     OW54083   0.691   4.335   2.013  0.3528 -0.7524 -0.7708
17747SOL    HW154084   0.670   4.299   1.927 -2.2725  0.1562 -0.6035
17747SOL    HW254085   0.628   4.406   2.026  0.3593 -1.1400  2.0984
17748SOL     OW54086   2.889   6.457   4.897  0.2078 -0.0367 -0.0110
17748SOL    HW154087   2.912   6.489   4.810  0.7792  1.1922  0.5627
17748SOL    HW254088   2.961   6.398   4.921  1.1957  1.2886  0.4598
17749SOL     OW54089   5.466   1.844   1.904 -0.0239  0.9009  0.1265
17749SOL    HW154090   5.438   1.912   1.965 -0.2177  0.6346  0.3376
17749SOL    HW254091   5.484   1.768   1.959 -1.4920  0.2351 -0.2527
17750SOL     OW54092   6.019   8.137   3.389 -0.0227 -0.0529  0.3429
17750SOL    HW154093   5.930   8.111   3.363  0.3860 -0.1691 -1.0265
17750SOL    HW254094   6.012   8.231   3.406 -0.5256 -0.1701  0.8244
17751SOL     OW54095   3.682   2.170   5.809 -0.2638  0.3259 -0.3350
17751SOL    HW154096   3.613   2.237   5.802 -0.2228  0.4637  0.5419
17751SOL    HW254097   3.694   2.157   5.903  1.7110  1.1351 -0.4355
17752SOL     OW54098   6.169   4.892   7.393 -0.5578  0.8868  0.0741
17752SOL    HW154099   6.074   4.894   7.395 -0.5476  1.0392  0.8629
17752SOL    HW254100   6.195   4.982   7.371 -0.6154  0.1010 -3.8687
17753SOL     OW54101   2.461   6.117   2.289  0.3641  0.3013  0.0391
17753SOL    HW154102   2.523   6.189   2.304 -0.8351  1.4916 -0.4477
17753SOL    HW254103   2.463   6.067   2.371  1.7664  0.4497  0.1226
17754SOL     OW54104   3.730   2.466   5.281  0.4466  0.8149 -0.1470
17754SOL    HW154105   3.778   2.383   5.284 -0.5130  0.2542  0.1487
17754SOL    HW254106   3.759   2.508   5.200  1.6880  0.6583  0.1926
17755SOL     OW54107   6.070   0.925   5.434 -0.4984 -0.0529 -0.5805
17755SOL    HW154108   6.080   0.929   5.529  2.7311 -2.6284 -0.6631
17755SOL    HW254109   6.080   1.016   5.405  0.3983  0.5392  1.4091
17756SOL     OW54110   3.934   4.760   2.337 -0.3984 -0.1438  0.0356
17756SOL    HW154111   4.025   4.766   2.307 -0.8795 -1.1207 -1.7879
17756SOL    HW254112   3.901   4.850   2.331 -0.0031 -0.0437 -0.9117
17757SOL     OW54113   7.907   7.772   5.840  0.2761 -0.5709  0.1087
17757SOL    HW154114   7.899   7.685   5.800 -0.8131 -0.6447  0.4550
17757SOL    HW254115   7.822   7.814   5.825  0.5509  0.1733  0.5513
17758SOL     OW54116   5.104   1.229   1.961 -0.9908 -0.1521  0.3652
17758SOL    HW154117   5.101   1.248   1.867 -0.3552  3.1384  0.8862
17758SOL    HW254118   5.018   1.192   1.982 -1.3303 -0.4251 -1.3950
17759SOL     OW54119   5.620   4.297   7.177  0.0000 -0.5760  0.2997
17759SOL    HW154120   5.528   4.299   7.152  0.5697  1.2276 -1.9925
17759SOL    HW254121   5.662   4.241   7.110  0.9646  1.0686 -0.5455
17760SOL     OW54122   2.316   7.851   7.985  0.7047 -0.3371 -0.4226
17760SOL    HW154123   2.367   7.817   8.058  0.3020  0.4172  0.2127
17760SOL    HW254124   2.356   7.935   7.964  1.2465 -0.8487 -1.5241
17761SOL     OW54125   0.484   4.298   0.412  0.8943  0.0351 -0.1548
17761SOL    HW154126   0.514   4.207   0.411  2.5584  0.5547 -0.2413
17761SOL    HW254127   0.529   4.337   0.487  2.6510  1.5302 -1.8746
17762SOL     OW54128   5.171   7.188   5.491  0.4327 -0.1831  0.3498
17762SOL    HW154129   5.171   7.206   5.585  0.4592  0.5021  0.2303
17762SOL    HW254130   5.200   7.098   5.483 -0.2563 -0.4772  1.0374
17763SOL     OW54131   1.589   6.635   3.608  0.0123 -0.1538  0.1156
17763SOL    HW154132   1.558   6.695   3.540  2.0714 -1.4706 -2.1633
17763SOL    HW254133   1.548   6.551   3.586  2.9828 -1.3550 -1.5602
17764SOL     OW54134   6.145   3.031   3.877  0.6362  0.3328 -0.4897
17764SOL    HW154135   6.239   3.014   3.871  0.2520 -2.1406 -0.5537
17764SOL    HW254136   6.105   2.966   3.820 -1.1727  0.6196  0.3675
17765SOL     OW54137   5.395   6.741   1.008 -0.3109 -0.1463  0.5031
17765SOL    HW154138   5.345   6.756   0.928  2.1021  2.7109 -0.6518
17765SOL    HW254139   5.465   6.681   0.982  0.7432  1.1345  0.2580
17766SOL     OW54140   2.041   3.096   0.837  0.1918  0.9293 -0.4910
17766SOL    HW154141   2.055   3.011   0.878 -0.0127  1.2826  0.3566
17766SOL    HW254142   2.006   3.077   0.751  0.0029  0.1584 -0.2492
17767SOL     OW54143   0.437   1.140   6.500  0.4575  0.8414 -0.1780
17767SOL    HW154144   0.410   1.126   6.591 -0.6241  0.7484 -0.5014
17767SOL    HW254145   0.524   1.180   6.507  1.0090 -0.4343  0.8667
17768SOL     OW54146   3.797   6.659   3.850  0.0844 -0.3034 -0.1848
17768SOL    HW154147   3.837   6.606   3.919 -1.4077  0.1318  1.0864
17768SOL    HW254148   3.721   6.608   3.821  0.0670  0.0224 -0.7364
17769SOL     OW54149   3.124   2.901   7.885 -0.4371  1.2036 -0.3398
17769SOL    HW154150   3.081   2.975   7.928 -0.9232  1.6170 -1.4989
17769SOL    HW254151   3.073   2.825   7.911 -0.6538  1.4267 -0.1039
17770SOL     OW54152   3.778   4.811   3.744  0.0656 -0.4372 -0.2127
17770SOL    HW154153   3.726   4.736   3.773 -0.4455 -0.0722 -0.1822
17770SOL    HW254154   3.810   4.851   3.826 -0.1811 -0.2539 -0.2059
17771SOL     OW54155   1.611   1.005   7.692 -0.3742 -0.1132  0.1894
17771SOL    HW154156   1.620   1.100   7.696  0.0239 -0.0316 -1.6724
17771SOL    HW254157   1.700   0.972   7.696 -0.5508 -0.4714  1.5239
17772SOL     OW54158   3.557   4.592   6.889  0.3440 -0.2511  0.0380
17772SOL    HW154159   3.575   4.679   6.854  0.5966 -1.9212 -4.7719
17772SOL    HW254160   3.464   4.579   6.875  0.0148 -0.3495  2.0411
17773SOL     OW54161   2.314   5.406   2.651  0.3483  0.0647 -0.2457
17773SOL    HW154162   2.323   5.312   2.636  1.1304  0.0357  0.3580
17773SOL    HW254163   2.256   5.436   2.580 -0.0298 -0.8863 -0.3530
17774SOL     OW54164   6.287   4.514   5.432 -0.0566  0.1739  0.1380
17774SOL    HW154165   6.267   4.501   5.339 -0.4426  0.3734  0.1877
17774SOL    HW254166   6.202   4.534   5.472 -0.4453 -2.8349  1.0867
17775SOL     OW54167   5.494   2.848   6.645  0.2688 -0.0138 -0.0064
17775SOL    HW154168   5.457   2.790   6.579 -0.9804  0.8208 -0.0757
17775SOL    HW254169   5.455   2.934   6.627  2.4094  0.9767 -0.1838
17776SOL     OW54170   7.757   8.196   2.644 -0.6648 -0.3883 -0.4920
17776SOL    HW154171   7.746   8.257   2.570 -1.6666  0.2257  0.1323
17776SOL    HW254172   7.669   8.186   2.679 -0.3680 -1.5295 -0.0337
17777SOL     OW54173   8.031   4.936   4.914 -0.5459 -0.0381  0.1521
17777SOL    HW154174   7.944   4.926   4.874 -0.2660 -2.1657 -0.0204
17777SOL    HW254175   8.091   4.940   4.839 -0.4370  0.9409  0.2829
17778SOL     OW54176   7.993   5.060   7.612  0.0225 -0.0875  0.2254
17778SOL    HW154177   7.963   4.969   7.617  1.2532 -0.6356 -1.4365
17778SOL    HW254178   7.929   5.102   7.554 -0.3229  0.0200  0.6776
17779SOL     OW54179   5.805   2.850   2.898  0.3159  0.5418 -0.2080
17779SOL    HW154180   5.877   2.819   2.953  0.2853 -0.9259 -0.9530
17779SOL    HW254181   5.847   2.892   2.823  0.3925  0.1655 -0.3764
17780SOL     OW54182   0.994   6.689   0.930 -0.1147 -0.2270 -0.8720
17780SOL    HW154183   0.958   6.669   0.843 -0.7182  0.0005 -0.6766
17780SOL    HW254184   1.072   6.741   0.912  0.3833 -1.0964 -1.3198
17781SOL     OW54185   7.720   4.944   1.542  0.6056 -0.1618  0.0483
17781SOL    HW154186   7.771   4.943   1.461 -0.9335 -0.1649 -0.9585
17781SOL    HW254187   7.766   4.883   1.600  2.1750  0.4243 -0.5150
17782SOL     OW54188   7.233   7.662   6.540  0.4369 -0.1105 -0.2412
17782SOL    HW154189   7.180   7.730   6.500  0.9905 -0.1248 -1.0173
17782SOL    HW254190   7.204   7.581   6.499  1.5286 -0.0380 -1.1968
17783SOL     OW54191   5.219   2.952   6.561 -0.0247  0.0165 -0.0874
17783SOL    HW154192   5.204   2.873   6.509 -0.5655  0.1599 -0.1641
17783SOL    HW254193   5.218   2.922   6.651 -0.3998 -0.0478 -0.1083
17784SOL     OW54194   5.133   5.706   1.096  0.2189 -0.3216  0.4505
17784SOL    HW154195   5.120   5.634   1.033 -0.7140  1.2994 -1.3147
17784SOL    HW254196   5.225   5.730   1.086  0.2817 -0.6197  0.2932
17785SOL     OW54197   4.758   7.583   1.825  0.7431  0.0084 -0.0152
17785SOL    HW154198   4.685   7.612   1.880 -0.2967  1.3802 -2.0051
17785SOL    HW254199   4.834   7.630   1.860  0.0763  0.9862  0.1653
17786SOL     OW54200   3.202   6.770   6.922  0.4011 -0.2950 -0.0679
17786SOL    HW154201   3.107   6.761   6.915  0.4200  0.1857 -1.2688
17786SOL    HW254202   3.227   6.815   6.841  1.4905  0.9067  0.8949
17787SOL     OW54203   2.875   5.673   4.811 -0.1593  0.2801  0.8693
17787SOL    HW154204   2.913   5.587   4.792  1.3990  1.4089 -1.5164
17787SOL    HW254205   2.782   5.663   4.792  0.2995 -0.4530 -1.1897
17788SOL     OW54206   6.064   6.837   7.617 -0.2330  0.2080 -0.6001
17788SOL    HW154207   6.009   6.807   7.689 -0.5132  1.0819 -0.4388
17788SOL    HW254208   6.021   6.916   7.585 -0.3922 -0.4422 -2.0733
17789SOL     OW54209   5.978   0.648   1.272  0.2331 -0.4348  0.6498
17789SOL    HW154210   5.985   0.652   1.367  0.8496  5.5630  0.7035
17789SOL    HW254211   6.068   0.650   1.240  0.0019  0.5615  0.0117
17790SOL     OW54212   4.804   3.770   2.950 -0.2300  0.3086  0.9315
17790SOL    HW154213   4.816   3.779   2.856 -3.4036 -0.7155  0.2980
17790SOL    HW254214   4.827   3.856   2.986 -0.6375  1.2827 -1.0210
17791SOL     OW54215   0.942   8.090   8.090 -0.0450 -0.3036 -0.1503
17791SOL    HW154216   0.961   8.091   7.996 -0.5682 -2.6076 -0.3338
17791SOL    HW254217   1.028   8.092   8.132  0.2224 -0.3479 -0.6928
17792SOL     OW54218   4.635   1.420   6.214  0.5450 -0.5796 -0.4029
17792SOL    HW154219   4.678   1.442   6.131  0.4370 -0.0383 -0.3237
17792SOL    HW254220   4.633   1.503   6.262 -0.9325 -0.4756 -0.5700
17793SOL     OW54221   6.322   4.381   2.961 -0.2737 -0.2930  0.3414
17793SOL    HW154222   6.270   4.453   2.997  0.1047 -0.0609  0.4207
17793SOL    HW254223   6.399   4.376   3.017 -0.2745 -0.7287  0.3071
17794SOL     OW54224   3.442   5.693   4.539  0.2547 -0.5223  0.3242
17794SOL    HW154225   3.536   5.676   4.532  0.1092 -1.9030  1.3295
17794SOL    HW254226   3.417   5.654   4.622 -0.8205  1.7525  1.1363
17795SOL     OW54227   2.147   3.563   5.584 -0.3159 -0.3026 -0.5146
17795SOL    HW154228   2.211   3.601   5.644 -1.2486  2.1478 -0.9389
17795SOL    HW254229   2.191   3.565   5.498 -0.3178 -0.2856 -0.5152
17796SOL     OW54230   5.017   7.064   2.007  0.1869  0.4328  0.1646
17796SOL    HW154231   5.019   7.016   1.924  0.9926  0.1169  0.3605
17796SOL    HW254232   4.925   7.063   2.033  0.1005 -0.4946 -0.1364
17797SOL     OW54233   6.520   7.857   6.654  0.3496 -0.0157 -0.6614
17797SOL    HW154234   6.465   7.823   6.584  0.5799  0.1476 -0.9236
17797SOL    HW254235   6.565   7.780   6.689 -1.2992 -0.4242  0.6969
17798SOL     OW54236   7.102   4.172   0.251 -0.4429  0.0645 -0.5099
17798SOL    HW154237   7.117   4.142   0.161  0.0493  0.5125 -0.5809
17798SOL    HW254238   7.060   4.098   0.294 -1.0426 -0.0163 -1.2149
17799SOL     OW54239   6.615   3.701   4.170 -0.2404  0.4241 -0.1391
17799SOL    HW154240   6.623   3.681   4.264  0.2797 -1.2187 -0.5114
17799SOL    HW254241   6.521   3.713   4.156 -0.7020 -2.2891  0.0700
17800SOL     OW54242   2.963   3.439   0.907  0.6739 -0.8871  0.4926
17800SOL    HW154243   3.025   3.366   0.908  2.9990  0.8898  3.0924
17800SOL    HW254244   2.936   3.448   0.999  0.5796  1.5701  0.2821
17801SOL     OW54245   0.715   6.426   1.568 -0.1031  0.0767 -0.1813
17801SOL    HW154246   0.714   6.493   1.500 -0.0061  0.2012 -0.0612
17801SOL    HW254247   0.659   6.357   1.535 -0.9998  0.6409  0.1118
17802SOL     OW54248   3.918   3.312   6.738  0.5000  0.6376 -0.2612
17802SOL    HW154249   3.903   3.218   6.731 -1.1391  0.7798  0.7979
17802SOL    HW254250   3.894   3.333   6.828 -0.2671  2.2324 -0.8011
17803SOL     OW54251   1.067   1.432   2.290 -0.5527  0.0114  0.1297
17803SOL    HW154252   1.046   1.407   2.381  2.1885  0.9442  1.1149
17803SOL    HW254253   1.034   1.522   2.282  1.5985  0.9770  1.2225
17804SOL     OW54254   7.401   3.799   5.488  0.4445  0.8662 -0.5401
17804SOL    HW154255   7.350   3.780   5.409  1.4575  2.0973 -1.5267
17804SOL    HW254256   7.491   3.776   5.465  1.0394  2.8425 -0.3887
17805SOL     OW54257   5.291   5.395   5.713 -0.7755 -0.1381 -0.3914
17805SOL    HW154258   5.262   5.322   5.768 -0.9366  0.0379 -0.2387
17805SOL    HW254259   5.346   5.448   5.771 -0.5514 -0.2075 -0.5397
17806SOL     OW54260   1.592   0.448   1.567 -0.3258 -0.2769  0.9484
17806SOL    HW154261   1.587   0.422   1.476 -0.5348  3.1824 -0.1877
17806SOL    HW254262   1.504   0.478   1.589 -0.2898 -1.0679  2.3252
17807SOL     OW54263   4.513   3.980   3.661  0.6503  0.3399 -0.0564
17807SOL    HW154264   4.531   4.022   3.745  0.6563  0.4961 -0.1352
17807SOL    HW254265   4.432   3.931   3.676  0.8005  0.1424  0.1189
17808SOL     OW54266   5.519   3.760   2.045 -0.3422  0.0099 -0.1413
17808SOL    HW154267   5.500   3.675   2.006  0.1220 -0.0677 -0.2049
17808SOL    HW254268   5.499   3.823   1.975  0.3982 -0.1230 -0.4916
17809SOL     OW54269   1.670   3.737   4.864  0.0153 -0.8265 -0.7533
17809SOL    HW154270   1.702   3.822   4.893 -2.1412 -0.0373 -0.5026
17809SOL    HW254271   1.746   3.695   4.823  0.8792  1.6096 -1.7957
17810SOL     OW54272   4.932   8.054   8.210  0.2357  0.0878  0.1836
17810SOL    HW154273   4.915   7.986   8.145 -0.9305  0.3394  0.2090
17810SOL    HW254274   4.979   8.009   8.280  1.0121 -0.3057 -0.5701
17811SOL     OW54275   4.376   0.207   1.863 -0.5106  0.5321 -0.1378
17811SOL    HW154276   4.441   0.151   1.907  0.5183  2.5049  0.9655
17811SOL    HW254277   4.428   0.261   1.803 -0.8683  2.9213  1.5597
17812SOL     OW54278   4.315   4.354   6.409 -0.9226 -0.5547 -0.4705
17812SOL    HW154279   4.288   4.317   6.493 -3.5731  1.7505 -0.1393
17812SOL    HW254280   4.296   4.285   6.345 -1.2823 -1.4505  0.5772
17813SOL     OW54281   5.159   3.918   6.848  0.2371 -0.1466  0.1504
17813SOL    HW154282   5.143   3.987   6.913 -2.3578  0.5762 -1.1269
17813SOL    HW254283   5.095   3.850   6.869  0.2768 -0.4980 -0.8158
17814SOL     OW54284   4.298   4.192   1.176 -0.2327  0.1370  0.2441
17814SOL    HW154285   4.319   4.184   1.269  0.0451 -1.8806  0.0376
17814SOL    HW254286   4.338   4.115   1.136 -2.2857 -0.2441 -1.2031
17815SOL     OW54287   6.328   1.906   3.533  0.2283  0.0596 -0.2552
17815SOL    HW154288   6.254   1.908   3.473 -0.3125  1.4215  0.4058
17815SOL    HW254289   6.404   1.892   3.477 -0.2435  1.4307 -1.3019
17816SOL     OW54290   3.028   2.437   6.979 -0.3949  0.2258 -0.0327
17816SOL    HW154291   3.003   2.357   7.024 -2.6579 -0.3577 -2.0869
17816SOL    HW254292   3.041   2.502   7.048 -0.8184 -1.3145  1.5407
17817SOL     OW54293   3.595   2.557   2.208 -0.1953 -0.1111  0.2620
17817SOL    HW154294   3.528   2.597   2.152  0.1303  0.0303 -0.0315
17817SOL    HW254295   3.624   2.628   2.264  0.6450  0.1673 -0.5091
17818SOL     OW54296   6.402   3.288   1.091  0.3510 -0.1462 -0.1384
17818SOL    HW154297   6.314   3.261   1.117  0.2673 -0.0833 -0.3587
17818SOL    HW254298   6.429   3.349   1.159  0.2200 -0.1542 -0.0785
17819SOL     OW54299   0.695   2.377   4.935  0.3225  0.0811  0.0937
17819SOL    HW154300   0.711   2.450   4.995 -0.9611  1.3402 -1.0324
17819SOL    HW254301   0.649   2.416   4.861 -1.2285 -2.0147 -0.1471
17820SOL     OW54302   0.151   5.493   1.358 -0.4130 -0.0121  0.0387
17820SOL    HW154303   0.062   5.466   1.335 -0.5173  1.7025 -1.7798
17820SOL    HW254304   0.195   5.507   1.274  0.5794  2.2667  0.8642
17821SOL     OW54305   2.871   6.357   6.235  0.4463  0.4073 -0.5441
17821SOL    HW154306   2.949   6.338   6.183  2.0035  2.6633  0.7407
17821SOL    HW254307   2.878   6.299   6.311  0.0023 -0.4996 -1.1878
17822SOL     OW54308   5.251   6.613   5.878  0.1701  0.1290  0.0070
17822SOL    HW154309   5.220   6.625   5.968  0.3683  0.5521  0.0217
17822SOL    HW254310   5.185   6.557   5.837 -0.9228  1.4530 -0.1250
17823SOL     OW54311   4.311   0.285   3.459 -0.4968 -0.3580 -0.4833
17823SOL    HW154312   4.315   0.192   3.483  0.7077 -0.3317 -0.5473
17823SOL    HW254313   4.289   0.329   3.541  0.4225 -0.5680 -0.1152
17824SOL     OW54314   0.952   4.246   7.613 -0.3416  0.3236 -0.5502
17824SOL    HW154315   0.927   4.165   7.657 -0.1801 -0.5796 -2.0559
17824SOL    HW254316   1.035   4.271   7.654 -1.2580  0.7591  1.1698
17825SOL     OW54317   7.247   2.019   4.216  0.1790 -0.4726  0.4145
17825SOL    HW154318   7.292   2.091   4.261  0.0236 -0.4222  0.4878
17825SOL    HW254319   7.272   2.029   4.124 -2.7329  1.9056 -0.2738
17826SOL     OW54320   4.129   1.445   5.902 -0.3563  0.0677  0.0680
17826SOL    HW154321   4.117   1.432   5.808  1.1343  2.3811 -0.5063
17826SOL    HW254322   4.224   1.452   5.914 -0.3172 -2.4821  2.1455
17827SOL     OW54323   1.667   6.950   4.816 -0.0275  0.8963  0.0030
17827SOL    HW154324   1.749   6.991   4.845  0.4900  0.8488 -1.3137
17827SOL    HW254325   1.688   6.856   4.812 -0.4735  0.7585  0.6457
17828SOL     OW54326   5.877   0.574   4.909 -0.4306 -0.8752 -0.0472
17828SOL    HW154327   5.836   0.656   4.939  0.5800 -0.9489  1.6302
17828SOL    HW254328   5.970   0.594   4.904 -0.0152 -2.2268  1.5269
17829SOL     OW54329   1.431   4.255   4.187 -0.7957  0.4730  0.1705
17829SOL    HW154330   1.504   4.287   4.240  1.1550 -1.2014 -1.3544
17829SOL    HW254331   1.383   4.334   4.163 -0.0122  1.5449  1.8826
17830SOL     OW54332   4.405   1.423   6.553  0.9652 -0.1351 -0.4869
17830SOL    HW154333   4.351   1.387   6.623  1.9200 -0.3110  0.1909
17830SOL    HW254334   4.380   1.374   6.475  1.0195 -1.0784  0.0733
17831SOL     OW54335   7.402   6.368   2.896 -0.5225  0.1672 -0.3680
17831SOL    HW154336   7.404   6.272   2.891  0.6144  0.2514 -2.0705
17831SOL    HW254337   7.318   6.392   2.856 -0.2971 -0.0729 -0.9885
17832SOL     OW54338   2.579   4.722   6.114 -0.2025 -0.0183 -0.1768
17832SOL    HW154339   2.673   4.733   6.098 -0.0669 -0.5077  0.2498
17832SOL    HW254340   2.553   4.800   6.162 -0.4261  1.0428 -1.9407
17833SOL     OW54341   0.648   5.954   3.555 -0.2203  0.5106 -0.7864
17833SOL    HW154342   0.709   6.019   3.590 -1.4352  2.2941 -1.8534
17833SOL    HW254343   0.573   5.956   3.615  0.4661 -1.2734  0.2056
17834SOL     OW54344   0.745   5.505   1.738 -0.2763  0.2376  0.1382
17834SOL    HW154345   0.710   5.570   1.677 -0.7033  0.2457  0.3947
17834SOL    HW254346   0.714   5.533   1.824 -1.5014 -0.9814  0.1225
17835SOL     OW54347   5.189   6.382   7.695 -0.2080 -0.6449 -0.5156
17835SOL    HW154348   5.161   6.298   7.659  0.9454 -1.3998  0.2458
17835SOL    HW254349   5.111   6.417   7.738 -1.4757  0.0366 -3.2021
17836SOL     OW54350   0.738   3.956   1.400  0.4966 -0.1976  0.3542
17836SOL    HW154351   0.779   3.986   1.482  0.8593 -2.6225  1.1334
17836SOL    HW254352   0.654   3.920   1.427  0.4506 -0.6697 -0.3950
17837SOL     OW54353   0.134   5.671   5.945 -0.3344  0.5494  0.0969
17837SOL    HW154354   0.080   5.737   5.989  1.6009  1.9869  0.4648
17837SOL    HW254355   0.138   5.699   5.854 -0.6926  0.0957 -0.0632
17838SOL     OW54356   6.369   3.217   6.256 -0.5860  0.7727  0.6032
17838SOL    HW154357   6.319   3.186   6.180  1.1579 -1.4794  0.2623
17838SOL    HW254358   6.417   3.293   6.223 -0.1234  0.0371 -0.4762
17839SOL     OW54359   2.659   4.485   4.940  0.4469  0.2670  0.1476
17839SOL    HW154360   2.649   4.578   4.920  1.9898  0.3987 -0.0987
17839SOL    HW254361   2.719   4.452   4.873 -0.1891 -0.9444  0.1513
17840SOL     OW54362   4.524   3.470   2.639  0.2709 -0.5170 -0.1618
17840SOL    HW154363   4.466   3.508   2.573  1.8124 -0.0904 -1.3331
17840SOL    HW254364   4.534   3.539   2.705  1.2023  0.2578 -1.0935
17841SOL     OW54365   0.347   0.187   6.473 -0.3697  0.6363  0.3877
17841SOL    HW154366   0.312   0.185   6.383  0.1299  0.7032  0.1919
17841SOL    HW254367   0.279   0.144   6.525 -0.4515  0.1632 -0.0934
17842SOL     OW54368   1.552   1.090   6.428 -0.1494 -0.0799 -0.6445
17842SOL    HW154369   1.481   1.149   6.449  1.5300  1.2491  1.8252
17842SOL    HW254370   1.525   1.005   6.463  0.1001  0.7989  1.8397
17843SOL     OW54371   1.151   0.140   0.788  0.2687 -0.2525 -0.1777
17843SOL    HW154372   1.178   0.152   0.879  0.1049  0.3176 -0.2023
17843SOL    HW254373   1.106   0.222   0.764  1.0419 -0.0579 -1.0298
17844SOL     OW54374   3.467   4.125   4.232  0.5064 -0.3766  0.1883
17844SOL    HW154375   3.484   4.043   4.278 -0.1511 -0.6718 -0.0790
17844SOL    HW254376   3.435   4.098   4.146  3.6374  0.1393 -1.2787
17845SOL     OW54377   4.691   3.583   1.846  0.4977 -0.4258  0.1385
17845SOL    HW154378   4.774   3.627   1.863  0.0259  0.1985  0.8699
17845SOL    HW254379   4.658   3.624   1.766 -0.1736  0.9470  1.0743
17846SOL     OW54380   4.372   0.611   2.511  0.2349 -0.4041  0.4040
17846SOL    HW154381   4.348   0.575   2.425  2.2147  0.5457 -0.6316
17846SOL    HW254382   4.334   0.699   2.511  0.3934 -0.3356  0.4175
17847SOL     OW54383   4.829   7.623   1.499 -0.2452 -0.3530 -0.1378
17847SOL    HW154384   4.848   7.598   1.409  0.5305  0.6096 -0.2526
17847SOL    HW254385   4.739   7.593   1.513 -0.1106 -1.2012 -0.9709
17848SOL     OW54386   2.937   0.786   7.430  0.0746 -0.2312  0.5737
17848SOL    HW154387   2.996   0.837   7.375 -0.4190 -0.2403  0.0276
17848SOL    HW254388   2.980   0.783   7.515 -0.3640  1.9668  0.9175
17849SOL     OW54389   2.502   2.651   0.601  0.2977 -0.0806  0.1897
17849SOL    HW154390   2.575   2.711   0.583  0.6096 -0.7184 -0.7895
17849SOL    HW254391   2.443   2.701   0.657  0.8886  0.8946 -0.0255
17850SOL     OW54392   3.720   5.878   6.172  0.0584 -0.2126 -0.0682
17850SOL    HW154393   3.670   5.955   6.146 -0.1042 -0.1416  0.4409
17850SOL    HW254394   3.660   5.805   6.158 -0.7442  0.0010  1.9026
17851SOL     OW54395   0.154   0.367   3.393 -0.1518  0.2541  0.0591
17851SOL    HW154396   0.130   0.426   3.465 -0.4719  1.3331 -0.8931
17851SOL    HW254397   0.163   0.425   3.317 -0.9504 -0.9900 -1.0298
17852SOL     OW54398   4.089   5.126   6.233  0.0989 -0.6363  0.1354
17852SOL    HW154399   4.018   5.143   6.171  3.2861  0.3488 -3.7195
17852SOL    HW254400   4.107   5.211   6.272  0.7153 -0.2925 -0.8539
17853SOL     OW54401   1.899   5.119   0.302  0.3208  0.3250  0.7155
17853SOL    HW154402   1.907   5.149   0.392  1.4225  1.5621  0.2447
17853SOL    HW254403   1.967   5.052   0.292  0.9122  0.9392  0.5330
17854SOL     OW54404   4.780   3.561   5.024  0.2079  0.2497 -0.0965
17854SOL    HW154405   4.805   3.605   4.942  0.3561  0.7988  0.2391
17854SOL    HW254406   4.716   3.619   5.064 -0.9049 -0.6748 -0.4660
17855SOL     OW54407   6.674   5.297   7.629 -0.5617  0.4944 -0.1889
17855SOL    HW154408   6.648   5.217   7.674 -2.1677  0.7557 -0.5913
17855SOL    HW254409   6.593   5.347   7.620  0.5626  2.7254  1.0929
17856SOL     OW54410   4.764   4.024   3.683 -0.4213  0.5210 -0.2636
17856SOL    HW154411   4.671   4.028   3.660 -0.3598 -1.1969 -0.9292
17856SOL    HW254412   4.785   3.931   3.680  0.9544  0.7286  1.4295
17857SOL     OW54413   4.490   5.457   3.063 -0.2591  0.0853 -0.4625
17857SOL    HW154414   4.519   5.544   3.037 -0.0337 -0.0859 -0.8106
17857SOL    HW254415   4.562   5.399   3.035 -1.2011 -0.4305 -1.8960
17858SOL     OW54416   7.792   2.542   5.102 -0.1640 -0.1287 -0.0730
17858SOL    HW154417   7.795   2.588   5.186  0.2722 -0.3226  0.0172
17858SOL    HW254418   7.752   2.457   5.123 -1.0302  0.2207 -0.2509
17859SOL     OW54419   7.669   5.749   2.274  0.1247  0.3166  0.0657
17859SOL    HW154420   7.726   5.795   2.336 -0.3750  2.0002 -0.6648
17859SOL    HW254421   7.710   5.762   2.189 -0.1575 -0.4204 -0.1930
17860SOL     OW54422   5.847   1.582   3.371 -0.3203  0.1014  0.5251
17860SOL    HW154423   5.908   1.596   3.443  1.0802  1.6388 -0.8697
17860SOL    HW254424   5.762   1.613   3.404  0.5122  1.7775  1.1864
17861SOL     OW54425   3.948   4.239   7.208 -0.0156  0.7650 -0.0896
17861SOL    HW154426   3.890   4.168   7.237  1.2548 -0.7639 -1.1072
17861SOL    HW254427   3.904   4.278   7.132 -1.1311  1.6843  0.9972
17862SOL     OW54428   1.334   3.290   3.149  0.7191 -0.4556 -0.3637
17862SOL    HW154429   1.241   3.308   3.163  0.3681 -0.5114 -2.3064
17862SOL    HW254430   1.337   3.198   3.124  1.0889 -0.0667 -1.8228
17863SOL     OW54431   8.040   5.648   1.429 -0.2182  0.0620 -0.4755
17863SOL    HW154432   7.970   5.610   1.483 -0.4801 -0.0439 -0.8896
17863SOL    HW254433   8.117   5.646   1.486 -0.1817 -1.2714 -0.5597
17864SOL     OW54434   4.431   4.808   2.816  0.0354 -1.0295 -0.4183
17864SOL    HW154435   4.511   4.758   2.828  0.7421  0.3275  0.8385
17864SOL    HW254436   4.455   4.879   2.756 -0.9745 -2.1548 -2.2439
17865SOL     OW54437   5.411   6.261   2.939 -0.0437  0.2474 -0.7375
17865SOL    HW154438   5.454   6.333   2.985 -1.6910  0.4540  0.5601
17865SOL    HW254439   5.353   6.304   2.876 -1.7856  0.1413  0.7299
17866SOL     OW54440   0.562   4.267   7.319  0.1178 -0.1594 -0.1508
17866SOL    HW154441   0.627   4.253   7.250 -0.7285 -0.4778 -0.9185
17866SOL    HW254442   0.516   4.183   7.325 -0.8373  0.3427 -0.2972
17867SOL     OW54443   4.394   0.797   5.513  0.6541 -0.3173  0.1512
17867SOL    HW154444   4.314   0.762   5.552  0.6444  0.8489  1.2476
17867SOL    HW254445   4.377   0.796   5.419  0.4816 -2.7404  0.1521
17868SOL     OW54446   5.917   5.975   3.354 -0.0135  0.2082  0.1385
17868SOL    HW154447   5.835   6.015   3.381 -0.0457  0.8402 -0.8491
17868SOL    HW254448   5.973   6.049   3.330 -0.1343 -0.2980 -1.8858
17869SOL     OW54449   4.037   4.934   6.417 -0.0668  0.2750  0.1418
17869SOL    HW154450   4.052   5.006   6.356 -2.8696  0.7961 -0.0488
17869SOL    HW254451   3.985   4.973   6.488 -1.3274 -1.4506  0.2258
17870SOL     OW54452   6.718   3.240   0.224  0.1277 -0.1217 -0.0861
17870SOL    HW154453   6.741   3.328   0.255 -0.6554  0.2909 -0.6457
17870SOL    HW254454   6.708   3.250   0.129 -1.3538 -0.4859  0.0056
17871SOL     OW54455   4.964   4.119   4.869 -0.4244  0.4593 -0.3205
17871SOL    HW154456   5.023   4.057   4.825 -0.2166  0.1657  0.3550
17871SOL    HW254457   4.957   4.193   4.809 -0.3362 -0.0371 -0.9497
17872SOL     OW54458   3.681   5.044   3.034 -0.1836 -0.2595  0.0207
17872SOL    HW154459   3.691   5.038   3.130 -2.6650  0.5298  0.3897
17872SOL    HW254460   3.599   5.091   3.022 -0.7731 -1.8273 -2.5416
17873SOL     OW54461   7.191   1.760   7.388 -0.0978  0.8819  0.0939
17873SOL    HW154462   7.222   1.743   7.299 -2.1809  3.8696 -1.4015
17873SOL    HW254463   7.228   1.846   7.410  0.1296  0.3335  2.0233
17874SOL     OW54464   5.276   1.349   5.797 -0.3016  0.0427 -0.0887
17874SOL    HW154465   5.301   1.271   5.846 -2.6627 -0.7785 -0.0390
17874SOL    HW254466   5.346   1.412   5.814  2.1252 -2.2657 -0.7702
17875SOL     OW54467   6.713   5.276   8.179  0.4566  0.2581  0.2837
17875SOL    HW154468   6.651   5.313   8.242  0.1984  0.2894  0.0138
17875SOL    HW254469   6.658   5.232   8.115  0.7663 -1.1455  0.9356
17876SOL     OW54470   0.044   0.646   7.145  0.3265  0.2581  0.0297
17876SOL    HW154471   0.064   0.579   7.080 -0.2936 -0.3919  0.4961
17876SOL    HW254472   0.047   0.600   7.229 -0.6110  0.6803  0.3126
17877SOL     OW54473   7.368   3.360   2.533 -0.0063  0.1511  0.2324
17877SOL    HW154474   7.382   3.322   2.446  1.1880 -0.6814  0.7673
17877SOL    HW254475   7.394   3.291   2.593  2.0426  1.7259  1.2534
17878SOL     OW54476   4.606   7.247   4.495 -0.2935 -0.1906 -0.5401
17878SOL    HW154477   4.678   7.257   4.433 -0.6337  0.8338 -0.7733
17878SOL    HW254478   4.648   7.213   4.575  0.1802 -1.2677 -1.2174
17879SOL     OW54479   7.366   2.713   3.744 -0.6190 -0.0608 -0.5493
17879SOL    HW154480   7.366   2.807   3.761 -0.8870  0.0473 -1.1118
17879SOL    HW254481   7.282   2.696   3.702 -1.1626 -0.7897  0.7768
17880SOL     OW54482   0.750   0.246   5.617 -0.0017 -0.2028 -0.3360
17880SOL    HW154483   0.691   0.201   5.677 -0.0685 -0.4115 -0.5574
17880SOL    HW254484   0.752   0.336   5.648 -0.7602 -0.0986 -0.5722
17881SOL     OW54485   3.843   3.522   7.848  0.0801 -0.1603 -0.0303
17881SOL    HW154486   3.927   3.483   7.871  0.4296  0.5614 -0.0617
17881SOL    HW254487   3.829   3.589   7.915 -0.4692 -0.2756 -0.0277
17882SOL     OW54488   5.463   3.757   3.695 -0.4417  0.1873  0.1284
17882SOL    HW154489   5.520   3.822   3.654 -0.3906  1.5071  2.1098
17882SOL    HW254490   5.419   3.806   3.765 -0.3928 -1.9094  1.7216
17883SOL     OW54491   2.563   6.793   4.044 -0.2598  0.1210 -0.4795
17883SOL    HW154492   2.633   6.733   4.068  0.8169  1.6546  0.3618
17883SOL    HW254493   2.591   6.831   3.960 -0.6004 -0.0275 -0.6651
17884SOL     OW54494   2.546   5.818   2.875  0.1529 -0.3610  0.3350
17884SOL    HW154495   2.607   5.750   2.846  0.6456  0.5552 -0.8502
17884SOL    HW254496   2.552   5.886   2.808 -1.5929  0.1110  0.6166
17885SOL     OW54497   3.413   0.771   7.933  0.0232  0.3094  0.2981
17885SOL    HW154498   3.491   0.819   7.904  1.0354 -1.0950  0.5751
17885SOL    HW254499   3.448   0.694   7.978 -1.5372 -0.6279 -0.0198
17886SOL     OW54500   2.073   4.376   7.235 -0.2549 -0.1161  0.2583
17886SOL    HW154501   2.099   4.366   7.327 -0.4366  0.4448  0.3733
17886SOL    HW254502   2.010   4.448   7.236  0.5991  0.6417 -0.4720
17887SOL     OW54503   1.204   4.638   1.187  0.2625  0.2665 -0.3873
17887SOL    HW154504   1.193   4.557   1.237  1.2886  1.0986  1.2354
17887SOL    HW254505   1.296   4.660   1.197  0.0283  1.5687 -0.9316
17888SOL     OW54506   6.452   4.298   2.038 -0.0247  0.2353  0.3178
17888SOL    HW154507   6.425   4.207   2.025  0.6260  0.3204 -2.2311
17888SOL    HW254508   6.370   4.348   2.034 -0.3199 -0.1792  1.0871
17889SOL     OW54509   1.051   5.091   2.719 -0.9044  0.2143 -0.6714
17889SOL    HW154510   0.962   5.055   2.715 -0.8753  0.1714 -0.9246
17889SOL    HW254511   1.042   5.180   2.686 -1.0751  0.6390  0.4555
17890SOL     OW54512   4.919   0.113   5.730 -0.0652 -0.2325 -0.0899
17890SOL    HW154513   4.827   0.099   5.750 -0.3467  0.0576 -1.1318
17890SOL    HW254514   4.946   0.184   5.788  0.5363 -2.6979  2.9608
17891SOL     OW54515   7.006   2.391   2.161 -0.5056  0.4231  0.2570
17891SOL    HW154516   6.954   2.445   2.101  0.4507 -1.4227 -2.4075
17891SOL    HW254517   7.096   2.420   2.147 -0.2468 -0.1563  0.6921
17892SOL     OW54518   0.411   0.620   1.354  0.1834 -0.0649  0.3114
17892SOL    HW154519   0.324   0.646   1.326  0.2906  0.8156  0.7528
17892SOL    HW254520   0.420   0.529   1.325 -1.5829 -0.7990  1.8664
17893SOL     OW54521   3.347   3.862   3.410  0.2789  0.3963 -0.2382
17893SOL    HW154522   3.361   3.777   3.451  0.9550  0.5827 -0.0790
17893SOL    HW254523   3.331   3.842   3.318 -4.9915 -0.3796  0.5441
17894SOL     OW54524   5.386   3.967   3.415 -0.0097  0.2165  0.2008
17894SOL    HW154525   5.433   4.007   3.342 -0.4478 -1.3546 -1.0001
17894SOL    HW254526   5.454   3.942   3.478  0.5944 -0.3190 -0.6467
17895SOL     OW54527   6.246   3.211   7.927 -0.4414 -0.7306 -0.5363
17895SOL    HW154528   6.312   3.160   7.881 -2.9169 -0.9188 -4.3719
17895SOL    HW254529   6.286   3.298   7.939  0.8362 -1.0930 -1.8756
17896SOL     OW54530   6.238   3.722   2.764  0.4081  0.0790 -0.3080
17896SOL    HW154531   6.211   3.635   2.734 -2.0953  0.9404 -0.7942
17896SOL    HW254532   6.290   3.757   2.691  0.3876 -0.5291 -0.6235
17897SOL     OW54533   7.510   7.595   2.534  0.1790  0.1932 -0.8398
17897SOL    HW154534   7.441   7.537   2.567  0.6753 -1.0894 -1.9872
17897SOL    HW254535   7.516   7.664   2.601 -1.3081 -0.3584 -0.0724
17898SOL     OW54536   1.901   3.164   1.098 -0.2097  0.5160 -0.1246
17898SOL    HW154537   1.858   3.078   1.100 -0.5766  0.6092 -1.8283
17898SOL    HW254538   1.933   3.171   1.008 -0.6529  2.3860 -0.1608
17899SOL     OW54539   3.709   4.768   2.472  0.0013  0.4983 -0.2157
17899SOL    HW154540   3.777   4.749   2.408  0.7160  0.8147  0.4396
17899SOL    HW254541   3.729   4.709   2.545 -0.1578  0.9127  0.1647
17900SOL     OW54542   5.289   6.183   0.812  0.3523 -0.1516  0.0650
17900SOL    HW154543   5.196   6.192   0.795  0.3096 -0.7605 -0.0458
17900SOL    HW254544   5.295   6.164   0.906  0.3890  0.2417  0.1426
17901SOL     OW54545   5.906   7.526   8.135 -0.1454 -0.0552  0.0697
17901SOL    HW154546   5.818   7.555   8.113  0.1228 -0.1898 -1.2147
17901SOL    HW254547   5.951   7.606   8.164 -0.2512  0.2985 -0.7183
17902SOL     OW54548   3.692   4.965   0.851 -0.0324  0.6589 -0.0396
17902SOL    HW154549   3.631   4.937   0.782  0.7796  2.3062 -1.5061
17902SOL    HW254550   3.709   4.886   0.902 -1.4091 -0.3985 -1.1576
17903SOL     OW54551   3.224   4.634   4.585 -0.0548 -0.5095 -0.1564
17903SOL    HW154552   3.181   4.709   4.625 -0.7143 -0.8231 -0.2689
17903SOL    HW254553   3.152   4.579   4.554  0.4307 -0.8677 -0.6615
17904SOL     OW54554   3.505   7.041   3.288 -0.1858 -0.0286 -0.4257
17904SOL    HW154555   3.553   7.113   3.248 -1.2412 -0.1559 -2.0094
17904SOL    HW254556   3.455   7.002   3.216  0.7203 -2.6859  0.2708
17905SOL     OW54557   0.288   0.336   3.975  0.5417  0.2956  0.3886
17905SOL    HW154558   0.374   0.378   3.979  1.4301 -1.3168 -0.9611
17905SOL    HW254559   0.262   0.342   3.883  0.0029 -0.7487  0.4627
17906SOL     OW54560   6.258   5.624   3.534 -0.4494  0.0555  0.4140
17906SOL    HW154561   6.296   5.610   3.620 -1.3693 -1.4742  0.6042
17906SOL    HW254562   6.178   5.675   3.550 -0.6045 -0.2035  0.4729
17907SOL     OW54563   1.892   2.551   2.408 -0.9633  0.0068 -0.0950
17907SOL    HW154564   1.933   2.625   2.364  0.7672 -0.9025 -0.1059
17907SOL    HW254565   1.900   2.571   2.502 -1.5907  0.3751 -0.1147
17908SOL     OW54566   3.573   2.330   8.200 -0.2915  0.5214  0.1528
17908SOL    HW154567   3.662   2.346   8.230  0.0635 -0.4950 -0.3061
17908SOL    HW254568   3.522   2.402   8.237  0.7103  1.1100  0.4343
17909SOL     OW54569   3.943   0.871   3.883  0.0323  0.2087 -0.1059
17909SOL    HW154570   3.988   0.857   3.967  0.6242  0.6551 -0.3401
17909SOL    HW254571   3.942   0.966   3.873  1.6577  0.1158 -1.4974
17910SOL     OW54572   3.396   2.553   7.993  0.2033 -0.0903 -0.4615
17910SOL    HW154573   3.325   2.603   8.032  0.2088  1.2724 -2.1093
17910SOL    HW254574   3.368   2.462   8.000 -0.8272  0.2940  0.6038
17911SOL     OW54575   5.653   1.795   5.547  0.2485 -0.0415  0.7260
17911SOL    HW154576   5.669   1.868   5.607 -0.1573 -2.1541  3.6270
17911SOL    HW254577   5.574   1.754   5.580  0.3037 -1.6357 -0.9839
17912SOL     OW54578   6.112   6.520   7.598  0.4355 -0.0207 -0.6166
17912SOL    HW154579   6.092   6.612   7.615  1.7179  0.2713 -0.6458
17912SOL    HW254580   6.176   6.522   7.527 -2.4871 -1.0879 -3.5959
17913SOL     OW54581   6.873   0.210   5.348  0.2504 -0.3737  0.2544
17913SOL    HW154582   6.934   0.219   5.275 -1.6208  0.0061 -1.3380
17913SOL    HW254583   6.847   0.118   5.345 -1.3191  0.0744 -0.8595
17914SOL     OW54584   2.922   7.271   5.481 -0.1429 -0.1051 -0.1150
17914SOL    HW154585   2.937   7.283   5.575 -0.6452 -0.2259 -0.0158
17914SOL    HW254586   3.010   7.263   5.444  0.0334 -1.1274  0.4831
17915SOL     OW54587   1.517   0.388   7.835 -0.1574  0.5630 -0.1207
17915SOL    HW154588   1.430   0.412   7.805  0.2565  0.6790 -1.2654
17915SOL    HW254589   1.525   0.428   7.922 -1.9161 -0.9866  0.8242
17916SOL     OW54590   7.274   6.549   1.677 -0.0527 -0.5727  0.3898
17916SOL    HW154591   7.295   6.456   1.674 -0.1113 -0.6160  1.2211
17916SOL    HW254592   7.333   6.585   1.743 -0.2569 -0.0789  0.3058
17917SOL     OW54593   2.325   1.827   1.303  0.1993  0.3484 -0.5247
17917SOL    HW154594   2.279   1.902   1.265 -1.2983  0.3743  1.2047
17917SOL    HW254595   2.258   1.781   1.353  1.7218 -0.5850  0.7474
17918SOL     OW54596   1.191   7.987   6.996 -0.3911  0.3368 -0.4067
17918SOL    HW154597   1.132   7.943   7.057 -0.0843  1.8580  1.0732
17918SOL    HW254598   1.133   8.042   6.942 -0.6576 -0.9688 -1.4945
17919SOL     OW54599   7.783   1.616   4.819 -0.3311 -0.4283  0.2418
17919SOL    HW154600   7.813   1.536   4.862  1.8249  0.8108  1.1922
17919SOL    HW254601   7.746   1.669   4.890  0.1804  0.2573  0.0049
17920SOL     OW54602   7.699   0.842   2.080  0.3027  0.3605 -0.4293
17920SOL    HW154603   7.687   0.818   2.172  1.1646  0.6302 -0.2294
17920SOL    HW254604   7.669   0.933   2.075 -2.0727 -0.3987 -0.9794
17921SOL     OW54605   7.542   7.295   4.395  0.1568  0.0120  0.2225
17921SOL    HW154606   7.575   7.380   4.425 -2.3425  1.4135 -0.7241
17921SOL    HW254607   7.502   7.313   4.310 -0.3547 -2.1492 -0.0556
17922SOL     OW54608   5.893   6.538   6.733 -0.4775 -0.4130 -0.0763
17922SOL    HW154609   5.857   6.474   6.672 -3.1414 -0.9931  1.9502
17922SOL    HW254610   5.826   6.548   6.801  1.0962  2.3601  1.2477
17923SOL     OW54611   4.896   3.286   7.891  0.0607  0.0144 -0.3897
17923SOL    HW154612   4.912   3.251   7.804 -0.3791 -0.4234 -0.3039
17923SOL    HW254613   4.920   3.378   7.886  0.8418 -0.1963 -0.7428
17924SOL     OW54614   1.803   7.412   6.474  0.2730  0.0716 -0.8900
17924SOL    HW154615   1.826   7.324   6.504  0.5630  0.6804  0.7637
17924SOL    HW254616   1.752   7.397   6.395 -0.5743 -1.6352 -0.0863
17925SOL     OW54617   3.797   1.635   1.082  0.0835  0.3081 -0.0525
17925SOL    HW154618   3.799   1.540   1.068 -0.4162  0.4450 -1.1403
17925SOL    HW254619   3.744   1.646   1.161 -2.3559 -0.1823 -1.5230
17926SOL     OW54620   3.752   6.672   4.686  0.5703  0.3566 -0.2386
17926SOL    HW154621   3.724   6.730   4.756  0.1538  0.4483 -0.4726
17926SOL    HW254622   3.699   6.593   4.698 -0.1036  0.6894 -0.9291
17927SOL     OW54623   0.245   3.649   3.037 -0.2014 -0.3257 -0.5304
17927SOL    HW154624   0.207   3.692   2.961  0.8312  0.0551 -0.8523
17927SOL    HW254625   0.303   3.715   3.075 -0.7467 -0.4864  0.6377
17928SOL     OW54626   6.791   3.093   5.068 -0.1958 -0.1836 -0.4743
17928SOL    HW154627   6.736   3.062   4.995  2.5827 -1.0342 -2.3871
17928SOL    HW254628   6.775   3.187   5.072 -0.5927 -0.1500 -2.0906
17929SOL     OW54629   6.127   1.920   5.006  0.3628  0.0891 -0.0464
17929SOL    HW154630   6.199   1.862   5.032 -0.1949 -0.3385  0.5612
17929SOL    HW254631   6.097   1.884   4.922  0.9412  0.3497 -0.3692
17930SOL     OW54632   7.083   5.479   8.150 -0.1146 -0.1431 -0.2204
17930SOL    HW154633   7.030   5.419   8.202  0.1361 -1.0065 -0.9256
17930SOL    HW254634   7.024   5.551   8.129 -0.4923 -0.2472  0.4522
17931SOL     OW54635   5.936   3.174   2.927 -0.0560  0.3210 -0.6129
17931SOL    HW154636   5.946   3.268   2.909  1.3934  0.1029 -1.0904
17931SOL    HW254637   5.916   3.135   2.841 -1.7294  0.2814 -0.2534
17932SOL     OW54638   1.100   1.957   4.274  0.5626 -0.0509 -0.1216
17932SOL    HW154639   1.041   2.014   4.323  0.5653 -0.6597  0.6105
17932SOL    HW254640   1.065   1.869   4.288  0.7577 -0.2670 -0.9557
17933SOL     OW54641   1.291   0.219   4.864  0.0597 -0.3141  0.4123
17933SOL    HW154642   1.262   0.161   4.935 -1.3209 -1.4010 -0.9665
17933SOL    HW254643   1.356   0.168   4.816 -1.8885 -1.2637 -1.4126
17934SOL     OW54644   6.868   2.422   5.571  0.1021 -0.0579 -0.8744
17934SOL    HW154645   6.916   2.412   5.653 -1.3621  0.6432  0.1237
17934SOL    HW254646   6.935   2.416   5.502  1.3419 -0.8042  0.3541
17935SOL     OW54647   4.515   8.162   6.607  0.2538  0.2001 -0.0339
17935SOL    HW154648   4.525   8.119   6.692  0.9637  1.0208  0.3232
17935SOL    HW254649   4.471   8.245   6.627 -0.1244  0.1249 -0.5491
17936SOL     OW54650   2.311   5.693   6.095 -0.4762 -0.1947 -0.1743
17936SOL    HW154651   2.305   5.766   6.156  0.6800  3.2848 -3.8151
17936SOL    HW254652   2.230   5.696   6.045  0.8030  0.8083 -2.3877
17937SOL     OW54653   7.008   1.250   7.937 -0.3181 -0.1851 -0.2938
17937SOL    HW154654   6.958   1.310   7.992  0.7594  0.7709 -0.3232
17937SOL    HW254655   7.083   1.225   7.991  0.4711  0.3473 -1.1190
17938SOL     OW54656   0.413   0.965   4.972  0.1746 -0.1293  0.4518
17938SOL    HW154657   0.432   1.049   5.013  0.9455  0.1216 -0.3770
17938SOL    HW254658   0.317   0.956   4.977 -0.0722  1.4479 -0.6479
17939SOL     OW54659   4.854   7.575   2.426  0.0212 -0.2079  0.1801
17939SOL    HW154660   4.835   7.502   2.366 -1.1115 -1.1406  1.5913
17939SOL    HW254661   4.843   7.537   2.513  0.4257  1.4127  0.9705
17940SOL     OW54662   5.157   3.833   3.386 -0.0977 -0.2914 -0.3116
17940SOL    HW154663   5.108   3.872   3.458  1.3637 -2.2654  1.8889
17940SOL    HW254664   5.236   3.885   3.379 -0.1725 -0.1881 -0.3841
17941SOL     OW54665   3.227   5.812   5.275  0.9949  0.2997 -0.0001
17941SOL    HW154666   3.142   5.839   5.311  0.4622 -0.5304 -0.6170
17941SOL    HW254667   3.238   5.721   5.303  0.2228 -0.6232 -2.4732
17942SOL     OW54668   4.688   4.314   2.500 -0.2566 -0.3567 -0.2343
17942SOL    HW154669   4.673   4.391   2.555  2.1307  0.2628 -0.3602
17942SOL    HW254670   4.677   4.240   2.559 -0.7389  0.1622  0.3341
17943SOL     OW54671   3.734   6.027   4.822  0.1353  0.4102  0.4344
17943SOL    HW154672   3.701   5.951   4.869 -2.7431  0.3442 -1.4668
17943SOL    HW254673   3.662   6.091   4.826  1.3439  1.9129 -0.5006
17944SOL     OW54674   2.992   2.248   6.514 -0.2517 -0.1911  0.0673
17944SOL    HW154675   3.037   2.163   6.523 -1.3263 -1.2547 -3.1038
17944SOL    HW254676   2.956   2.265   6.601 -0.1264 -3.0760  0.8027
17945SOL     OW54677   3.711   4.568   1.137  0.1087  0.6976  0.5639
17945SOL    HW154678   3.676   4.617   1.063 -0.0584 -1.7386 -1.0918
17945SOL    HW254679   3.797   4.539   1.108  0.0275 -0.3217  1.2737
17946SOL     OW54680   0.316   4.343   6.574  0.6517 -0.0749  0.7122
17946SOL    HW154681   0.377   4.294   6.519 -0.0429 -0.1713 -0.0016
17946SOL    HW254682   0.243   4.283   6.588  0.1010  0.5085  0.3960
17947SOL     OW54683   5.805   4.775   7.790 -0.7468  0.7171  0.6321
17947SOL    HW154684   5.790   4.802   7.881 -3.0131  1.1861  0.1726
17947SOL    HW254685   5.734   4.715   7.770 -1.9001  2.6563 -1.6109
17948SOL     OW54686   1.821   4.654   2.392  0.2950 -0.4193 -0.2675
17948SOL    HW154687   1.803   4.685   2.481  0.6742 -1.7442  0.3004
17948SOL    HW254688   1.750   4.691   2.339  0.4497  0.9617  0.4314
17949SOL     OW54689   1.823   3.135   1.683  0.3814 -0.0426  0.1184
17949SOL    HW154690   1.798   3.200   1.617 -1.9694 -0.6981  0.2852
17949SOL    HW254691   1.906   3.099   1.651 -0.2448  0.2657 -2.0419
17950SOL     OW54692   6.369   6.796   6.570 -0.7574 -1.1140 -0.1281
17950SOL    HW154693   6.305   6.794   6.499  0.0744  2.0755 -1.1121
17950SOL    HW254694   6.315   6.794   6.650 -1.7752 -3.1068 -0.7897
17951SOL     OW54695   4.552   4.419   7.869  0.6009  0.0016 -0.2831
17951SOL    HW154696   4.539   4.477   7.944  0.1924 -1.6561  0.9879
17951SOL    HW254697   4.646   4.426   7.850  1.0815 -0.8401  1.5418
17952SOL     OW54698   2.031   5.444   3.713 -0.1878 -0.1514  0.1955
17952SOL    HW154699   1.946   5.487   3.704  1.0587  2.2846 -1.2970
17952SOL    HW254700   2.020   5.360   3.670 -2.6360 -1.3543  2.8374
17953SOL     OW54701   6.225   2.160   0.230  0.4471 -0.2095 -0.2459
17953SOL    HW154702   6.202   2.226   0.295  0.0145 -0.4273 -0.1773
17953SOL    HW254703   6.242   2.210   0.150 -0.7620 -0.0797 -0.4360
17954SOL     OW54704   7.697   2.652   5.852  0.0574 -0.2524  0.3350
17954SOL    HW154705   7.687   2.733   5.902 -0.6316 -1.4237  2.2143
17954SOL    HW254706   7.777   2.665   5.801  0.1206  1.4859  0.8025
17955SOL     OW54707   5.188   1.578   3.901  0.5398 -0.0461 -0.4853
17955SOL    HW154708   5.191   1.567   3.806 -0.7395 -0.9781 -0.4392
17955SOL    HW254709   5.095   1.574   3.922  0.4750  3.3338  0.4785
17956SOL     OW54710   7.514   1.257   4.202  1.1524  0.2803 -0.0004
17956SOL    HW154711   7.481   1.343   4.226  1.3439  0.8074 -1.4931
17956SOL    HW254712   7.540   1.266   4.110  1.2485 -1.3497 -0.1690
17957SOL     OW54713   6.225   4.275   4.888 -0.3060 -0.8384 -0.7276
17957SOL    HW154714   6.163   4.328   4.838  0.1678 -0.4790 -0.9435
17957SOL    HW254715   6.191   4.186   4.883 -0.8470 -0.6319 -0.7747
17958SOL     OW54716   7.421   4.467   6.064 -0.0672  0.2590 -0.1811
17958SOL    HW154717   7.507   4.507   6.072 -0.3563  1.4076 -2.1545
17958SOL    HW254718   7.436   4.386   6.016  0.0627 -0.2240  0.6590
17959SOL     OW54719   5.057   4.615   2.528  0.5531 -0.1993 -0.2660
17959SOL    HW154720   5.151   4.607   2.543  0.6599  2.1009  0.7937
17959SOL    HW254721   5.017   4.576   2.606  0.6662 -0.0974 -0.1574
17960SOL     OW54722   4.459   4.411   4.259 -0.4990  0.1004  0.1782
17960SOL    HW154723   4.366   4.398   4.244 -0.6778  0.7351  0.6782
17960SOL    HW254724   4.496   4.426   4.172 -1.0906  1.1775  0.0994
17961SOL     OW54725   6.394   6.535   5.562 -0.0240 -0.2096  0.1184
17961SOL    HW154726   6.337   6.612   5.554  0.2870 -0.0047 -0.1704
17961SOL    HW254727   6.480   6.571   5.586  0.4619 -0.3348 -1.3162
17962SOL     OW54728   7.085   2.879   1.816 -0.1257  0.1324  0.3087
17962SOL    HW154729   7.039   2.818   1.759  0.3419 -1.7671  1.8721
17962SOL    HW254730   7.019   2.947   1.836 -0.6027  0.2809 -1.5624
17963SOL     OW54731   3.738   5.534   0.332 -0.0895 -0.6608 -0.4612
17963SOL    HW154732   3.829   5.508   0.325  0.0100 -0.0416 -1.9163
17963SOL    HW254733   3.741   5.629   0.340 -0.6216 -0.4190 -2.5395
17964NA      NA54734   3.924   4.500   6.605 -0.4005  0.1412  0.2867
17965NA      NA54735   7.523   2.377   1.350 -0.0517 -0.2880 -0.3132
17966NA      NA54736   3.113   3.479   6.492  0.5760  0.3754 -0.1022
17967NA      NA54737   2.134   3.383   1.890  0.1810  0.1277  0.1426
17968NA      NA54738   2.295   6.546   3.882  0.1504  0.3218 -0.2645
17969NA      NA54739   4.328   3.641   7.608  0.3855 -0.1476  0.0836
17970NA      NA54740   6.344   1.921   6.505  0.3714 -0.0610  0.0065
17971NA      NA54741   5.958   2.979   1.421 -0.0460 -0.2347  0.1692
17972NA      NA54742   4.870   1.023   7.873 -0.0899 -0.1753  0.1717
17973NA      NA54743   3.749   1.405   2.962 -0.2663  0.4375  0.5238
17974NA      NA54744   5.509   2.190   3.122 -0.0648  0.2445  0.0653
17975NA      NA54745   2.312   3.176   8.080  0.4577 -0.2904  0.5140
17976NA      NA54746   4.391   4.161   0.443 -0.1512  0.2752 -0.4895
17977NA      NA54747   5.648   7.280   3.410  0.1666 -0.2439  0.2391
17978NA      NA54748   2.542   4.885   2.138  0.1521 -0.1175  1.1649
17979NA      NA54749   6.146   5.350   4.737  0.1024  0.3808  0.0995
17980NA      NA54750   3.230   1.076   4.137 -0.1586  0.0928 -0.1059
17981NA      NA54751   3.960   2.471   0.760 -0.3312 -0.1189 -0.0137
17982NA      NA54752   3.269   2.865   6.264 -0.4066 -0.2959 -0.1163
17983NA      NA54753   4.975   2.427   3.129  0.5832 -0.1338  0.2059
17984NA      NA54754   4.799   2.451   6.050  0.3807  0.2099  0.7984
17985NA      NA54755   3.339   1.620   1.250  0.0039 -0.1524  0.0463
17986NA      NA54756   2.140   4.419   6.707  0.6423  0.0905  0.3085
17987NA      NA54757   4.968   7.184   4.058  0.5288 -0.3957 -0.4554
17988NA      NA54758   6.205   7.386   4.912  0.6238 -0.4257 -0.2867
17989NA      NA54759   4.901   3.640   7.405  0.3733 -0.3555  0.6557
17990NA      NA54760   6.089   4.390   7.948  0.2813 -0.2684  0.0996
17991NA      NA54761   8.022   7.255   2.241 -0.0565  0.0361  0.2154
17992NA      NA54762   7.793   0.771   7.485 -0.0463 -0.1129 -0.3886
17993NA      NA54763   3.230   6.842   7.391  0.0234 -0.4085  0.5786
17994NA      NA54764   6.639   4.011   3.478  0.1424 -0.5065 -0.3289
17995NA      NA54765   5.864   7.553   0.282 -0.8047  0.0439 -0.1127
17996NA      NA54766   6.211   4.565   0.369  0.0903  0.0713 -0.3663
17997NA      NA54767   6.815   4.247   1.663  0.0717 -0.3625  0.0437
17998NA      NA54768   6.335   8.211   2.865  0.0298  0.0068 -0.0144
17999NA      NA54769   4.093   0.934   5.928  0.1533  0.2385 -0.6590
18000NA      NA54770   5.956   8.140   4.916 -0.1714  0.0232 -0.2091
18001NA      NA54771   1.092   2.994   7.884 -0.3238 -0.3504 -0.2273
18002NA      NA54772   2.004   6.894   4.509  0.2092  0.0096 -0.2614
18003NA      NA54773   5.366   8.182   7.720  0.1372 -0.4999  0.0905
18004NA      NA54774   5.619   4.825   5.487  0.1030  0.0747  0.4745
18005NA      NA54775   6.938   3.761   3.071  0.0007  0.3050 -0.7375
18006NA      NA54776   6.437   0.397   7.846  0.0799 -0.1495 -0.2414
18007NA      NA54777   1.628   0.155   5.912  0.1240  0.7125  0.0831
18008NA      NA54778   5.963   6.250   3.977 -0.1321  0.6645 -0.2403
18009NA      NA54779   3.854   7.152   1.778 -0.2591 -0.0648 -0.1307
18010NA      NA54780   2.026   0.672   3.247  0.0660  0.1043 -0.6626
18011NA      NA54781   3.642   3.409   7.795  1.1939 -0.3826  0.0346
18012NA      NA54782   4.475   2.833   2.565  0.0863  0.4377  0.3338
18013NA      NA54783   0.492   0.122   0.855 -0.0560  0.4961 -0.5560
18014NA      NA54784   1.059   5.971   1.848 -0.2802  0.2361 -0.1188
18015CL      CL54785   7.031   3.891   7.083 -0.2177 -0.0585  0.0214
18016CL      CL54786   6.183   3.475   1.439  0.1827  0.2886 -0.3569
18017CL      CL54787   5.962   6.517   3.271 -0.2161 -0.0074  0.1269
18018CL      CL54788   5.599   3.236   5.521 -0.1158 -0.2325  0.1258
18019CL      CL54789   7.346   2.360   7.127 -0.2115 -0.2769  0.3934
18020CL      CL54790   5.930   4.760   2.863 -0.2749  0.0180 -0.0018
18021CL      CL54791   2.869   7.427   7.731 -0.4818  0.2419 -0.0496
18022CL      CL54792   5.063   2.194   3.074 -0.1291 -0.2433 -0.1672
18023CL      CL54793   7.111   7.433   6.391  0.1829  0.6744  0.0983
18024CL      CL54794   5.516   4.525   2.790 -0.2987 -0.3204 -0.0367
18025CL      CL54795   3.333   0.572   3.993  0.4118 -0.0313 -0.2002
18026CL      CL54796   3.376   3.665   0.153 -0.4902 -0.3142  0.3253
18027CL      CL54797   6.831   2.839   2.703  0.1251 -0.2936 -0.7242
18028CL      CL54798   1.475   6.176   7.093 -0.0578 -0.0599 -0.0975
18029CL      CL54799   0.936   0.032   6.225 -0.0940  0.2201 -0.1231
18030CL      CL54800   6.039   6.098   6.688  0.0930  0.3737 -0.1159
18031CL      CL54801   1.328   5.302   7.819  0.2064  0.4052 -0.3256
18032CL      CL54802   3.552   3.749   4.663  0.4572  0.1764 -0.0930
18033CL      CL54803   5.213   3.195   7.007 -0.4311  0.2159  0.3142
18034CL      CL54804   5.758   7.667   2.123  0.1379 -0.3927  0.1925
18035CL      CL54805   1.701   3.554   6.071 -0.3870  0.2127  0.5253
18036CL      CL54806   7.804   8.028   3.770 -0.0140  0.0642 -0.0651
18037CL      CL54807   8.194   4.776   5.779  0.0649  0.2403 -0.3003
18038CL      CL54808   5.059   3.095   0.650  0.0802 -0.1763 -0.0497
18039CL      CL54809   5.217   7.662   3.374  0.1642 -0.1494 -0.2793
18040CL      CL54810   8.042   0.331   7.413 -0.0189 -0.3212  0.1576
18041CL      CL54811   6.731   5.702   5.238 -0.0946  0.6326 -0.0953
18042CL      CL54812   7.134   3.859   5.064  0.0274  0.0004  0.0114
18043CL      CL54813   0.856   7.592   0.067  0.0523 -0.0330 -0.1104
18044CL      CL54814   6.131   3.079   1.911 -0.1430 -0.1415 -0.2291
18045CL      CL54815   7.757   4.444   5.015  0.2101 -0.4979  0.2842
18046CL      CL54816   1.033   7.772   7.160 -0.1870  0.0114 -0.0249
18047CL      CL54817   1.829   3.236   7.958 -0.0054 -0.0044 -0.2227
18048CL      CL54818   4.611   3.704   7.958  0.3328 -0.4433  0.0054
18049CL      CL54819   0.798   4.860   6.486 -0.4208  0.6343 -0.1163
18050CL      CL54820   7.483   0.155   2.248  0.0289 -0.0444  0.6951
18051CL      CL54821   6.020   7.836   8.160 -0.2762 -0.1903  0.2979
18052CL      CL54822   0.161   3.823   7.229  0.0700 -0.1504  0.3403
18053CL      CL54823   0.028   1.975   1.713 -0.3753 -0.4667  0.4344
18054CL      CL54824   0.216   3.201   7.708  0.2022 -0.0826  0.0440
18055CL      CL54825   0.445   6.282   0.417  0.2308  0.1173  0.2573
18056CL      CL54826   5.779   4.916   6.025 -0.4754  0.3796 -0.3839
18057CL      CL54827   0.846   5.117   5.777 -0.2134  0.0435  0.1815
18058CL      CL54828   4.015   5.383   0.333 -0.0964  0.2343 -0.0842
18059CL      CL54829   5.258   6.818   6.631  0.6090 -0.1859 -0.0439
18060CL      CL54830   3.837   1.897   0.505  0.3062  0.4225 -0.1258
18061CL      CL54831   3.773   1.704   7.870  0.2822 -0.0425 -0.0024
18062CL      CL54832   2.764   6.329   7.142 -0.0384  0.0030  0.1437
18063CL      CL54833   0.095   6.945   4.249  0.3746 -0.4685  0.5663
18064CL      CL54834   3.256   0.254   0.575  0.1106  0.5061 -0.2163
18065CL      CL54835   7.591   3.996   1.055 -0.1196  0.1901  0.0832
18066CL      CL54836   4.815   4.220   6.886  0.2835  0.1301 -0.2667
18067CL      CL54837   1.939   3.852   1.407  0.0721 -0.4672 -0.0636
18068CL      CL54838   3.373   5.084   6.433  0.0647  0.1421 -0.3160
18069CL      CL54839   7.474   5.849   5.787  0.1812  0.0056  0.4404
18070CL      CL54840   0.622   6.905   6.674 -0.0168  0.2463  0.3767
18071CL      CL54841   2.116   2.627   4.212 -0.7571 -0.1968 -0.5442
18072CL      CL54842   0.550   7.525   0.855 -0.1890  0.0304 -0.1760
18073CL      CL54843   1.372   8.217   7.628 -0.4865 -0.1074 -0.2032
18074CL      CL54844   4.771   1.740   4.408  0.1898 -0.0441  0.0761
18075CL      CL54845   1.384   2.347   7.217 -0.0859 -0.1497 -0.0995
18076CL      CL54846   0.652   5.593   7.739 -0.4092  0.0935  0.1930
18077CL      CL54847   1.725   1.482   3.460 -0.0374  0.5335  0.6988
18078CL      CL54848   1.846   5.019   3.304 -0.3436  0.0275  0.0148
18079CL      CL54849   3.789   6.894   2.782  0.0806  0.1709  0.2428
18080CL      CL54850   2.696   3.242   1.203 -0.0994 -0.1038 -0.0060
18081CL      CL54851   0.780   3.233   1.215 -0.4884 -0.0105 -0.2736
18082CL      CL54852   6.055   5.012   8.101  0.6904  0.0133 -0.0117
18083CL      CL54853   0.232   0.189   1.462  0.1316 -0.0973 -0.1117
18084CL      CL54854   6.333   2.062   5.358  0.3014  0.1615  0.3365
18085CL      CL54855   1.370   6.385   0.311  0.0496  0.2449 -0.2410
18086CL      CL54856   6.621   2.546   7.432 -0.1961  0.2964  0.1259
18087CL      CL54857   0.386   6.595   1.042  0.1935  0.3548 -0.3021
18088CL      CL54858   5.811   4.922   4.823 -0.3193  0.4212 -0.3979
18089CL      CL54859   0.053   5.905   6.398  0.1220 -0.0486 -0.5151
18090CL      CL54860   2.490   4.840   6.774 -0.1759 -0.0370  0.1853
18091CL      CL54861   0.225   4.172   0.762 -0.3684  0.1216  0.2110
18092CL      CL54862   2.734   6.512   0.607  0.0454  0.2206  0.0418
18093CL      CL54863   4.135   2.956   6.290 -0.0960  0.0233 -0.0146
18094CL      CL54864   5.820   7.612   4.680 -0.2905  0.1959 -0.1881
18095CL      CL54865   0.965   5.639   2.666 -0.1035  0.2877 -0.1439
   8.21976   8.21976   8.21976
