;
;   File g1.5Ocore_cooh_petim.itp  was generated
;   By user: sairam (1000)
;   On host: sairam
;   At date: Mon. April  1 12:21:10 2024
;
;   This is a standalone topology file
;
;   Created by:
;   ParmEd:       amb2gro_top_gro.py, VERSION 3.4.1
;   Executable:   amb2gro_top_gro.py
;   Library dir:  /usr/local/gromacs/share/gromacs/top
;   Command line:
;     ./amb2gro_top_gro.py -p g1.5Ocore_cooh_petim.prmtop -c g1.5Ocore_cooh_petim.inpcrd -t g1.5Ocore_cooh_petim.itp -g g1.5Ocore_cooh_petim.gro -b g1.5Ocore_cooh_petim.pdb
;

;[ defaults ]
;; nbfunc        comb-rule       gen-pairs       fudgeLJ fudgeQQ
;1               2               yes             0.5          0.83333333  
;
;[ atomtypes ]
;; name    at.num    mass    charge ptype  sigma      epsilon
;os             8  16.000000  0.00000000  A     0.30000123        0.71128
;c3             6  12.010000  0.00000000  A     0.33996695      0.4577296
;h1             1   1.008000  0.00000000  A      0.2471353      0.0656888
;hc             1   1.008000  0.00000000  A     0.26495328      0.0656888
;n3             7  14.010000  0.00000000  A     0.32499985        0.71128
;c              6  12.010000  0.00000000  A     0.33996695       0.359824
;o              8  16.000000  0.00000000  A     0.29599219        0.87864
;oh             8  16.000000  0.00000000  A     0.30664734      0.8803136
;ho             1   1.008000  0.00000000  A              0              0


[ moleculetype ]
; Name            nrexcl
g1.5Ocore_cooh_petim          3

[ atoms ]
;   nr       type  resnr residue  atom   cgnr    charge       mass  typeB    chargeB      massB
; residue    1 aaa rtp aaa q -0.0
    1         os      1    aaa     O1      1 -0.43807400  16.000000   ; qtot -0.438074
    2         c3      1    aaa     C1      2 0.04509800  12.010000   ; qtot -0.392976
    3         h1      1    aaa     H1      3 0.04771700   1.008000   ; qtot -0.345259
    4         h1      1    aaa     H2      4 0.04771700   1.008000   ; qtot -0.297542
    5         c3      1    aaa     C2      5 0.04509800  12.010000   ; qtot -0.252444
    6         h1      1    aaa     H3      6 0.04771700   1.008000   ; qtot -0.204727
    7         h1      1    aaa     H4      7 0.04771700   1.008000   ; qtot -0.157010
    8         c3      1    aaa     C3      8 0.05658600  12.010000   ; qtot -0.100424
    9         hc      1    aaa     H5      9 0.04933800   1.008000   ; qtot -0.051086
   10         hc      1    aaa     H6     10 0.04933800   1.008000   ; qtot -0.001748
   11         c3      1    aaa     C4     11 0.05658600  12.010000   ; qtot 0.054838
   12         hc      1    aaa     H7     12 0.04933800   1.008000   ; qtot 0.104176
   13         hc      1    aaa     H8     13 0.04933800   1.008000   ; qtot 0.153514
   14         c3      1    aaa     C5     14 0.00989700  12.010000   ; qtot 0.163411
   15         h1      1    aaa     H9     15 0.04845500   1.008000   ; qtot 0.211866
   16         h1      1    aaa    H10     16 0.04845500   1.008000   ; qtot 0.260321
   17         c3      1    aaa     C6     17 0.00989700  12.010000   ; qtot 0.270218
   18         h1      1    aaa    H11     18 0.04845500   1.008000   ; qtot 0.318673
   19         h1      1    aaa    H12     19 0.04845500   1.008000   ; qtot 0.367128
   20         n3      1    aaa     N1     20 -0.59936800  14.010000   ; qtot -0.232240
   21         n3      1    aaa     N2     21 -0.59936800  14.010000   ; qtot -0.831608
   22         c3      1    aaa     C7     22 0.08030200  12.010000   ; qtot -0.751306
   23         h1      1    aaa    H13     23 0.05071600   1.008000   ; qtot -0.700590
   24         h1      1    aaa    H14     24 0.05071600   1.008000   ; qtot -0.649874
   25         c3      1    aaa     C8     25 0.08030200  12.010000   ; qtot -0.569572
   26         h1      1    aaa    H15     26 0.05071600   1.008000   ; qtot -0.518856
   27         h1      1    aaa    H16     27 0.05071600   1.008000   ; qtot -0.468140
   28         c3      1    aaa     C9     28 0.08030200  12.010000   ; qtot -0.387838
   29         h1      1    aaa    H17     29 0.05071600   1.008000   ; qtot -0.337122
   30         h1      1    aaa    H18     30 0.05071600   1.008000   ; qtot -0.286406
   31         c3      1    aaa    C10     31 0.08030200  12.010000   ; qtot -0.206104
   32         h1      1    aaa    H19     32 0.05071600   1.008000   ; qtot -0.155388
   33         h1      1    aaa    H20     33 0.05071600   1.008000   ; qtot -0.104672
   34         c3      1    aaa    C11     34 0.10287800  12.010000   ; qtot -0.001794
   35         hc      1    aaa    H21     35 0.06787400   1.008000   ; qtot 0.066080
   36         hc      1    aaa    H22     36 0.06787400   1.008000   ; qtot 0.133954
   37         c3      1    aaa    C12     37 0.10287800  12.010000   ; qtot 0.236832
   38         hc      1    aaa    H23     38 0.06787400   1.008000   ; qtot 0.304706
   39         hc      1    aaa    H24     39 0.06787400   1.008000   ; qtot 0.372580
   40         c3      1    aaa    C13     40 0.10287800  12.010000   ; qtot 0.475458
   41         hc      1    aaa    H25     41 0.06787400   1.008000   ; qtot 0.543332
   42         hc      1    aaa    H26     42 0.06787400   1.008000   ; qtot 0.611206
   43         c3      1    aaa    C14     43 0.10287800  12.010000   ; qtot 0.714084
   44         hc      1    aaa    H27     44 0.06787400   1.008000   ; qtot 0.781958
   45         hc      1    aaa    H28     45 0.06787400   1.008000   ; qtot 0.849832
   46         c3      1    aaa    C15     46 -0.72585200  12.010000   ; qtot 0.123980
   47         h1      1    aaa    H29     47 0.25669700   1.008000   ; qtot 0.380677
   48         h1      1    aaa    H30     48 0.25669700   1.008000   ; qtot 0.637374
   49         c3      1    aaa    C16     49 -0.72585200  12.010000   ; qtot -0.088478
   50         h1      1    aaa    H31     50 0.25669700   1.008000   ; qtot 0.168219
   51         h1      1    aaa    H32     51 0.25669700   1.008000   ; qtot 0.424916
   52         c3      1    aaa    C17     52 -0.72585200  12.010000   ; qtot -0.300936
   53         h1      1    aaa    H33     53 0.25669700   1.008000   ; qtot -0.044239
   54         h1      1    aaa    H34     54 0.25669700   1.008000   ; qtot 0.212458
   55         c3      1    aaa    C18     55 -0.72585200  12.010000   ; qtot -0.513394
   56         h1      1    aaa    H35     56 0.25669700   1.008000   ; qtot -0.256697
   57         h1      1    aaa    H36     57 0.25669700   1.008000   ; qtot -0.000000
; residue    2 bbb rtp bbb q -0.0
   58         n3      2    bbb     N1     58 -0.59685800  14.010000   ; qtot -0.596858
   59         c3      2    bbb     C1     59 0.10137000  12.010000   ; qtot -0.495488
   60         h1      2    bbb     H1     60 0.04411300   1.008000   ; qtot -0.451375
   61         h1      2    bbb     H2     61 0.04411300   1.008000   ; qtot -0.407262
   62         c3      2    bbb     C2     62 0.10137000  12.010000   ; qtot -0.305892
   63         h1      2    bbb     H3     63 0.04411300   1.008000   ; qtot -0.261779
   64         h1      2    bbb     H4     64 0.04411300   1.008000   ; qtot -0.217666
   65         c3      2    bbb     C3     65 -0.00195300  12.010000   ; qtot -0.219619
   66         h1      2    bbb     H5     66 0.05064400   1.008000   ; qtot -0.168975
   67         h1      2    bbb     H6     67 0.05064400   1.008000   ; qtot -0.118331
   68         c3      2    bbb     C4     68 -0.01612100  12.010000   ; qtot -0.134452
   69         hc      2    bbb     H7     69 0.04936100   1.008000   ; qtot -0.085091
   70         hc      2    bbb     H8     70 0.04936100   1.008000   ; qtot -0.035730
   71         c3      2    bbb     C5     71 0.11363000  12.010000   ; qtot 0.077900
   72         hc      2    bbb     H9     72 0.06265900   1.008000   ; qtot 0.140559
   73         hc      2    bbb    H10     73 0.06265900   1.008000   ; qtot 0.203218
   74         c3      2    bbb     C6     74 0.11363000  12.010000   ; qtot 0.316848
   75         hc      2    bbb    H11     75 0.06265900   1.008000   ; qtot 0.379507
   76         hc      2    bbb    H12     76 0.06265900   1.008000   ; qtot 0.442166
   77         c3      2    bbb     C7     77 0.05858200  12.010000   ; qtot 0.500748
   78         h1      2    bbb    H13     78 0.06123400   1.008000   ; qtot 0.561982
   79         h1      2    bbb    H14     79 0.06123400   1.008000   ; qtot 0.623216
   80         c3      2    bbb     C8     80 -0.72423400  12.010000   ; qtot -0.101018
   81         h1      2    bbb    H15     81 0.25637600   1.008000   ; qtot 0.155358
   82         h1      2    bbb    H16     82 0.25637600   1.008000   ; qtot 0.411734
   83         c3      2    bbb     C9     83 -0.72423400  12.010000   ; qtot -0.312500
   84         h1      2    bbb    H17     84 0.25637600   1.008000   ; qtot -0.056124
   85         h1      2    bbb    H18     85 0.25637600   1.008000   ; qtot 0.200252
   86         os      2    bbb     O1     86 -0.20025300  16.000000   ; qtot -0.000001
; residue    3 bbb rtp bbb q -0.0
   87         n3      3    bbb     N1     87 -0.59685800  14.010000   ; qtot -0.596859
   88         c3      3    bbb     C1     88 0.10137000  12.010000   ; qtot -0.495489
   89         h1      3    bbb     H1     89 0.04411300   1.008000   ; qtot -0.451376
   90         h1      3    bbb     H2     90 0.04411300   1.008000   ; qtot -0.407263
   91         c3      3    bbb     C2     91 0.10137000  12.010000   ; qtot -0.305893
   92         h1      3    bbb     H3     92 0.04411300   1.008000   ; qtot -0.261780
   93         h1      3    bbb     H4     93 0.04411300   1.008000   ; qtot -0.217667
   94         c3      3    bbb     C3     94 -0.00195300  12.010000   ; qtot -0.219620
   95         h1      3    bbb     H5     95 0.05064400   1.008000   ; qtot -0.168976
   96         h1      3    bbb     H6     96 0.05064400   1.008000   ; qtot -0.118332
   97         c3      3    bbb     C4     97 -0.01612100  12.010000   ; qtot -0.134453
   98         hc      3    bbb     H7     98 0.04936100   1.008000   ; qtot -0.085092
   99         hc      3    bbb     H8     99 0.04936100   1.008000   ; qtot -0.035731
  100         c3      3    bbb     C5    100 0.11363000  12.010000   ; qtot 0.077899
  101         hc      3    bbb     H9    101 0.06265900   1.008000   ; qtot 0.140558
  102         hc      3    bbb    H10    102 0.06265900   1.008000   ; qtot 0.203217
  103         c3      3    bbb     C6    103 0.11363000  12.010000   ; qtot 0.316847
  104         hc      3    bbb    H11    104 0.06265900   1.008000   ; qtot 0.379506
  105         hc      3    bbb    H12    105 0.06265900   1.008000   ; qtot 0.442165
  106         c3      3    bbb     C7    106 0.05858200  12.010000   ; qtot 0.500747
  107         h1      3    bbb    H13    107 0.06123400   1.008000   ; qtot 0.561981
  108         h1      3    bbb    H14    108 0.06123400   1.008000   ; qtot 0.623215
  109         c3      3    bbb     C8    109 -0.72423400  12.010000   ; qtot -0.101019
  110         h1      3    bbb    H15    110 0.25637600   1.008000   ; qtot 0.155357
  111         h1      3    bbb    H16    111 0.25637600   1.008000   ; qtot 0.411733
  112         c3      3    bbb     C9    112 -0.72423400  12.010000   ; qtot -0.312501
  113         h1      3    bbb    H17    113 0.25637600   1.008000   ; qtot -0.056125
  114         h1      3    bbb    H18    114 0.25637600   1.008000   ; qtot 0.200251
  115         os      3    bbb     O1    115 -0.20025300  16.000000   ; qtot -0.000002
; residue    4 bbb rtp bbb q -0.0
  116         n3      4    bbb     N1    116 -0.59685800  14.010000   ; qtot -0.596860
  117         c3      4    bbb     C1    117 0.10137000  12.010000   ; qtot -0.495490
  118         h1      4    bbb     H1    118 0.04411300   1.008000   ; qtot -0.451377
  119         h1      4    bbb     H2    119 0.04411300   1.008000   ; qtot -0.407264
  120         c3      4    bbb     C2    120 0.10137000  12.010000   ; qtot -0.305894
  121         h1      4    bbb     H3    121 0.04411300   1.008000   ; qtot -0.261781
  122         h1      4    bbb     H4    122 0.04411300   1.008000   ; qtot -0.217668
  123         c3      4    bbb     C3    123 -0.00195300  12.010000   ; qtot -0.219621
  124         h1      4    bbb     H5    124 0.05064400   1.008000   ; qtot -0.168977
  125         h1      4    bbb     H6    125 0.05064400   1.008000   ; qtot -0.118333
  126         c3      4    bbb     C4    126 -0.01612100  12.010000   ; qtot -0.134454
  127         hc      4    bbb     H7    127 0.04936100   1.008000   ; qtot -0.085093
  128         hc      4    bbb     H8    128 0.04936100   1.008000   ; qtot -0.035732
  129         c3      4    bbb     C5    129 0.11363000  12.010000   ; qtot 0.077898
  130         hc      4    bbb     H9    130 0.06265900   1.008000   ; qtot 0.140557
  131         hc      4    bbb    H10    131 0.06265900   1.008000   ; qtot 0.203216
  132         c3      4    bbb     C6    132 0.11363000  12.010000   ; qtot 0.316846
  133         hc      4    bbb    H11    133 0.06265900   1.008000   ; qtot 0.379505
  134         hc      4    bbb    H12    134 0.06265900   1.008000   ; qtot 0.442164
  135         c3      4    bbb     C7    135 0.05858200  12.010000   ; qtot 0.500746
  136         h1      4    bbb    H13    136 0.06123400   1.008000   ; qtot 0.561980
  137         h1      4    bbb    H14    137 0.06123400   1.008000   ; qtot 0.623214
  138         c3      4    bbb     C8    138 -0.72423400  12.010000   ; qtot -0.101020
  139         h1      4    bbb    H15    139 0.25637600   1.008000   ; qtot 0.155356
  140         h1      4    bbb    H16    140 0.25637600   1.008000   ; qtot 0.411732
  141         c3      4    bbb     C9    141 -0.72423400  12.010000   ; qtot -0.312502
  142         h1      4    bbb    H17    142 0.25637600   1.008000   ; qtot -0.056126
  143         h1      4    bbb    H18    143 0.25637600   1.008000   ; qtot 0.200250
  144         os      4    bbb     O1    144 -0.20025300  16.000000   ; qtot -0.000003
; residue    5 bbb rtp bbb q -0.0
  145         n3      5    bbb     N1    145 -0.59685800  14.010000   ; qtot -0.596861
  146         c3      5    bbb     C1    146 0.10137000  12.010000   ; qtot -0.495491
  147         h1      5    bbb     H1    147 0.04411300   1.008000   ; qtot -0.451378
  148         h1      5    bbb     H2    148 0.04411300   1.008000   ; qtot -0.407265
  149         c3      5    bbb     C2    149 0.10137000  12.010000   ; qtot -0.305895
  150         h1      5    bbb     H3    150 0.04411300   1.008000   ; qtot -0.261782
  151         h1      5    bbb     H4    151 0.04411300   1.008000   ; qtot -0.217669
  152         c3      5    bbb     C3    152 -0.00195300  12.010000   ; qtot -0.219622
  153         h1      5    bbb     H5    153 0.05064400   1.008000   ; qtot -0.168978
  154         h1      5    bbb     H6    154 0.05064400   1.008000   ; qtot -0.118334
  155         c3      5    bbb     C4    155 -0.01612100  12.010000   ; qtot -0.134455
  156         hc      5    bbb     H7    156 0.04936100   1.008000   ; qtot -0.085094
  157         hc      5    bbb     H8    157 0.04936100   1.008000   ; qtot -0.035733
  158         c3      5    bbb     C5    158 0.11363000  12.010000   ; qtot 0.077897
  159         hc      5    bbb     H9    159 0.06265900   1.008000   ; qtot 0.140556
  160         hc      5    bbb    H10    160 0.06265900   1.008000   ; qtot 0.203215
  161         c3      5    bbb     C6    161 0.11363000  12.010000   ; qtot 0.316845
  162         hc      5    bbb    H11    162 0.06265900   1.008000   ; qtot 0.379504
  163         hc      5    bbb    H12    163 0.06265900   1.008000   ; qtot 0.442163
  164         c3      5    bbb     C7    164 0.05858200  12.010000   ; qtot 0.500745
  165         h1      5    bbb    H13    165 0.06123400   1.008000   ; qtot 0.561979
  166         h1      5    bbb    H14    166 0.06123400   1.008000   ; qtot 0.623213
  167         c3      5    bbb     C8    167 -0.72423400  12.010000   ; qtot -0.101021
  168         h1      5    bbb    H15    168 0.25637600   1.008000   ; qtot 0.155355
  169         h1      5    bbb    H16    169 0.25637600   1.008000   ; qtot 0.411731
  170         c3      5    bbb     C9    170 -0.72423400  12.010000   ; qtot -0.312503
  171         h1      5    bbb    H17    171 0.25637600   1.008000   ; qtot -0.056127
  172         h1      5    bbb    H18    172 0.25637600   1.008000   ; qtot 0.200249
  173         os      5    bbb     O1    173 -0.20025300  16.000000   ; qtot -0.000004
; residue    6 ccc rtp ccc q 0.0
  174         c3      6    ccc     C1    174 0.50749700  12.010000   ; qtot 0.507493
  175         h1      6    ccc     H1    175 -0.02808400   1.008000   ; qtot 0.479409
  176         h1      6    ccc     H2    176 -0.02808400   1.008000   ; qtot 0.451325
  177         c3      6    ccc     C2    177 -0.15486000  12.010000   ; qtot 0.296465
  178         hc      6    ccc     H3    178 0.10266400   1.008000   ; qtot 0.399129
  179         hc      6    ccc     H4    179 0.10266400   1.008000   ; qtot 0.501793
  180         c3      6    ccc     C3    180 -0.15693500  12.010000   ; qtot 0.344858
  181         h1      6    ccc     H5    181 0.08499200   1.008000   ; qtot 0.429850
  182         h1      6    ccc     H6    182 0.08499200   1.008000   ; qtot 0.514842
  183         n3      6    ccc     N1    183 -0.29948700  14.010000   ; qtot 0.215355
  184         c3      6    ccc     C4    184 -0.01321200  12.010000   ; qtot 0.202143
  185         h1      6    ccc     H7    185 0.08172200   1.008000   ; qtot 0.283865
  186         h1      6    ccc     H8    186 0.08172200   1.008000   ; qtot 0.365587
  187         c3      6    ccc     C5    187 -0.22180000  12.010000   ; qtot 0.143787
  188         hc      6    ccc     H9    188 0.09671800   1.008000   ; qtot 0.240505
  189         hc      6    ccc    H10    189 0.09671800   1.008000   ; qtot 0.337223
  190          c      6    ccc     C6    190 0.526324  12.010000   ; qtot 1.333750
  191          o      6    ccc     O1    191 -0.39142825  16.000000   ; qtot 0.637244
  192         oh      6    ccc     O2    192 -0.56822625  16.000000   ; qtot -0.203567
  193         ho      6    ccc    H11    193 0.4186155   1.008000   ; qtot 0.322508
  194         c3      6    ccc     C7    194 -0.01321200  12.010000   ; qtot 0.309296
  195         h1      6    ccc    H12    195 0.08172200   1.008000   ; qtot 0.391018
  196         h1      6    ccc    H13    196 0.08172200   1.008000   ; qtot 0.472740
  197         c3      6    ccc     C8    197 -0.22180000  12.010000   ; qtot 0.250940
  198         hc      6    ccc    H14    198 0.09671800   1.008000   ; qtot 0.347658
  199         hc      6    ccc    H15    199 0.09671800   1.008000   ; qtot 0.444376
  200          c      6    ccc     C9    200 0.526324  12.010000   ; qtot 1.440903
  201          o      6    ccc     O3    201 -0.39142825  16.000000   ; qtot 0.744397
  202         oh      6    ccc     O4    202 -0.56822625  16.000000   ; qtot -0.096414
  203         ho      6    ccc    H16    203 0.4186155   1.008000   ; qtot 0.429661
  204         os      6    ccc     O5    204 -0.42966500  16.000000   ; qtot -0.000004
; residue    7 ccc rtp ccc q 0.0
  205         c3      7    ccc     C1    205 0.50749700  12.010000   ; qtot 0.507493
  206         h1      7    ccc     H1    206 -0.02808400   1.008000   ; qtot 0.479409
  207         h1      7    ccc     H2    207 -0.02808400   1.008000   ; qtot 0.451325
  208         c3      7    ccc     C2    208 -0.15486000  12.010000   ; qtot 0.296465
  209         hc      7    ccc     H3    209 0.10266400   1.008000   ; qtot 0.399129
  210         hc      7    ccc     H4    210 0.10266400   1.008000   ; qtot 0.501793
  211         c3      7    ccc     C3    211 -0.15693500  12.010000   ; qtot 0.344858
  212         h1      7    ccc     H5    212 0.08499200   1.008000   ; qtot 0.429850
  213         h1      7    ccc     H6    213 0.08499200   1.008000   ; qtot 0.514842
  214         n3      7    ccc     N1    214 -0.29948700  14.010000   ; qtot 0.215355
  215         c3      7    ccc     C4    215 -0.01321200  12.010000   ; qtot 0.202143
  216         h1      7    ccc     H7    216 0.08172200   1.008000   ; qtot 0.283865
  217         h1      7    ccc     H8    217 0.08172200   1.008000   ; qtot 0.365587
  218         c3      7    ccc     C5    218 -0.22180000  12.010000   ; qtot 0.143787
  219         hc      7    ccc     H9    219 0.09671800   1.008000   ; qtot 0.240505
  220         hc      7    ccc    H10    220 0.09671800   1.008000   ; qtot 0.337223
  221          c      7    ccc     C6    221 0.526324  12.010000   ; qtot 1.333750
  222          o      7    ccc     O1    222 -0.39142825  16.000000   ; qtot 0.637244
  223         oh      7    ccc     O2    223 -0.56822625  16.000000   ; qtot -0.203567
  224         ho      7    ccc    H11    224 0.4186155   1.008000   ; qtot 0.322508
  225         c3      7    ccc     C7    225 -0.01321200  12.010000   ; qtot 0.309296
  226         h1      7    ccc    H12    226 0.08172200   1.008000   ; qtot 0.391018
  227         h1      7    ccc    H13    227 0.08172200   1.008000   ; qtot 0.472740
  228         c3      7    ccc     C8    228 -0.22180000  12.010000   ; qtot 0.250940
  229         hc      7    ccc    H14    229 0.09671800   1.008000   ; qtot 0.347658
  230         hc      7    ccc    H15    230 0.09671800   1.008000   ; qtot 0.444376
  231          c      7    ccc     C9    231 0.526324  12.010000   ; qtot 1.440903
  232          o      7    ccc     O3    232 -0.39142825  16.000000   ; qtot 0.744397
  233         oh      7    ccc     O4    233 -0.56822625  16.000000   ; qtot -0.096414
  234         ho      7    ccc    H16    234 0.4186155   1.008000   ; qtot 0.429661
  235         os      7    ccc     O5    235 -0.42966500  16.000000   ; qtot -0.000004
; residue    8 ccc rtp ccc q 0.0
  236         c3      8    ccc     C1    236 0.50749700  12.010000   ; qtot 0.507493
  237         h1      8    ccc     H1    237 -0.02808400   1.008000   ; qtot 0.479409
  238         h1      8    ccc     H2    238 -0.02808400   1.008000   ; qtot 0.451325
  239         c3      8    ccc     C2    239 -0.15486000  12.010000   ; qtot 0.296465
  240         hc      8    ccc     H3    240 0.10266400   1.008000   ; qtot 0.399129
  241         hc      8    ccc     H4    241 0.10266400   1.008000   ; qtot 0.501793
  242         c3      8    ccc     C3    242 -0.15693500  12.010000   ; qtot 0.344858
  243         h1      8    ccc     H5    243 0.08499200   1.008000   ; qtot 0.429850
  244         h1      8    ccc     H6    244 0.08499200   1.008000   ; qtot 0.514842
  245         n3      8    ccc     N1    245 -0.29948700  14.010000   ; qtot 0.215355
  246         c3      8    ccc     C4    246 -0.01321200  12.010000   ; qtot 0.202143
  247         h1      8    ccc     H7    247 0.08172200   1.008000   ; qtot 0.283865
  248         h1      8    ccc     H8    248 0.08172200   1.008000   ; qtot 0.365587
  249         c3      8    ccc     C5    249 -0.22180000  12.010000   ; qtot 0.143787
  250         hc      8    ccc     H9    250 0.09671800   1.008000   ; qtot 0.240505
  251         hc      8    ccc    H10    251 0.09671800   1.008000   ; qtot 0.337223
  252          c      8    ccc     C6    252 0.526324  12.010000   ; qtot 1.333750
  253          o      8    ccc     O1    253 -0.39142825  16.000000   ; qtot 0.637244
  254         oh      8    ccc     O2    254 -0.56822625  16.000000   ; qtot -0.203567
  255         ho      8    ccc    H11    255 0.4186155   1.008000   ; qtot 0.322508
  256         c3      8    ccc     C7    256 -0.01321200  12.010000   ; qtot 0.309296
  257         h1      8    ccc    H12    257 0.08172200   1.008000   ; qtot 0.391018
  258         h1      8    ccc    H13    258 0.08172200   1.008000   ; qtot 0.472740
  259         c3      8    ccc     C8    259 -0.22180000  12.010000   ; qtot 0.250940
  260         hc      8    ccc    H14    260 0.09671800   1.008000   ; qtot 0.347658
  261         hc      8    ccc    H15    261 0.09671800   1.008000   ; qtot 0.444376
  262          c      8    ccc     C9    262 0.526324  12.010000   ; qtot 1.440903
  263          o      8    ccc     O3    263 -0.39142825  16.000000   ; qtot 0.744397
  264         oh      8    ccc     O4    264 -0.56822625  16.000000   ; qtot -0.096414
  265         ho      8    ccc    H16    265 0.4186155   1.008000   ; qtot 0.429661
  266         os      8    ccc     O5    266 -0.42966500  16.000000   ; qtot -0.000004
; residue    9 ccc rtp ccc q 0.0
  267         c3      9    ccc     C1    267 0.50749700  12.010000   ; qtot 0.507493
  268         h1      9    ccc     H1    268 -0.02808400   1.008000   ; qtot 0.479409
  269         h1      9    ccc     H2    269 -0.02808400   1.008000   ; qtot 0.451325
  270         c3      9    ccc     C2    270 -0.15486000  12.010000   ; qtot 0.296465
  271         hc      9    ccc     H3    271 0.10266400   1.008000   ; qtot 0.399129
  272         hc      9    ccc     H4    272 0.10266400   1.008000   ; qtot 0.501793
  273         c3      9    ccc     C3    273 -0.15693500  12.010000   ; qtot 0.344858
  274         h1      9    ccc     H5    274 0.08499200   1.008000   ; qtot 0.429850
  275         h1      9    ccc     H6    275 0.08499200   1.008000   ; qtot 0.514842
  276         n3      9    ccc     N1    276 -0.29948700  14.010000   ; qtot 0.215355
  277         c3      9    ccc     C4    277 -0.01321200  12.010000   ; qtot 0.202143
  278         h1      9    ccc     H7    278 0.08172200   1.008000   ; qtot 0.283865
  279         h1      9    ccc     H8    279 0.08172200   1.008000   ; qtot 0.365587
  280         c3      9    ccc     C5    280 -0.22180000  12.010000   ; qtot 0.143787
  281         hc      9    ccc     H9    281 0.09671800   1.008000   ; qtot 0.240505
  282         hc      9    ccc    H10    282 0.09671800   1.008000   ; qtot 0.337223
  283          c      9    ccc     C6    283 0.526324  12.010000   ; qtot 1.333750
  284          o      9    ccc     O1    284 -0.39142825  16.000000   ; qtot 0.637244
  285         oh      9    ccc     O2    285 -0.56822625  16.000000   ; qtot -0.203567
  286         ho      9    ccc    H11    286 0.4186155   1.008000   ; qtot 0.322508
  287         c3      9    ccc     C7    287 -0.01321200  12.010000   ; qtot 0.309296
  288         h1      9    ccc    H12    288 0.08172200   1.008000   ; qtot 0.391018
  289         h1      9    ccc    H13    289 0.08172200   1.008000   ; qtot 0.472740
  290         c3      9    ccc     C8    290 -0.22180000  12.010000   ; qtot 0.250940
  291         hc      9    ccc    H14    291 0.09671800   1.008000   ; qtot 0.347658
  292         hc      9    ccc    H15    292 0.09671800   1.008000   ; qtot 0.444376
  293          c      9    ccc     C9    293 0.526324  12.010000   ; qtot 1.440903
  294          o      9    ccc     O3    294 -0.39142825  16.000000   ; qtot 0.744397
  295         oh      9    ccc     O4    295 -0.56822625  16.000000   ; qtot -0.096414
  296         ho      9    ccc    H16    296 0.4186155   1.008000   ; qtot 0.429661
  297         os      9    ccc     O5    297 -0.42966500  16.000000   ; qtot -0.000004
; residue   10 ccc rtp ccc q 0.0
  298         c3     10    ccc     C1    298 0.50749700  12.010000   ; qtot 0.507493
  299         h1     10    ccc     H1    299 -0.02808400   1.008000   ; qtot 0.479409
  300         h1     10    ccc     H2    300 -0.02808400   1.008000   ; qtot 0.451325
  301         c3     10    ccc     C2    301 -0.15486000  12.010000   ; qtot 0.296465
  302         hc     10    ccc     H3    302 0.10266400   1.008000   ; qtot 0.399129
  303         hc     10    ccc     H4    303 0.10266400   1.008000   ; qtot 0.501793
  304         c3     10    ccc     C3    304 -0.15693500  12.010000   ; qtot 0.344858
  305         h1     10    ccc     H5    305 0.08499200   1.008000   ; qtot 0.429850
  306         h1     10    ccc     H6    306 0.08499200   1.008000   ; qtot 0.514842
  307         n3     10    ccc     N1    307 -0.29948700  14.010000   ; qtot 0.215355
  308         c3     10    ccc     C4    308 -0.01321200  12.010000   ; qtot 0.202143
  309         h1     10    ccc     H7    309 0.08172200   1.008000   ; qtot 0.283865
  310         h1     10    ccc     H8    310 0.08172200   1.008000   ; qtot 0.365587
  311         c3     10    ccc     C5    311 -0.22180000  12.010000   ; qtot 0.143787
  312         hc     10    ccc     H9    312 0.09671800   1.008000   ; qtot 0.240505
  313         hc     10    ccc    H10    313 0.09671800   1.008000   ; qtot 0.337223
  314          c     10    ccc     C6    314 0.526324  12.010000   ; qtot 1.333750
  315          o     10    ccc     O1    315 -0.39142825  16.000000   ; qtot 0.637244
  316         oh     10    ccc     O2    316 -0.56822625  16.000000   ; qtot -0.203567
  317         ho     10    ccc    H11    317 0.4186155   1.008000   ; qtot 0.322508
  318         c3     10    ccc     C7    318 -0.01321200  12.010000   ; qtot 0.309296
  319         h1     10    ccc    H12    319 0.08172200   1.008000   ; qtot 0.391018
  320         h1     10    ccc    H13    320 0.08172200   1.008000   ; qtot 0.472740
  321         c3     10    ccc     C8    321 -0.22180000  12.010000   ; qtot 0.250940
  322         hc     10    ccc    H14    322 0.09671800   1.008000   ; qtot 0.347658
  323         hc     10    ccc    H15    323 0.09671800   1.008000   ; qtot 0.444376
  324          c     10    ccc     C9    324 0.526324  12.010000   ; qtot 1.440903
  325          o     10    ccc     O3    325 -0.39142825  16.000000   ; qtot 0.744397
  326         oh     10    ccc     O4    326 -0.56822625  16.000000   ; qtot -0.096414
  327         ho     10    ccc    H16    327 0.4186155   1.008000   ; qtot 0.429661
  328         os     10    ccc     O5    328 -0.42966500  16.000000   ; qtot -0.000004
; residue   11 ccc rtp ccc q 0.0
  329         c3     11    ccc     C1    329 0.50749700  12.010000   ; qtot 0.507493
  330         h1     11    ccc     H1    330 -0.02808400   1.008000   ; qtot 0.479409
  331         h1     11    ccc     H2    331 -0.02808400   1.008000   ; qtot 0.451325
  332         c3     11    ccc     C2    332 -0.15486000  12.010000   ; qtot 0.296465
  333         hc     11    ccc     H3    333 0.10266400   1.008000   ; qtot 0.399129
  334         hc     11    ccc     H4    334 0.10266400   1.008000   ; qtot 0.501793
  335         c3     11    ccc     C3    335 -0.15693500  12.010000   ; qtot 0.344858
  336         h1     11    ccc     H5    336 0.08499200   1.008000   ; qtot 0.429850
  337         h1     11    ccc     H6    337 0.08499200   1.008000   ; qtot 0.514842
  338         n3     11    ccc     N1    338 -0.29948700  14.010000   ; qtot 0.215355
  339         c3     11    ccc     C4    339 -0.01321200  12.010000   ; qtot 0.202143
  340         h1     11    ccc     H7    340 0.08172200   1.008000   ; qtot 0.283865
  341         h1     11    ccc     H8    341 0.08172200   1.008000   ; qtot 0.365587
  342         c3     11    ccc     C5    342 -0.22180000  12.010000   ; qtot 0.143787
  343         hc     11    ccc     H9    343 0.09671800   1.008000   ; qtot 0.240505
  344         hc     11    ccc    H10    344 0.09671800   1.008000   ; qtot 0.337223
  345          c     11    ccc     C6    345 0.526324  12.010000   ; qtot 1.333750
  346          o     11    ccc     O1    346 -0.39142825  16.000000   ; qtot 0.637244
  347         oh     11    ccc     O2    347 -0.56822625  16.000000   ; qtot -0.203567
  348         ho     11    ccc    H11    348 0.4186155   1.008000   ; qtot 0.322508
  349         c3     11    ccc     C7    349 -0.01321200  12.010000   ; qtot 0.309296
  350         h1     11    ccc    H12    350 0.08172200   1.008000   ; qtot 0.391018
  351         h1     11    ccc    H13    351 0.08172200   1.008000   ; qtot 0.472740
  352         c3     11    ccc     C8    352 -0.22180000  12.010000   ; qtot 0.250940
  353         hc     11    ccc    H14    353 0.09671800   1.008000   ; qtot 0.347658
  354         hc     11    ccc    H15    354 0.09671800   1.008000   ; qtot 0.444376
  355          c     11    ccc     C9    355 0.526324  12.010000   ; qtot 1.440903
  356          o     11    ccc     O3    356 -0.39142825  16.000000   ; qtot 0.744397
  357         oh     11    ccc     O4    357 -0.56822625  16.000000   ; qtot -0.096414
  358         ho     11    ccc    H16    358 0.4186155   1.008000   ; qtot 0.429661
  359         os     11    ccc     O5    359 -0.42966500  16.000000   ; qtot -0.000004
; residue   12 ccc rtp ccc q 0.0
  360         c3     12    ccc     C1    360 0.50749700  12.010000   ; qtot 0.507493
  361         h1     12    ccc     H1    361 -0.02808400   1.008000   ; qtot 0.479409
  362         h1     12    ccc     H2    362 -0.02808400   1.008000   ; qtot 0.451325
  363         c3     12    ccc     C2    363 -0.15486000  12.010000   ; qtot 0.296465
  364         hc     12    ccc     H3    364 0.10266400   1.008000   ; qtot 0.399129
  365         hc     12    ccc     H4    365 0.10266400   1.008000   ; qtot 0.501793
  366         c3     12    ccc     C3    366 -0.15693500  12.010000   ; qtot 0.344858
  367         h1     12    ccc     H5    367 0.08499200   1.008000   ; qtot 0.429850
  368         h1     12    ccc     H6    368 0.08499200   1.008000   ; qtot 0.514842
  369         n3     12    ccc     N1    369 -0.29948700  14.010000   ; qtot 0.215355
  370         c3     12    ccc     C4    370 -0.01321200  12.010000   ; qtot 0.202143
  371         h1     12    ccc     H7    371 0.08172200   1.008000   ; qtot 0.283865
  372         h1     12    ccc     H8    372 0.08172200   1.008000   ; qtot 0.365587
  373         c3     12    ccc     C5    373 -0.22180000  12.010000   ; qtot 0.143787
  374         hc     12    ccc     H9    374 0.09671800   1.008000   ; qtot 0.240505
  375         hc     12    ccc    H10    375 0.09671800   1.008000   ; qtot 0.337223
  376          c     12    ccc     C6    376 0.526324  12.010000   ; qtot 1.333750
  377          o     12    ccc     O1    377 -0.39142825  16.000000   ; qtot 0.637244
  378         oh     12    ccc     O2    378 -0.56822625  16.000000   ; qtot -0.203567
  379         ho     12    ccc    H11    379 0.4186155   1.008000   ; qtot 0.322508
  380         c3     12    ccc     C7    380 -0.01321200  12.010000   ; qtot 0.309296
  381         h1     12    ccc    H12    381 0.08172200   1.008000   ; qtot 0.391018
  382         h1     12    ccc    H13    382 0.08172200   1.008000   ; qtot 0.472740
  383         c3     12    ccc     C8    383 -0.22180000  12.010000   ; qtot 0.250940
  384         hc     12    ccc    H14    384 0.09671800   1.008000   ; qtot 0.347658
  385         hc     12    ccc    H15    385 0.09671800   1.008000   ; qtot 0.444376
  386          c     12    ccc     C9    386 0.526324  12.010000   ; qtot 1.440903
  387          o     12    ccc     O3    387 -0.39142825  16.000000   ; qtot 0.744397
  388         oh     12    ccc     O4    388 -0.56822625  16.000000   ; qtot -0.096414
  389         ho     12    ccc    H16    389 0.4186155   1.008000   ; qtot 0.429661
  390         os     12    ccc     O5    390 -0.42966500  16.000000   ; qtot -0.000004
; residue   13 ccc rtp ccc q 0.0
  391         c3     13    ccc     C1    391 0.50749700  12.010000   ; qtot 0.507493
  392         h1     13    ccc     H1    392 -0.02808400   1.008000   ; qtot 0.479409
  393         h1     13    ccc     H2    393 -0.02808400   1.008000   ; qtot 0.451325
  394         c3     13    ccc     C2    394 -0.15486000  12.010000   ; qtot 0.296465
  395         hc     13    ccc     H3    395 0.10266400   1.008000   ; qtot 0.399129
  396         hc     13    ccc     H4    396 0.10266400   1.008000   ; qtot 0.501793
  397         c3     13    ccc     C3    397 -0.15693500  12.010000   ; qtot 0.344858
  398         h1     13    ccc     H5    398 0.08499200   1.008000   ; qtot 0.429850
  399         h1     13    ccc     H6    399 0.08499200   1.008000   ; qtot 0.514842
  400         n3     13    ccc     N1    400 -0.29948700  14.010000   ; qtot 0.215355
  401         c3     13    ccc     C4    401 -0.01321200  12.010000   ; qtot 0.202143
  402         h1     13    ccc     H7    402 0.08172200   1.008000   ; qtot 0.283865
  403         h1     13    ccc     H8    403 0.08172200   1.008000   ; qtot 0.365587
  404         c3     13    ccc     C5    404 -0.22180000  12.010000   ; qtot 0.143787
  405         hc     13    ccc     H9    405 0.09671800   1.008000   ; qtot 0.240505
  406         hc     13    ccc    H10    406 0.09671800   1.008000   ; qtot 0.337223
  407          c     13    ccc     C6    407 0.526324  12.010000   ; qtot 1.333750
  408          o     13    ccc     O1    408 -0.39142825  16.000000   ; qtot 0.637244
  409         oh     13    ccc     O2    409 -0.56822625  16.000000   ; qtot -0.203567
  410         ho     13    ccc    H11    410 0.4186155   1.008000   ; qtot 0.322508
  411         c3     13    ccc     C7    411 -0.01321200  12.010000   ; qtot 0.309296
  412         h1     13    ccc    H12    412 0.08172200   1.008000   ; qtot 0.391018
  413         h1     13    ccc    H13    413 0.08172200   1.008000   ; qtot 0.472740
  414         c3     13    ccc     C8    414 -0.22180000  12.010000   ; qtot 0.250940
  415         hc     13    ccc    H14    415 0.09671800   1.008000   ; qtot 0.347658
  416         hc     13    ccc    H15    416 0.09671800   1.008000   ; qtot 0.444376
  417          c     13    ccc     C9    417 0.526324  12.010000   ; qtot 1.440903
  418          o     13    ccc     O3    418 -0.39142825  16.000000   ; qtot 0.744397
  419         oh     13    ccc     O4    419 -0.56822625  16.000000   ; qtot -0.096414
  420         ho     13    ccc    H16    420 0.4186155   1.008000   ; qtot 0.429661
  421         os     13    ccc     O5    421 -0.42966500  16.000000   ; qtot -0.000004

[ bonds ]
;    ai     aj funct         c0         c1         c2         c3
      1      2     1   0.14316 258236.480000
      1      5     1   0.14316 258236.480000
      2      8     1   0.15375 251793.120000
      5     11     1   0.15375 251793.120000
      8     14     1   0.15375 251793.120000
     11     17     1   0.15375 251793.120000
     14     20     1   0.14647 272713.120000
     17     21     1   0.14647 272713.120000
     20     28     1   0.14647 272713.120000
     20     31     1   0.14647 272713.120000
     21     22     1   0.14647 272713.120000
     21     25     1   0.14647 272713.120000
     22     34     1   0.15375 251793.120000
     25     37     1   0.15375 251793.120000
     28     40     1   0.15375 251793.120000
     31     43     1   0.15375 251793.120000
     34     55     1   0.15375 251793.120000
     37     52     1   0.15375 251793.120000
     40     49     1   0.15375 251793.120000
     43     46     1   0.15375 251793.120000
     46     86     1   0.14316 258236.480000
     49    115     1   0.14316 258236.480000
     52    144     1   0.14316 258236.480000
     55    173     1   0.14316 258236.480000
     58     59     1   0.14647 272713.120000
     58     62     1   0.14647 272713.120000
     58     65     1   0.14647 272713.120000
     59     71     1   0.15375 251793.120000
     62     74     1   0.15375 251793.120000
     65     68     1   0.15375 251793.120000
     68     77     1   0.15375 251793.120000
     71     83     1   0.15375 251793.120000
     74     80     1   0.15375 251793.120000
     77     86     1   0.14316 258236.480000
     80    204     1   0.14316 258236.480000
     83    235     1   0.14316 258236.480000
     87     88     1   0.14647 272713.120000
     87     91     1   0.14647 272713.120000
     87     94     1   0.14647 272713.120000
     88    100     1   0.15375 251793.120000
     91    103     1   0.15375 251793.120000
     94     97     1   0.15375 251793.120000
     97    106     1   0.15375 251793.120000
    100    112     1   0.15375 251793.120000
    103    109     1   0.15375 251793.120000
    106    115     1   0.14316 258236.480000
    109    266     1   0.14316 258236.480000
    112    297     1   0.14316 258236.480000
    116    117     1   0.14647 272713.120000
    116    120     1   0.14647 272713.120000
    116    123     1   0.14647 272713.120000
    117    129     1   0.15375 251793.120000
    120    132     1   0.15375 251793.120000
    123    126     1   0.15375 251793.120000
    126    135     1   0.15375 251793.120000
    129    141     1   0.15375 251793.120000
    132    138     1   0.15375 251793.120000
    135    144     1   0.14316 258236.480000
    138    328     1   0.14316 258236.480000
    141    359     1   0.14316 258236.480000
    145    146     1   0.14647 272713.120000
    145    149     1   0.14647 272713.120000
    145    152     1   0.14647 272713.120000
    146    158     1   0.15375 251793.120000
    149    161     1   0.15375 251793.120000
    152    155     1   0.15375 251793.120000
    155    164     1   0.15375 251793.120000
    158    170     1   0.15375 251793.120000
    161    167     1   0.15375 251793.120000
    164    173     1   0.14316 258236.480000
    167    390     1   0.14316 258236.480000
    170    421     1   0.14316 258236.480000
    174    177     1   0.15375 251793.120000
    174    204     1   0.14316 258236.480000
    177    180     1   0.15375 251793.120000
    180    183     1   0.14647 272713.120000
    183    184     1   0.14647 272713.120000
    183    194     1   0.14647 272713.120000
    184    187     1   0.15375 251793.120000
    187    190     1   0.15241 261918.400000
    190    191     1   0.12183 533627.360000
    190    192     1   0.13513 334803.680000
    194    197     1   0.15375 251793.120000
    197    200     1   0.15241 261918.400000
    200    201     1   0.12183 533627.360000
    200    202     1   0.13513 334803.680000
    205    208     1   0.15375 251793.120000
    205    235     1   0.14316 258236.480000
    208    211     1   0.15375 251793.120000
    211    214     1   0.14647 272713.120000
    214    215     1   0.14647 272713.120000
    214    225     1   0.14647 272713.120000
    215    218     1   0.15375 251793.120000
    218    221     1   0.15241 261918.400000
    221    222     1   0.12183 533627.360000
    221    223     1   0.13513 334803.680000
    225    228     1   0.15375 251793.120000
    228    231     1   0.15241 261918.400000
    231    232     1   0.12183 533627.360000
    231    233     1   0.13513 334803.680000
    236    239     1   0.15375 251793.120000
    236    266     1   0.14316 258236.480000
    239    242     1   0.15375 251793.120000
    242    245     1   0.14647 272713.120000
    245    246     1   0.14647 272713.120000
    245    256     1   0.14647 272713.120000
    246    249     1   0.15375 251793.120000
    249    252     1   0.15241 261918.400000
    252    253     1   0.12183 533627.360000
    252    254     1   0.13513 334803.680000
    256    259     1   0.15375 251793.120000
    259    262     1   0.15241 261918.400000
    262    263     1   0.12183 533627.360000
    262    264     1   0.13513 334803.680000
    267    270     1   0.15375 251793.120000
    267    297     1   0.14316 258236.480000
    270    273     1   0.15375 251793.120000
    273    276     1   0.14647 272713.120000
    276    277     1   0.14647 272713.120000
    276    287     1   0.14647 272713.120000
    277    280     1   0.15375 251793.120000
    280    283     1   0.15241 261918.400000
    283    284     1   0.12183 533627.360000
    283    285     1   0.13513 334803.680000
    287    290     1   0.15375 251793.120000
    290    293     1   0.15241 261918.400000
    293    294     1   0.12183 533627.360000
    293    295     1   0.13513 334803.680000
    298    301     1   0.15375 251793.120000
    298    328     1   0.14316 258236.480000
    301    304     1   0.15375 251793.120000
    304    307     1   0.14647 272713.120000
    307    308     1   0.14647 272713.120000
    307    318     1   0.14647 272713.120000
    308    311     1   0.15375 251793.120000
    311    314     1   0.15241 261918.400000
    314    315     1   0.12183 533627.360000
    314    316     1   0.13513 334803.680000
    318    321     1   0.15375 251793.120000
    321    324     1   0.15241 261918.400000
    324    325     1   0.12183 533627.360000
    324    326     1   0.13513 334803.680000
    329    332     1   0.15375 251793.120000
    329    359     1   0.14316 258236.480000
    332    335     1   0.15375 251793.120000
    335    338     1   0.14647 272713.120000
    338    339     1   0.14647 272713.120000
    338    349     1   0.14647 272713.120000
    339    342     1   0.15375 251793.120000
    342    345     1   0.15241 261918.400000
    345    346     1   0.12183 533627.360000
    345    347     1   0.13513 334803.680000
    349    352     1   0.15375 251793.120000
    352    355     1   0.15241 261918.400000
    355    356     1   0.12183 533627.360000
    355    357     1   0.13513 334803.680000
    360    363     1   0.15375 251793.120000
    360    390     1   0.14316 258236.480000
    363    366     1   0.15375 251793.120000
    366    369     1   0.14647 272713.120000
    369    370     1   0.14647 272713.120000
    369    380     1   0.14647 272713.120000
    370    373     1   0.15375 251793.120000
    373    376     1   0.15241 261918.400000
    376    377     1   0.12183 533627.360000
    376    378     1   0.13513 334803.680000
    380    383     1   0.15375 251793.120000
    383    386     1   0.15241 261918.400000
    386    387     1   0.12183 533627.360000
    386    388     1   0.13513 334803.680000
    391    394     1   0.15375 251793.120000
    391    421     1   0.14316 258236.480000
    394    397     1   0.15375 251793.120000
    397    400     1   0.14647 272713.120000
    400    401     1   0.14647 272713.120000
    400    411     1   0.14647 272713.120000
    401    404     1   0.15375 251793.120000
    404    407     1   0.15241 261918.400000
    407    408     1   0.12183 533627.360000
    407    409     1   0.13513 334803.680000
    411    414     1   0.15375 251793.120000
    414    417     1   0.15241 261918.400000
    417    418     1   0.12183 533627.360000
    417    419     1   0.13513 334803.680000
      2      3     1   0.10969 276646.080000
      2      4     1   0.10969 276646.080000
      5      6     1   0.10969 276646.080000
      5      7     1   0.10969 276646.080000
      8      9     1   0.10969 276646.080000
      8     10     1   0.10969 276646.080000
     11     12     1   0.10969 276646.080000
     11     13     1   0.10969 276646.080000
     14     15     1   0.10969 276646.080000
     14     16     1   0.10969 276646.080000
     17     18     1   0.10969 276646.080000
     17     19     1   0.10969 276646.080000
     22     23     1   0.10969 276646.080000
     22     24     1   0.10969 276646.080000
     25     26     1   0.10969 276646.080000
     25     27     1   0.10969 276646.080000
     28     29     1   0.10969 276646.080000
     28     30     1   0.10969 276646.080000
     31     32     1   0.10969 276646.080000
     31     33     1   0.10969 276646.080000
     34     35     1   0.10969 276646.080000
     34     36     1   0.10969 276646.080000
     37     38     1   0.10969 276646.080000
     37     39     1   0.10969 276646.080000
     40     41     1   0.10969 276646.080000
     40     42     1   0.10969 276646.080000
     43     44     1   0.10969 276646.080000
     43     45     1   0.10969 276646.080000
     46     47     1   0.10969 276646.080000
     46     48     1   0.10969 276646.080000
     49     50     1   0.10969 276646.080000
     49     51     1   0.10969 276646.080000
     52     53     1   0.10969 276646.080000
     52     54     1   0.10969 276646.080000
     55     56     1   0.10969 276646.080000
     55     57     1   0.10969 276646.080000
     59     60     1   0.10969 276646.080000
     59     61     1   0.10969 276646.080000
     62     63     1   0.10969 276646.080000
     62     64     1   0.10969 276646.080000
     65     66     1   0.10969 276646.080000
     65     67     1   0.10969 276646.080000
     68     69     1   0.10969 276646.080000
     68     70     1   0.10969 276646.080000
     71     72     1   0.10969 276646.080000
     71     73     1   0.10969 276646.080000
     74     75     1   0.10969 276646.080000
     74     76     1   0.10969 276646.080000
     77     78     1   0.10969 276646.080000
     77     79     1   0.10969 276646.080000
     80     81     1   0.10969 276646.080000
     80     82     1   0.10969 276646.080000
     83     84     1   0.10969 276646.080000
     83     85     1   0.10969 276646.080000
     88     89     1   0.10969 276646.080000
     88     90     1   0.10969 276646.080000
     91     92     1   0.10969 276646.080000
     91     93     1   0.10969 276646.080000
     94     95     1   0.10969 276646.080000
     94     96     1   0.10969 276646.080000
     97     98     1   0.10969 276646.080000
     97     99     1   0.10969 276646.080000
    100    101     1   0.10969 276646.080000
    100    102     1   0.10969 276646.080000
    103    104     1   0.10969 276646.080000
    103    105     1   0.10969 276646.080000
    106    107     1   0.10969 276646.080000
    106    108     1   0.10969 276646.080000
    109    110     1   0.10969 276646.080000
    109    111     1   0.10969 276646.080000
    112    113     1   0.10969 276646.080000
    112    114     1   0.10969 276646.080000
    117    118     1   0.10969 276646.080000
    117    119     1   0.10969 276646.080000
    120    121     1   0.10969 276646.080000
    120    122     1   0.10969 276646.080000
    123    124     1   0.10969 276646.080000
    123    125     1   0.10969 276646.080000
    126    127     1   0.10969 276646.080000
    126    128     1   0.10969 276646.080000
    129    130     1   0.10969 276646.080000
    129    131     1   0.10969 276646.080000
    132    133     1   0.10969 276646.080000
    132    134     1   0.10969 276646.080000
    135    136     1   0.10969 276646.080000
    135    137     1   0.10969 276646.080000
    138    139     1   0.10969 276646.080000
    138    140     1   0.10969 276646.080000
    141    142     1   0.10969 276646.080000
    141    143     1   0.10969 276646.080000
    146    147     1   0.10969 276646.080000
    146    148     1   0.10969 276646.080000
    149    150     1   0.10969 276646.080000
    149    151     1   0.10969 276646.080000
    152    153     1   0.10969 276646.080000
    152    154     1   0.10969 276646.080000
    155    156     1   0.10969 276646.080000
    155    157     1   0.10969 276646.080000
    158    159     1   0.10969 276646.080000
    158    160     1   0.10969 276646.080000
    161    162     1   0.10969 276646.080000
    161    163     1   0.10969 276646.080000
    164    165     1   0.10969 276646.080000
    164    166     1   0.10969 276646.080000
    167    168     1   0.10969 276646.080000
    167    169     1   0.10969 276646.080000
    170    171     1   0.10969 276646.080000
    170    172     1   0.10969 276646.080000
    174    175     1   0.10969 276646.080000
    174    176     1   0.10969 276646.080000
    177    178     1   0.10969 276646.080000
    177    179     1   0.10969 276646.080000
    180    181     1   0.10969 276646.080000
    180    182     1   0.10969 276646.080000
    184    185     1   0.10969 276646.080000
    184    186     1   0.10969 276646.080000
    187    188     1   0.10969 276646.080000
    187    189     1   0.10969 276646.080000
    192    193     1   0.09730 310787.520000
    194    195     1   0.10969 276646.080000
    194    196     1   0.10969 276646.080000
    197    198     1   0.10969 276646.080000
    197    199     1   0.10969 276646.080000
    202    203     1   0.09730 310787.520000
    205    206     1   0.10969 276646.080000
    205    207     1   0.10969 276646.080000
    208    209     1   0.10969 276646.080000
    208    210     1   0.10969 276646.080000
    211    212     1   0.10969 276646.080000
    211    213     1   0.10969 276646.080000
    215    216     1   0.10969 276646.080000
    215    217     1   0.10969 276646.080000
    218    219     1   0.10969 276646.080000
    218    220     1   0.10969 276646.080000
    223    224     1   0.09730 310787.520000
    225    226     1   0.10969 276646.080000
    225    227     1   0.10969 276646.080000
    228    229     1   0.10969 276646.080000
    228    230     1   0.10969 276646.080000
    233    234     1   0.09730 310787.520000
    236    237     1   0.10969 276646.080000
    236    238     1   0.10969 276646.080000
    239    240     1   0.10969 276646.080000
    239    241     1   0.10969 276646.080000
    242    243     1   0.10969 276646.080000
    242    244     1   0.10969 276646.080000
    246    247     1   0.10969 276646.080000
    246    248     1   0.10969 276646.080000
    249    250     1   0.10969 276646.080000
    249    251     1   0.10969 276646.080000
    254    255     1   0.09730 310787.520000
    256    257     1   0.10969 276646.080000
    256    258     1   0.10969 276646.080000
    259    260     1   0.10969 276646.080000
    259    261     1   0.10969 276646.080000
    264    265     1   0.09730 310787.520000
    267    268     1   0.10969 276646.080000
    267    269     1   0.10969 276646.080000
    270    271     1   0.10969 276646.080000
    270    272     1   0.10969 276646.080000
    273    274     1   0.10969 276646.080000
    273    275     1   0.10969 276646.080000
    277    278     1   0.10969 276646.080000
    277    279     1   0.10969 276646.080000
    280    281     1   0.10969 276646.080000
    280    282     1   0.10969 276646.080000
    285    286     1   0.09730 310787.520000
    287    288     1   0.10969 276646.080000
    287    289     1   0.10969 276646.080000
    290    291     1   0.10969 276646.080000
    290    292     1   0.10969 276646.080000
    295    296     1   0.09730 310787.520000
    298    299     1   0.10969 276646.080000
    298    300     1   0.10969 276646.080000
    301    302     1   0.10969 276646.080000
    301    303     1   0.10969 276646.080000
    304    305     1   0.10969 276646.080000
    304    306     1   0.10969 276646.080000
    308    309     1   0.10969 276646.080000
    308    310     1   0.10969 276646.080000
    311    312     1   0.10969 276646.080000
    311    313     1   0.10969 276646.080000
    316    317     1   0.09730 310787.520000
    318    319     1   0.10969 276646.080000
    318    320     1   0.10969 276646.080000
    321    322     1   0.10969 276646.080000
    321    323     1   0.10969 276646.080000
    326    327     1   0.09730 310787.520000
    329    330     1   0.10969 276646.080000
    329    331     1   0.10969 276646.080000
    332    333     1   0.10969 276646.080000
    332    334     1   0.10969 276646.080000
    335    336     1   0.10969 276646.080000
    335    337     1   0.10969 276646.080000
    339    340     1   0.10969 276646.080000
    339    341     1   0.10969 276646.080000
    342    343     1   0.10969 276646.080000
    342    344     1   0.10969 276646.080000
    347    348     1   0.09730 310787.520000
    349    350     1   0.10969 276646.080000
    349    351     1   0.10969 276646.080000
    352    353     1   0.10969 276646.080000
    352    354     1   0.10969 276646.080000
    357    358     1   0.09730 310787.520000
    360    361     1   0.10969 276646.080000
    360    362     1   0.10969 276646.080000
    363    364     1   0.10969 276646.080000
    363    365     1   0.10969 276646.080000
    366    367     1   0.10969 276646.080000
    366    368     1   0.10969 276646.080000
    370    371     1   0.10969 276646.080000
    370    372     1   0.10969 276646.080000
    373    374     1   0.10969 276646.080000
    373    375     1   0.10969 276646.080000
    378    379     1   0.09730 310787.520000
    380    381     1   0.10969 276646.080000
    380    382     1   0.10969 276646.080000
    383    384     1   0.10969 276646.080000
    383    385     1   0.10969 276646.080000
    388    389     1   0.09730 310787.520000
    391    392     1   0.10969 276646.080000
    391    393     1   0.10969 276646.080000
    394    395     1   0.10969 276646.080000
    394    396     1   0.10969 276646.080000
    397    398     1   0.10969 276646.080000
    397    399     1   0.10969 276646.080000
    401    402     1   0.10969 276646.080000
    401    403     1   0.10969 276646.080000
    404    405     1   0.10969 276646.080000
    404    406     1   0.10969 276646.080000
    409    410     1   0.09730 310787.520000
    411    412     1   0.10969 276646.080000
    411    413     1   0.10969 276646.080000
    414    415     1   0.10969 276646.080000
    414    416     1   0.10969 276646.080000
    419    420     1   0.09730 310787.520000

[ pairs ]
;    ai     aj funct         c0         c1         c2         c3
      1     14     1
      1     17     1
      2     11     1
      2     20     1
      5      8     1
      5     21     1
      8     28     1
      8     31     1
     11     22     1
     11     25     1
     14     40     1
     14     43     1
     17     34     1
     17     37     1
     20     49     1
     20     46     1
     21     55     1
     21     52     1
     22     37     1
     22    173     1
     25     34     1
     25    144     1
     28     43     1
     28    115     1
     31     40     1
     31     86     1
     34    164     1
     37    135     1
     40    106     1
     43     77     1
     46     68     1
     49     97     1
     52    126     1
     55    155     1
     58     83     1
     58     80     1
     58     77     1
     59     74     1
     59     68     1
     59    235     1
     62     71     1
     62     68     1
     62    204     1
     65     71     1
     65     74     1
     65     86     1
     71    205     1
     74    174     1
     80    177     1
     83    208     1
     87    112     1
     87    109     1
     87    106     1
     88    103     1
     88     97     1
     88    297     1
     91    100     1
     91     97     1
     91    266     1
     94    100     1
     94    103     1
     94    115     1
    100    267     1
    103    236     1
    109    239     1
    112    270     1
    116    141     1
    116    138     1
    116    135     1
    117    132     1
    117    126     1
    117    359     1
    120    129     1
    120    126     1
    120    328     1
    123    129     1
    123    132     1
    123    144     1
    129    329     1
    132    298     1
    138    301     1
    141    332     1
    145    170     1
    145    167     1
    145    164     1
    146    161     1
    146    155     1
    146    421     1
    149    158     1
    149    155     1
    149    390     1
    152    158     1
    152    161     1
    152    173     1
    158    391     1
    161    360     1
    167    363     1
    170    394     1
    174    183     1
    177    184     1
    177    194     1
    180    204     1
    180    187     1
    180    197     1
    183    190     1
    183    200     1
    184    197     1
    184    191     1
    184    192     1
    187    194     1
    194    201     1
    194    202     1
    205    214     1
    208    215     1
    208    225     1
    211    218     1
    211    228     1
    211    235     1
    214    221     1
    214    231     1
    215    222     1
    215    223     1
    215    228     1
    218    225     1
    225    232     1
    225    233     1
    236    245     1
    239    246     1
    239    256     1
    242    266     1
    242    249     1
    242    259     1
    245    252     1
    245    262     1
    246    259     1
    246    253     1
    246    254     1
    249    256     1
    256    263     1
    256    264     1
    267    276     1
    270    277     1
    270    287     1
    273    280     1
    273    290     1
    273    297     1
    276    283     1
    276    293     1
    277    284     1
    277    285     1
    277    290     1
    280    287     1
    287    294     1
    287    295     1
    298    307     1
    301    308     1
    301    318     1
    304    328     1
    304    311     1
    304    321     1
    307    314     1
    307    324     1
    308    321     1
    308    315     1
    308    316     1
    311    318     1
    318    325     1
    318    326     1
    329    338     1
    332    339     1
    332    349     1
    335    342     1
    335    352     1
    335    359     1
    338    345     1
    338    355     1
    339    346     1
    339    347     1
    339    352     1
    342    349     1
    349    356     1
    349    357     1
    360    369     1
    363    370     1
    363    380     1
    366    390     1
    366    373     1
    366    383     1
    369    376     1
    369    386     1
    370    383     1
    370    377     1
    370    378     1
    373    380     1
    380    387     1
    380    388     1
    391    400     1
    394    401     1
    394    411     1
    397    404     1
    397    414     1
    397    421     1
    400    407     1
    400    417     1
    401    408     1
    401    409     1
    401    414     1
    404    411     1
    411    418     1
    411    419     1
      1      9     1
      1     10     1
      1     12     1
      1     13     1
      2      6     1
      2      7     1
      2     15     1
      2     16     1
      5      3     1
      3     14     1
      3      9     1
      3     10     1
      5      4     1
      4     14     1
      4      9     1
      4     10     1
      5     18     1
      5     19     1
      6     17     1
      6     12     1
      6     13     1
      7     17     1
      7     12     1
      7     13     1
      9     20     1
      9     15     1
      9     16     1
     10     20     1
     10     15     1
     10     16     1
     12     21     1
     12     18     1
     12     19     1
     13     21     1
     13     18     1
     13     19     1
     14     29     1
     14     30     1
     14     32     1
     14     33     1
     15     28     1
     15     31     1
     16     28     1
     16     31     1
     17     23     1
     17     24     1
     17     26     1
     17     27     1
     18     22     1
     18     25     1
     19     22     1
     19     25     1
     20     41     1
     20     42     1
     20     44     1
     20     45     1
     21     35     1
     21     36     1
     21     38     1
     21     39     1
     22     26     1
     22     27     1
     22     56     1
     22     57     1
     23     25     1
     23     55     1
     23     35     1
     23     36     1
     24     25     1
     24     55     1
     24     35     1
     24     36     1
     25     53     1
     25     54     1
     26     52     1
     26     38     1
     26     39     1
     27     52     1
     27     38     1
     27     39     1
     28     32     1
     28     33     1
     28     50     1
     28     51     1
     29     31     1
     29     49     1
     29     41     1
     29     42     1
     30     31     1
     30     49     1
     30     41     1
     30     42     1
     31     47     1
     31     48     1
     32     46     1
     32     44     1
     32     45     1
     33     46     1
     33     44     1
     33     45     1
     35    173     1
     35     56     1
     35     57     1
     36    173     1
     36     56     1
     36     57     1
     38    144     1
     38     53     1
     38     54     1
     39    144     1
     39     53     1
     39     54     1
     41    115     1
     41     50     1
     41     51     1
     42    115     1
     42     50     1
     42     51     1
     44     86     1
     44     47     1
     44     48     1
     45     86     1
     45     47     1
     45     48     1
     46     78     1
     46     79     1
     47     77     1
     48     77     1
     49    107     1
     49    108     1
     50    106     1
     51    106     1
     52    136     1
     52    137     1
     53    135     1
     54    135     1
     55    165     1
     55    166     1
     56    164     1
     57    164     1
     58     72     1
     58     73     1
     58     75     1
     58     76     1
     58     69     1
     58     70     1
     59     63     1
     59     64     1
     59     66     1
     59     67     1
     59     84     1
     59     85     1
     60     62     1
     60     65     1
     60     83     1
     60     72     1
     60     73     1
     61     62     1
     61     65     1
     61     83     1
     61     72     1
     61     73     1
     62     66     1
     62     67     1
     62     81     1
     62     82     1
     63     65     1
     63     80     1
     63     75     1
     63     76     1
     64     65     1
     64     80     1
     64     75     1
     64     76     1
     65     78     1
     65     79     1
     66     77     1
     66     69     1
     66     70     1
     67     77     1
     67     69     1
     67     70     1
     69     86     1
     69     78     1
     69     79     1
     70     86     1
     70     78     1
     70     79     1
     72    235     1
     72     84     1
     72     85     1
     73    235     1
     73     84     1
     73     85     1
     75    204     1
     75     81     1
     75     82     1
     76    204     1
     76     81     1
     76     82     1
     80    175     1
     80    176     1
     81    174     1
     82    174     1
     83    206     1
     83    207     1
     84    205     1
     85    205     1
     87    101     1
     87    102     1
     87    104     1
     87    105     1
     87     98     1
     87     99     1
     88     92     1
     88     93     1
     88     95     1
     88     96     1
     88    113     1
     88    114     1
     89     91     1
     89     94     1
     89    112     1
     89    101     1
     89    102     1
     90     91     1
     90     94     1
     90    112     1
     90    101     1
     90    102     1
     91     95     1
     91     96     1
     91    110     1
     91    111     1
     92     94     1
     92    109     1
     92    104     1
     92    105     1
     93     94     1
     93    109     1
     93    104     1
     93    105     1
     94    107     1
     94    108     1
     95    106     1
     95     98     1
     95     99     1
     96    106     1
     96     98     1
     96     99     1
     98    115     1
     98    107     1
     98    108     1
     99    115     1
     99    107     1
     99    108     1
    101    297     1
    101    113     1
    101    114     1
    102    297     1
    102    113     1
    102    114     1
    104    266     1
    104    110     1
    104    111     1
    105    266     1
    105    110     1
    105    111     1
    109    237     1
    109    238     1
    110    236     1
    111    236     1
    112    268     1
    112    269     1
    113    267     1
    114    267     1
    116    130     1
    116    131     1
    116    133     1
    116    134     1
    116    127     1
    116    128     1
    117    121     1
    117    122     1
    117    124     1
    117    125     1
    117    142     1
    117    143     1
    118    120     1
    118    123     1
    118    141     1
    118    130     1
    118    131     1
    119    120     1
    119    123     1
    119    141     1
    119    130     1
    119    131     1
    120    124     1
    120    125     1
    120    139     1
    120    140     1
    121    123     1
    121    138     1
    121    133     1
    121    134     1
    122    123     1
    122    138     1
    122    133     1
    122    134     1
    123    136     1
    123    137     1
    124    135     1
    124    127     1
    124    128     1
    125    135     1
    125    127     1
    125    128     1
    127    144     1
    127    136     1
    127    137     1
    128    144     1
    128    136     1
    128    137     1
    130    359     1
    130    142     1
    130    143     1
    131    359     1
    131    142     1
    131    143     1
    133    328     1
    133    139     1
    133    140     1
    134    328     1
    134    139     1
    134    140     1
    138    299     1
    138    300     1
    139    298     1
    140    298     1
    141    330     1
    141    331     1
    142    329     1
    143    329     1
    145    159     1
    145    160     1
    145    162     1
    145    163     1
    145    156     1
    145    157     1
    146    150     1
    146    151     1
    146    153     1
    146    154     1
    146    171     1
    146    172     1
    147    149     1
    147    152     1
    147    170     1
    147    159     1
    147    160     1
    148    149     1
    148    152     1
    148    170     1
    148    159     1
    148    160     1
    149    153     1
    149    154     1
    149    168     1
    149    169     1
    150    152     1
    150    167     1
    150    162     1
    150    163     1
    151    152     1
    151    167     1
    151    162     1
    151    163     1
    152    165     1
    152    166     1
    153    164     1
    153    156     1
    153    157     1
    154    164     1
    154    156     1
    154    157     1
    156    173     1
    156    165     1
    156    166     1
    157    173     1
    157    165     1
    157    166     1
    159    421     1
    159    171     1
    159    172     1
    160    421     1
    160    171     1
    160    172     1
    162    390     1
    162    168     1
    162    169     1
    163    390     1
    163    168     1
    163    169     1
    167    361     1
    167    362     1
    168    360     1
    169    360     1
    170    392     1
    170    393     1
    171    391     1
    172    391     1
    174    181     1
    174    182     1
    175    180     1
    175    178     1
    175    179     1
    176    180     1
    176    178     1
    176    179     1
    178    204     1
    178    183     1
    178    181     1
    178    182     1
    179    204     1
    179    183     1
    179    181     1
    179    182     1
    180    185     1
    180    186     1
    180    195     1
    180    196     1
    181    184     1
    181    194     1
    182    184     1
    182    194     1
    183    188     1
    183    189     1
    183    198     1
    183    199     1
    184    195     1
    184    196     1
    185    194     1
    185    190     1
    185    188     1
    185    189     1
    186    194     1
    186    190     1
    186    188     1
    186    189     1
    187    193     1
    188    191     1
    188    192     1
    189    191     1
    189    192     1
    191    193     1
    195    200     1
    195    198     1
    195    199     1
    196    200     1
    196    198     1
    196    199     1
    197    203     1
    198    201     1
    198    202     1
    199    201     1
    199    202     1
    201    203     1
    205    212     1
    205    213     1
    206    211     1
    206    209     1
    206    210     1
    207    211     1
    207    209     1
    207    210     1
    209    214     1
    209    212     1
    209    213     1
    209    235     1
    210    214     1
    210    212     1
    210    213     1
    210    235     1
    211    216     1
    211    217     1
    211    226     1
    211    227     1
    212    215     1
    212    225     1
    213    215     1
    213    225     1
    214    219     1
    214    220     1
    214    229     1
    214    230     1
    215    226     1
    215    227     1
    216    221     1
    216    219     1
    216    220     1
    216    225     1
    217    221     1
    217    219     1
    217    220     1
    217    225     1
    218    224     1
    219    222     1
    219    223     1
    220    222     1
    220    223     1
    222    224     1
    226    231     1
    226    229     1
    226    230     1
    227    231     1
    227    229     1
    227    230     1
    228    234     1
    229    232     1
    229    233     1
    230    232     1
    230    233     1
    232    234     1
    236    243     1
    236    244     1
    237    242     1
    237    240     1
    237    241     1
    238    242     1
    238    240     1
    238    241     1
    240    266     1
    240    245     1
    240    243     1
    240    244     1
    241    266     1
    241    245     1
    241    243     1
    241    244     1
    242    247     1
    242    248     1
    242    257     1
    242    258     1
    243    246     1
    243    256     1
    244    246     1
    244    256     1
    245    250     1
    245    251     1
    245    260     1
    245    261     1
    246    257     1
    246    258     1
    247    256     1
    247    252     1
    247    250     1
    247    251     1
    248    256     1
    248    252     1
    248    250     1
    248    251     1
    249    255     1
    250    253     1
    250    254     1
    251    253     1
    251    254     1
    253    255     1
    257    262     1
    257    260     1
    257    261     1
    258    262     1
    258    260     1
    258    261     1
    259    265     1
    260    263     1
    260    264     1
    261    263     1
    261    264     1
    263    265     1
    267    274     1
    267    275     1
    268    273     1
    268    271     1
    268    272     1
    269    273     1
    269    271     1
    269    272     1
    271    276     1
    271    274     1
    271    275     1
    271    297     1
    272    276     1
    272    274     1
    272    275     1
    272    297     1
    273    278     1
    273    279     1
    273    288     1
    273    289     1
    274    277     1
    274    287     1
    275    277     1
    275    287     1
    276    281     1
    276    282     1
    276    291     1
    276    292     1
    277    288     1
    277    289     1
    278    283     1
    278    281     1
    278    282     1
    278    287     1
    279    283     1
    279    281     1
    279    282     1
    279    287     1
    280    286     1
    281    284     1
    281    285     1
    282    284     1
    282    285     1
    284    286     1
    288    293     1
    288    291     1
    288    292     1
    289    293     1
    289    291     1
    289    292     1
    290    296     1
    291    294     1
    291    295     1
    292    294     1
    292    295     1
    294    296     1
    298    305     1
    298    306     1
    299    304     1
    299    302     1
    299    303     1
    300    304     1
    300    302     1
    300    303     1
    302    328     1
    302    307     1
    302    305     1
    302    306     1
    303    328     1
    303    307     1
    303    305     1
    303    306     1
    304    309     1
    304    310     1
    304    319     1
    304    320     1
    305    308     1
    305    318     1
    306    308     1
    306    318     1
    307    312     1
    307    313     1
    307    322     1
    307    323     1
    308    319     1
    308    320     1
    309    318     1
    309    314     1
    309    312     1
    309    313     1
    310    318     1
    310    314     1
    310    312     1
    310    313     1
    311    317     1
    312    315     1
    312    316     1
    313    315     1
    313    316     1
    315    317     1
    319    324     1
    319    322     1
    319    323     1
    320    324     1
    320    322     1
    320    323     1
    321    327     1
    322    325     1
    322    326     1
    323    325     1
    323    326     1
    325    327     1
    329    336     1
    329    337     1
    330    335     1
    330    333     1
    330    334     1
    331    335     1
    331    333     1
    331    334     1
    333    338     1
    333    336     1
    333    337     1
    333    359     1
    334    338     1
    334    336     1
    334    337     1
    334    359     1
    335    340     1
    335    341     1
    335    350     1
    335    351     1
    336    339     1
    336    349     1
    337    339     1
    337    349     1
    338    343     1
    338    344     1
    338    353     1
    338    354     1
    339    350     1
    339    351     1
    340    345     1
    340    343     1
    340    344     1
    340    349     1
    341    345     1
    341    343     1
    341    344     1
    341    349     1
    342    348     1
    343    346     1
    343    347     1
    344    346     1
    344    347     1
    346    348     1
    350    355     1
    350    353     1
    350    354     1
    351    355     1
    351    353     1
    351    354     1
    352    358     1
    353    356     1
    353    357     1
    354    356     1
    354    357     1
    356    358     1
    360    367     1
    360    368     1
    361    366     1
    361    364     1
    361    365     1
    362    366     1
    362    364     1
    362    365     1
    364    390     1
    364    369     1
    364    367     1
    364    368     1
    365    390     1
    365    369     1
    365    367     1
    365    368     1
    366    371     1
    366    372     1
    366    381     1
    366    382     1
    367    370     1
    367    380     1
    368    370     1
    368    380     1
    369    374     1
    369    375     1
    369    384     1
    369    385     1
    370    381     1
    370    382     1
    371    380     1
    371    376     1
    371    374     1
    371    375     1
    372    380     1
    372    376     1
    372    374     1
    372    375     1
    373    379     1
    374    377     1
    374    378     1
    375    377     1
    375    378     1
    377    379     1
    381    386     1
    381    384     1
    381    385     1
    382    386     1
    382    384     1
    382    385     1
    383    389     1
    384    387     1
    384    388     1
    385    387     1
    385    388     1
    387    389     1
    391    398     1
    391    399     1
    392    397     1
    392    395     1
    392    396     1
    393    397     1
    393    395     1
    393    396     1
    395    400     1
    395    398     1
    395    399     1
    395    421     1
    396    400     1
    396    398     1
    396    399     1
    396    421     1
    397    402     1
    397    403     1
    397    412     1
    397    413     1
    398    401     1
    398    411     1
    399    401     1
    399    411     1
    400    405     1
    400    406     1
    400    415     1
    400    416     1
    401    412     1
    401    413     1
    402    407     1
    402    405     1
    402    406     1
    402    411     1
    403    407     1
    403    405     1
    403    406     1
    403    411     1
    404    410     1
    405    408     1
    405    409     1
    406    408     1
    406    409     1
    408    410     1
    412    417     1
    412    415     1
    412    416     1
    413    417     1
    413    415     1
    413    416     1
    414    420     1
    415    418     1
    415    419     1
    416    418     1
    416    419     1
    418    420     1

[ angles ]
;    ai     aj     ak funct         c0         c1         c2         c3
      1      2      8     1   107.9700462 569.024000
      1      5     11     1   107.9700462 569.024000
      2      1      5     1   112.4800480 524.673600
      2      8     14     1   111.5100476 526.347200
      5     11     17     1   111.5100476 526.347200
      8     14     20     1   111.0400475 552.288000
     11     17     21     1   111.0400475 552.288000
     14     20     28     1   112.3500484 533.878400
     14     20     31     1   112.3500484 533.878400
     17     21     22     1   112.3500484 533.878400
     17     21     25     1   112.3500484 533.878400
     20     28     40     1   111.0400475 552.288000
     20     31     43     1   111.0400475 552.288000
     21     22     34     1   111.0400475 552.288000
     21     25     37     1   111.0400475 552.288000
     22     21     25     1   112.3500484 533.878400
     22     34     55     1   111.5100476 526.347200
     25     37     52     1   111.5100476 526.347200
     28     20     31     1   112.3500484 533.878400
     28     40     49     1   111.5100476 526.347200
     31     43     46     1   111.5100476 526.347200
     34     55    173     1   107.9700462 569.024000
     37     52    144     1   107.9700462 569.024000
     40     49    115     1   107.9700462 569.024000
     43     46     86     1   107.9700462 569.024000
     46     86     77     1   112.4800480 524.673600
     49    115    106     1   112.4800480 524.673600
     52    144    135     1   112.4800480 524.673600
     55    173    164     1   112.4800480 524.673600
     58     59     71     1   111.0400475 552.288000
     58     62     74     1   111.0400475 552.288000
     58     65     68     1   111.0400475 552.288000
     59     58     62     1   112.3500484 533.878400
     59     58     65     1   112.3500484 533.878400
     59     71     83     1   111.5100476 526.347200
     62     58     65     1   112.3500484 533.878400
     62     74     80     1   111.5100476 526.347200
     65     68     77     1   111.5100476 526.347200
     68     77     86     1   107.9700462 569.024000
     71     83    235     1   107.9700462 569.024000
     74     80    204     1   107.9700462 569.024000
     80    204    174     1   112.4800480 524.673600
     83    235    205     1   112.4800480 524.673600
     87     88    100     1   111.0400475 552.288000
     87     91    103     1   111.0400475 552.288000
     87     94     97     1   111.0400475 552.288000
     88     87     91     1   112.3500484 533.878400
     88     87     94     1   112.3500484 533.878400
     88    100    112     1   111.5100476 526.347200
     91     87     94     1   112.3500484 533.878400
     91    103    109     1   111.5100476 526.347200
     94     97    106     1   111.5100476 526.347200
     97    106    115     1   107.9700462 569.024000
    100    112    297     1   107.9700462 569.024000
    103    109    266     1   107.9700462 569.024000
    109    266    236     1   112.4800480 524.673600
    112    297    267     1   112.4800480 524.673600
    116    117    129     1   111.0400475 552.288000
    116    120    132     1   111.0400475 552.288000
    116    123    126     1   111.0400475 552.288000
    117    116    120     1   112.3500484 533.878400
    117    116    123     1   112.3500484 533.878400
    117    129    141     1   111.5100476 526.347200
    120    116    123     1   112.3500484 533.878400
    120    132    138     1   111.5100476 526.347200
    123    126    135     1   111.5100476 526.347200
    126    135    144     1   107.9700462 569.024000
    129    141    359     1   107.9700462 569.024000
    132    138    328     1   107.9700462 569.024000
    138    328    298     1   112.4800480 524.673600
    141    359    329     1   112.4800480 524.673600
    145    146    158     1   111.0400475 552.288000
    145    149    161     1   111.0400475 552.288000
    145    152    155     1   111.0400475 552.288000
    146    145    149     1   112.3500484 533.878400
    146    145    152     1   112.3500484 533.878400
    146    158    170     1   111.5100476 526.347200
    149    145    152     1   112.3500484 533.878400
    149    161    167     1   111.5100476 526.347200
    152    155    164     1   111.5100476 526.347200
    155    164    173     1   107.9700462 569.024000
    158    170    421     1   107.9700462 569.024000
    161    167    390     1   107.9700462 569.024000
    167    390    360     1   112.4800480 524.673600
    170    421    391     1   112.4800480 524.673600
    174    177    180     1   111.5100476 526.347200
    177    174    204     1   107.9700462 569.024000
    177    180    183     1   111.0400475 552.288000
    180    183    184     1   112.3500484 533.878400
    180    183    194     1   112.3500484 533.878400
    183    184    187     1   111.0400475 552.288000
    183    194    197     1   111.0400475 552.288000
    184    183    194     1   112.3500484 533.878400
    184    187    190     1   111.0400475 529.694400
    187    190    191     1   123.2000528 564.003200
    187    190    192     1   112.7300484 572.371200
    191    190    192     1   122.1000523 635.131200
    194    197    200     1   111.0400475 529.694400
    197    200    201     1   123.2000528 564.003200
    197    200    202     1   112.7300484 572.371200
    201    200    202     1   122.1000523 635.131200
    205    208    211     1   111.5100476 526.347200
    208    211    214     1   111.0400475 552.288000
    208    205    235     1   107.9700462 569.024000
    211    214    215     1   112.3500484 533.878400
    211    214    225     1   112.3500484 533.878400
    214    215    218     1   111.0400475 552.288000
    214    225    228     1   111.0400475 552.288000
    215    218    221     1   111.0400475 529.694400
    215    214    225     1   112.3500484 533.878400
    218    221    222     1   123.2000528 564.003200
    218    221    223     1   112.7300484 572.371200
    222    221    223     1   122.1000523 635.131200
    225    228    231     1   111.0400475 529.694400
    228    231    232     1   123.2000528 564.003200
    228    231    233     1   112.7300484 572.371200
    232    231    233     1   122.1000523 635.131200
    236    239    242     1   111.5100476 526.347200
    239    236    266     1   107.9700462 569.024000
    239    242    245     1   111.0400475 552.288000
    242    245    246     1   112.3500484 533.878400
    242    245    256     1   112.3500484 533.878400
    245    246    249     1   111.0400475 552.288000
    245    256    259     1   111.0400475 552.288000
    246    245    256     1   112.3500484 533.878400
    246    249    252     1   111.0400475 529.694400
    249    252    253     1   123.2000528 564.003200
    249    252    254     1   112.7300484 572.371200
    253    252    254     1   122.1000523 635.131200
    256    259    262     1   111.0400475 529.694400
    259    262    263     1   123.2000528 564.003200
    259    262    264     1   112.7300484 572.371200
    263    262    264     1   122.1000523 635.131200
    267    270    273     1   111.5100476 526.347200
    270    273    276     1   111.0400475 552.288000
    270    267    297     1   107.9700462 569.024000
    273    276    277     1   112.3500484 533.878400
    273    276    287     1   112.3500484 533.878400
    276    277    280     1   111.0400475 552.288000
    276    287    290     1   111.0400475 552.288000
    277    280    283     1   111.0400475 529.694400
    277    276    287     1   112.3500484 533.878400
    280    283    284     1   123.2000528 564.003200
    280    283    285     1   112.7300484 572.371200
    284    283    285     1   122.1000523 635.131200
    287    290    293     1   111.0400475 529.694400
    290    293    294     1   123.2000528 564.003200
    290    293    295     1   112.7300484 572.371200
    294    293    295     1   122.1000523 635.131200
    298    301    304     1   111.5100476 526.347200
    301    298    328     1   107.9700462 569.024000
    301    304    307     1   111.0400475 552.288000
    304    307    308     1   112.3500484 533.878400
    304    307    318     1   112.3500484 533.878400
    307    308    311     1   111.0400475 552.288000
    307    318    321     1   111.0400475 552.288000
    308    307    318     1   112.3500484 533.878400
    308    311    314     1   111.0400475 529.694400
    311    314    315     1   123.2000528 564.003200
    311    314    316     1   112.7300484 572.371200
    315    314    316     1   122.1000523 635.131200
    318    321    324     1   111.0400475 529.694400
    321    324    325     1   123.2000528 564.003200
    321    324    326     1   112.7300484 572.371200
    325    324    326     1   122.1000523 635.131200
    329    332    335     1   111.5100476 526.347200
    332    335    338     1   111.0400475 552.288000
    332    329    359     1   107.9700462 569.024000
    335    338    339     1   112.3500484 533.878400
    335    338    349     1   112.3500484 533.878400
    338    339    342     1   111.0400475 552.288000
    338    349    352     1   111.0400475 552.288000
    339    342    345     1   111.0400475 529.694400
    339    338    349     1   112.3500484 533.878400
    342    345    346     1   123.2000528 564.003200
    342    345    347     1   112.7300484 572.371200
    346    345    347     1   122.1000523 635.131200
    349    352    355     1   111.0400475 529.694400
    352    355    356     1   123.2000528 564.003200
    352    355    357     1   112.7300484 572.371200
    356    355    357     1   122.1000523 635.131200
    360    363    366     1   111.5100476 526.347200
    363    360    390     1   107.9700462 569.024000
    363    366    369     1   111.0400475 552.288000
    366    369    370     1   112.3500484 533.878400
    366    369    380     1   112.3500484 533.878400
    369    370    373     1   111.0400475 552.288000
    369    380    383     1   111.0400475 552.288000
    370    369    380     1   112.3500484 533.878400
    370    373    376     1   111.0400475 529.694400
    373    376    377     1   123.2000528 564.003200
    373    376    378     1   112.7300484 572.371200
    377    376    378     1   122.1000523 635.131200
    380    383    386     1   111.0400475 529.694400
    383    386    387     1   123.2000528 564.003200
    383    386    388     1   112.7300484 572.371200
    387    386    388     1   122.1000523 635.131200
    391    394    397     1   111.5100476 526.347200
    394    397    400     1   111.0400475 552.288000
    394    391    421     1   107.9700462 569.024000
    397    400    401     1   112.3500484 533.878400
    397    400    411     1   112.3500484 533.878400
    400    401    404     1   111.0400475 552.288000
    400    411    414     1   111.0400475 552.288000
    401    404    407     1   111.0400475 529.694400
    401    400    411     1   112.3500484 533.878400
    404    407    408     1   123.2000528 564.003200
    404    407    409     1   112.7300484 572.371200
    408    407    409     1   122.1000523 635.131200
    411    414    417     1   111.0400475 529.694400
    414    417    418     1   123.2000528 564.003200
    414    417    419     1   112.7300484 572.371200
    418    417    419     1   122.1000523 635.131200
      1      2      3     1   109.7800468 425.094400
      1      2      4     1   109.7800468 425.094400
      1      5      6     1   109.7800468 425.094400
      1      5      7     1   109.7800468 425.094400
      2      8      9     1   109.8000471 387.438400
      2      8     10     1   109.8000471 387.438400
      3      2      8     1   109.5600471 388.275200
      3      2      4     1   108.4600466 328.025600
      4      2      8     1   109.5600471 388.275200
      5     11     12     1   109.8000471 387.438400
      5     11     13     1   109.8000471 387.438400
      6      5     11     1   109.5600471 388.275200
      6      5      7     1   108.4600466 328.025600
      7      5     11     1   109.5600471 388.275200
      8     14     15     1   109.5600471 388.275200
      8     14     16     1   109.5600471 388.275200
      9      8     14     1   109.8000471 387.438400
      9      8     10     1   107.5800459 329.699200
     10      8     14     1   109.8000471 387.438400
     11     17     18     1   109.5600471 388.275200
     11     17     19     1   109.5600471 388.275200
     12     11     17     1   109.8000471 387.438400
     12     11     13     1   107.5800459 329.699200
     13     11     17     1   109.8000471 387.438400
     15     14     20     1   109.8800469 414.216000
     15     14     16     1   108.4600466 328.025600
     16     14     20     1   109.8800469 414.216000
     18     17     21     1   109.8800469 414.216000
     18     17     19     1   108.4600466 328.025600
     19     17     21     1   109.8800469 414.216000
     20     28     29     1   109.8800469 414.216000
     20     28     30     1   109.8800469 414.216000
     20     31     32     1   109.8800469 414.216000
     20     31     33     1   109.8800469 414.216000
     21     22     23     1   109.8800469 414.216000
     21     22     24     1   109.8800469 414.216000
     21     25     26     1   109.8800469 414.216000
     21     25     27     1   109.8800469 414.216000
     22     34     35     1   109.8000471 387.438400
     22     34     36     1   109.8000471 387.438400
     23     22     34     1   109.5600471 388.275200
     23     22     24     1   108.4600466 328.025600
     24     22     34     1   109.5600471 388.275200
     25     37     38     1   109.8000471 387.438400
     25     37     39     1   109.8000471 387.438400
     26     25     37     1   109.5600471 388.275200
     26     25     27     1   108.4600466 328.025600
     27     25     37     1   109.5600471 388.275200
     28     40     41     1   109.8000471 387.438400
     28     40     42     1   109.8000471 387.438400
     29     28     40     1   109.5600471 388.275200
     29     28     30     1   108.4600466 328.025600
     30     28     40     1   109.5600471 388.275200
     31     43     44     1   109.8000471 387.438400
     31     43     45     1   109.8000471 387.438400
     32     31     43     1   109.5600471 388.275200
     32     31     33     1   108.4600466 328.025600
     33     31     43     1   109.5600471 388.275200
     34     55     56     1   109.5600471 388.275200
     34     55     57     1   109.5600471 388.275200
     35     34     55     1   109.8000471 387.438400
     35     34     36     1   107.5800459 329.699200
     36     34     55     1   109.8000471 387.438400
     37     52     53     1   109.5600471 388.275200
     37     52     54     1   109.5600471 388.275200
     38     37     52     1   109.8000471 387.438400
     38     37     39     1   107.5800459 329.699200
     39     37     52     1   109.8000471 387.438400
     40     49     50     1   109.5600471 388.275200
     40     49     51     1   109.5600471 388.275200
     41     40     49     1   109.8000471 387.438400
     41     40     42     1   107.5800459 329.699200
     42     40     49     1   109.8000471 387.438400
     43     46     47     1   109.5600471 388.275200
     43     46     48     1   109.5600471 388.275200
     44     43     46     1   109.8000471 387.438400
     44     43     45     1   107.5800459 329.699200
     45     43     46     1   109.8000471 387.438400
     47     46     86     1   109.7800468 425.094400
     47     46     48     1   108.4600466 328.025600
     48     46     86     1   109.7800468 425.094400
     50     49    115     1   109.7800468 425.094400
     50     49     51     1   108.4600466 328.025600
     51     49    115     1   109.7800468 425.094400
     53     52    144     1   109.7800468 425.094400
     53     52     54     1   108.4600466 328.025600
     54     52    144     1   109.7800468 425.094400
     56     55    173     1   109.7800468 425.094400
     56     55     57     1   108.4600466 328.025600
     57     55    173     1   109.7800468 425.094400
     58     59     60     1   109.8800469 414.216000
     58     59     61     1   109.8800469 414.216000
     58     62     63     1   109.8800469 414.216000
     58     62     64     1   109.8800469 414.216000
     58     65     66     1   109.8800469 414.216000
     58     65     67     1   109.8800469 414.216000
     59     71     72     1   109.8000471 387.438400
     59     71     73     1   109.8000471 387.438400
     60     59     71     1   109.5600471 388.275200
     60     59     61     1   108.4600466 328.025600
     61     59     71     1   109.5600471 388.275200
     62     74     75     1   109.8000471 387.438400
     62     74     76     1   109.8000471 387.438400
     63     62     74     1   109.5600471 388.275200
     63     62     64     1   108.4600466 328.025600
     64     62     74     1   109.5600471 388.275200
     65     68     69     1   109.8000471 387.438400
     65     68     70     1   109.8000471 387.438400
     66     65     68     1   109.5600471 388.275200
     66     65     67     1   108.4600466 328.025600
     67     65     68     1   109.5600471 388.275200
     68     77     78     1   109.5600471 388.275200
     68     77     79     1   109.5600471 388.275200
     69     68     77     1   109.8000471 387.438400
     69     68     70     1   107.5800459 329.699200
     70     68     77     1   109.8000471 387.438400
     71     83     84     1   109.5600471 388.275200
     71     83     85     1   109.5600471 388.275200
     72     71     83     1   109.8000471 387.438400
     72     71     73     1   107.5800459 329.699200
     73     71     83     1   109.8000471 387.438400
     74     80     81     1   109.5600471 388.275200
     74     80     82     1   109.5600471 388.275200
     75     74     80     1   109.8000471 387.438400
     75     74     76     1   107.5800459 329.699200
     76     74     80     1   109.8000471 387.438400
     78     77     86     1   109.7800468 425.094400
     78     77     79     1   108.4600466 328.025600
     79     77     86     1   109.7800468 425.094400
     81     80    204     1   109.7800468 425.094400
     81     80     82     1   108.4600466 328.025600
     82     80    204     1   109.7800468 425.094400
     84     83    235     1   109.7800468 425.094400
     84     83     85     1   108.4600466 328.025600
     85     83    235     1   109.7800468 425.094400
     87     88     89     1   109.8800469 414.216000
     87     88     90     1   109.8800469 414.216000
     87     91     92     1   109.8800469 414.216000
     87     91     93     1   109.8800469 414.216000
     87     94     95     1   109.8800469 414.216000
     87     94     96     1   109.8800469 414.216000
     88    100    101     1   109.8000471 387.438400
     88    100    102     1   109.8000471 387.438400
     89     88    100     1   109.5600471 388.275200
     89     88     90     1   108.4600466 328.025600
     90     88    100     1   109.5600471 388.275200
     91    103    104     1   109.8000471 387.438400
     91    103    105     1   109.8000471 387.438400
     92     91    103     1   109.5600471 388.275200
     92     91     93     1   108.4600466 328.025600
     93     91    103     1   109.5600471 388.275200
     94     97     98     1   109.8000471 387.438400
     94     97     99     1   109.8000471 387.438400
     95     94     97     1   109.5600471 388.275200
     95     94     96     1   108.4600466 328.025600
     96     94     97     1   109.5600471 388.275200
     97    106    107     1   109.5600471 388.275200
     97    106    108     1   109.5600471 388.275200
     98     97    106     1   109.8000471 387.438400
     98     97     99     1   107.5800459 329.699200
     99     97    106     1   109.8000471 387.438400
    100    112    113     1   109.5600471 388.275200
    100    112    114     1   109.5600471 388.275200
    101    100    112     1   109.8000471 387.438400
    101    100    102     1   107.5800459 329.699200
    102    100    112     1   109.8000471 387.438400
    103    109    110     1   109.5600471 388.275200
    103    109    111     1   109.5600471 388.275200
    104    103    109     1   109.8000471 387.438400
    104    103    105     1   107.5800459 329.699200
    105    103    109     1   109.8000471 387.438400
    107    106    115     1   109.7800468 425.094400
    107    106    108     1   108.4600466 328.025600
    108    106    115     1   109.7800468 425.094400
    110    109    266     1   109.7800468 425.094400
    110    109    111     1   108.4600466 328.025600
    111    109    266     1   109.7800468 425.094400
    113    112    297     1   109.7800468 425.094400
    113    112    114     1   108.4600466 328.025600
    114    112    297     1   109.7800468 425.094400
    116    117    118     1   109.8800469 414.216000
    116    117    119     1   109.8800469 414.216000
    116    120    121     1   109.8800469 414.216000
    116    120    122     1   109.8800469 414.216000
    116    123    124     1   109.8800469 414.216000
    116    123    125     1   109.8800469 414.216000
    117    129    130     1   109.8000471 387.438400
    117    129    131     1   109.8000471 387.438400
    118    117    129     1   109.5600471 388.275200
    118    117    119     1   108.4600466 328.025600
    119    117    129     1   109.5600471 388.275200
    120    132    133     1   109.8000471 387.438400
    120    132    134     1   109.8000471 387.438400
    121    120    132     1   109.5600471 388.275200
    121    120    122     1   108.4600466 328.025600
    122    120    132     1   109.5600471 388.275200
    123    126    127     1   109.8000471 387.438400
    123    126    128     1   109.8000471 387.438400
    124    123    126     1   109.5600471 388.275200
    124    123    125     1   108.4600466 328.025600
    125    123    126     1   109.5600471 388.275200
    126    135    136     1   109.5600471 388.275200
    126    135    137     1   109.5600471 388.275200
    127    126    135     1   109.8000471 387.438400
    127    126    128     1   107.5800459 329.699200
    128    126    135     1   109.8000471 387.438400
    129    141    142     1   109.5600471 388.275200
    129    141    143     1   109.5600471 388.275200
    130    129    141     1   109.8000471 387.438400
    130    129    131     1   107.5800459 329.699200
    131    129    141     1   109.8000471 387.438400
    132    138    139     1   109.5600471 388.275200
    132    138    140     1   109.5600471 388.275200
    133    132    138     1   109.8000471 387.438400
    133    132    134     1   107.5800459 329.699200
    134    132    138     1   109.8000471 387.438400
    136    135    144     1   109.7800468 425.094400
    136    135    137     1   108.4600466 328.025600
    137    135    144     1   109.7800468 425.094400
    139    138    328     1   109.7800468 425.094400
    139    138    140     1   108.4600466 328.025600
    140    138    328     1   109.7800468 425.094400
    142    141    359     1   109.7800468 425.094400
    142    141    143     1   108.4600466 328.025600
    143    141    359     1   109.7800468 425.094400
    145    146    147     1   109.8800469 414.216000
    145    146    148     1   109.8800469 414.216000
    145    149    150     1   109.8800469 414.216000
    145    149    151     1   109.8800469 414.216000
    145    152    153     1   109.8800469 414.216000
    145    152    154     1   109.8800469 414.216000
    146    158    159     1   109.8000471 387.438400
    146    158    160     1   109.8000471 387.438400
    147    146    158     1   109.5600471 388.275200
    147    146    148     1   108.4600466 328.025600
    148    146    158     1   109.5600471 388.275200
    149    161    162     1   109.8000471 387.438400
    149    161    163     1   109.8000471 387.438400
    150    149    161     1   109.5600471 388.275200
    150    149    151     1   108.4600466 328.025600
    151    149    161     1   109.5600471 388.275200
    152    155    156     1   109.8000471 387.438400
    152    155    157     1   109.8000471 387.438400
    153    152    155     1   109.5600471 388.275200
    153    152    154     1   108.4600466 328.025600
    154    152    155     1   109.5600471 388.275200
    155    164    165     1   109.5600471 388.275200
    155    164    166     1   109.5600471 388.275200
    156    155    164     1   109.8000471 387.438400
    156    155    157     1   107.5800459 329.699200
    157    155    164     1   109.8000471 387.438400
    158    170    171     1   109.5600471 388.275200
    158    170    172     1   109.5600471 388.275200
    159    158    170     1   109.8000471 387.438400
    159    158    160     1   107.5800459 329.699200
    160    158    170     1   109.8000471 387.438400
    161    167    168     1   109.5600471 388.275200
    161    167    169     1   109.5600471 388.275200
    162    161    167     1   109.8000471 387.438400
    162    161    163     1   107.5800459 329.699200
    163    161    167     1   109.8000471 387.438400
    165    164    173     1   109.7800468 425.094400
    165    164    166     1   108.4600466 328.025600
    166    164    173     1   109.7800468 425.094400
    168    167    390     1   109.7800468 425.094400
    168    167    169     1   108.4600466 328.025600
    169    167    390     1   109.7800468 425.094400
    171    170    421     1   109.7800468 425.094400
    171    170    172     1   108.4600466 328.025600
    172    170    421     1   109.7800468 425.094400
    174    177    178     1   109.8000471 387.438400
    174    177    179     1   109.8000471 387.438400
    175    174    177     1   109.5600471 388.275200
    175    174    204     1   109.7800468 425.094400
    175    174    176     1   108.4600466 328.025600
    176    174    177     1   109.5600471 388.275200
    176    174    204     1   109.7800468 425.094400
    177    180    181     1   109.5600471 388.275200
    177    180    182     1   109.5600471 388.275200
    178    177    180     1   109.8000471 387.438400
    178    177    179     1   107.5800459 329.699200
    179    177    180     1   109.8000471 387.438400
    181    180    183     1   109.8800469 414.216000
    181    180    182     1   108.4600466 328.025600
    182    180    183     1   109.8800469 414.216000
    183    184    185     1   109.8800469 414.216000
    183    184    186     1   109.8800469 414.216000
    183    194    195     1   109.8800469 414.216000
    183    194    196     1   109.8800469 414.216000
    184    187    188     1   109.8000471 387.438400
    184    187    189     1   109.8000471 387.438400
    185    184    187     1   109.5600471 388.275200
    185    184    186     1   108.4600466 328.025600
    186    184    187     1   109.5600471 388.275200
    188    187    190     1   108.7700466 392.459200
    188    187    189     1   107.5800459 329.699200
    189    187    190     1   108.7700466 392.459200
    190    192    193     1   106.5500460 417.563200
    194    197    198     1   109.8000471 387.438400
    194    197    199     1   109.8000471 387.438400
    195    194    197     1   109.5600471 388.275200
    195    194    196     1   108.4600466 328.025600
    196    194    197     1   109.5600471 388.275200
    198    197    200     1   108.7700466 392.459200
    198    197    199     1   107.5800459 329.699200
    199    197    200     1   108.7700466 392.459200
    200    202    203     1   106.5500460 417.563200
    205    208    209     1   109.8000471 387.438400
    205    208    210     1   109.8000471 387.438400
    206    205    208     1   109.5600471 388.275200
    206    205    235     1   109.7800468 425.094400
    206    205    207     1   108.4600466 328.025600
    207    205    208     1   109.5600471 388.275200
    207    205    235     1   109.7800468 425.094400
    208    211    212     1   109.5600471 388.275200
    208    211    213     1   109.5600471 388.275200
    209    208    211     1   109.8000471 387.438400
    209    208    210     1   107.5800459 329.699200
    210    208    211     1   109.8000471 387.438400
    212    211    214     1   109.8800469 414.216000
    212    211    213     1   108.4600466 328.025600
    213    211    214     1   109.8800469 414.216000
    214    215    216     1   109.8800469 414.216000
    214    215    217     1   109.8800469 414.216000
    214    225    226     1   109.8800469 414.216000
    214    225    227     1   109.8800469 414.216000
    215    218    219     1   109.8000471 387.438400
    215    218    220     1   109.8000471 387.438400
    216    215    218     1   109.5600471 388.275200
    216    215    217     1   108.4600466 328.025600
    217    215    218     1   109.5600471 388.275200
    219    218    221     1   108.7700466 392.459200
    219    218    220     1   107.5800459 329.699200
    220    218    221     1   108.7700466 392.459200
    221    223    224     1   106.5500460 417.563200
    225    228    229     1   109.8000471 387.438400
    225    228    230     1   109.8000471 387.438400
    226    225    228     1   109.5600471 388.275200
    226    225    227     1   108.4600466 328.025600
    227    225    228     1   109.5600471 388.275200
    229    228    231     1   108.7700466 392.459200
    229    228    230     1   107.5800459 329.699200
    230    228    231     1   108.7700466 392.459200
    231    233    234     1   106.5500460 417.563200
    236    239    240     1   109.8000471 387.438400
    236    239    241     1   109.8000471 387.438400
    237    236    239     1   109.5600471 388.275200
    237    236    266     1   109.7800468 425.094400
    237    236    238     1   108.4600466 328.025600
    238    236    239     1   109.5600471 388.275200
    238    236    266     1   109.7800468 425.094400
    239    242    243     1   109.5600471 388.275200
    239    242    244     1   109.5600471 388.275200
    240    239    242     1   109.8000471 387.438400
    240    239    241     1   107.5800459 329.699200
    241    239    242     1   109.8000471 387.438400
    243    242    245     1   109.8800469 414.216000
    243    242    244     1   108.4600466 328.025600
    244    242    245     1   109.8800469 414.216000
    245    246    247     1   109.8800469 414.216000
    245    246    248     1   109.8800469 414.216000
    245    256    257     1   109.8800469 414.216000
    245    256    258     1   109.8800469 414.216000
    246    249    250     1   109.8000471 387.438400
    246    249    251     1   109.8000471 387.438400
    247    246    249     1   109.5600471 388.275200
    247    246    248     1   108.4600466 328.025600
    248    246    249     1   109.5600471 388.275200
    250    249    252     1   108.7700466 392.459200
    250    249    251     1   107.5800459 329.699200
    251    249    252     1   108.7700466 392.459200
    252    254    255     1   106.5500460 417.563200
    256    259    260     1   109.8000471 387.438400
    256    259    261     1   109.8000471 387.438400
    257    256    259     1   109.5600471 388.275200
    257    256    258     1   108.4600466 328.025600
    258    256    259     1   109.5600471 388.275200
    260    259    262     1   108.7700466 392.459200
    260    259    261     1   107.5800459 329.699200
    261    259    262     1   108.7700466 392.459200
    262    264    265     1   106.5500460 417.563200
    267    270    271     1   109.8000471 387.438400
    267    270    272     1   109.8000471 387.438400
    268    267    270     1   109.5600471 388.275200
    268    267    297     1   109.7800468 425.094400
    268    267    269     1   108.4600466 328.025600
    269    267    270     1   109.5600471 388.275200
    269    267    297     1   109.7800468 425.094400
    270    273    274     1   109.5600471 388.275200
    270    273    275     1   109.5600471 388.275200
    271    270    273     1   109.8000471 387.438400
    271    270    272     1   107.5800459 329.699200
    272    270    273     1   109.8000471 387.438400
    274    273    276     1   109.8800469 414.216000
    274    273    275     1   108.4600466 328.025600
    275    273    276     1   109.8800469 414.216000
    276    277    278     1   109.8800469 414.216000
    276    277    279     1   109.8800469 414.216000
    276    287    288     1   109.8800469 414.216000
    276    287    289     1   109.8800469 414.216000
    277    280    281     1   109.8000471 387.438400
    277    280    282     1   109.8000471 387.438400
    278    277    280     1   109.5600471 388.275200
    278    277    279     1   108.4600466 328.025600
    279    277    280     1   109.5600471 388.275200
    281    280    283     1   108.7700466 392.459200
    281    280    282     1   107.5800459 329.699200
    282    280    283     1   108.7700466 392.459200
    283    285    286     1   106.5500460 417.563200
    287    290    291     1   109.8000471 387.438400
    287    290    292     1   109.8000471 387.438400
    288    287    290     1   109.5600471 388.275200
    288    287    289     1   108.4600466 328.025600
    289    287    290     1   109.5600471 388.275200
    291    290    293     1   108.7700466 392.459200
    291    290    292     1   107.5800459 329.699200
    292    290    293     1   108.7700466 392.459200
    293    295    296     1   106.5500460 417.563200
    298    301    302     1   109.8000471 387.438400
    298    301    303     1   109.8000471 387.438400
    299    298    301     1   109.5600471 388.275200
    299    298    328     1   109.7800468 425.094400
    299    298    300     1   108.4600466 328.025600
    300    298    301     1   109.5600471 388.275200
    300    298    328     1   109.7800468 425.094400
    301    304    305     1   109.5600471 388.275200
    301    304    306     1   109.5600471 388.275200
    302    301    304     1   109.8000471 387.438400
    302    301    303     1   107.5800459 329.699200
    303    301    304     1   109.8000471 387.438400
    305    304    307     1   109.8800469 414.216000
    305    304    306     1   108.4600466 328.025600
    306    304    307     1   109.8800469 414.216000
    307    308    309     1   109.8800469 414.216000
    307    308    310     1   109.8800469 414.216000
    307    318    319     1   109.8800469 414.216000
    307    318    320     1   109.8800469 414.216000
    308    311    312     1   109.8000471 387.438400
    308    311    313     1   109.8000471 387.438400
    309    308    311     1   109.5600471 388.275200
    309    308    310     1   108.4600466 328.025600
    310    308    311     1   109.5600471 388.275200
    312    311    314     1   108.7700466 392.459200
    312    311    313     1   107.5800459 329.699200
    313    311    314     1   108.7700466 392.459200
    314    316    317     1   106.5500460 417.563200
    318    321    322     1   109.8000471 387.438400
    318    321    323     1   109.8000471 387.438400
    319    318    321     1   109.5600471 388.275200
    319    318    320     1   108.4600466 328.025600
    320    318    321     1   109.5600471 388.275200
    322    321    324     1   108.7700466 392.459200
    322    321    323     1   107.5800459 329.699200
    323    321    324     1   108.7700466 392.459200
    324    326    327     1   106.5500460 417.563200
    329    332    333     1   109.8000471 387.438400
    329    332    334     1   109.8000471 387.438400
    330    329    332     1   109.5600471 388.275200
    330    329    359     1   109.7800468 425.094400
    330    329    331     1   108.4600466 328.025600
    331    329    332     1   109.5600471 388.275200
    331    329    359     1   109.7800468 425.094400
    332    335    336     1   109.5600471 388.275200
    332    335    337     1   109.5600471 388.275200
    333    332    335     1   109.8000471 387.438400
    333    332    334     1   107.5800459 329.699200
    334    332    335     1   109.8000471 387.438400
    336    335    338     1   109.8800469 414.216000
    336    335    337     1   108.4600466 328.025600
    337    335    338     1   109.8800469 414.216000
    338    339    340     1   109.8800469 414.216000
    338    339    341     1   109.8800469 414.216000
    338    349    350     1   109.8800469 414.216000
    338    349    351     1   109.8800469 414.216000
    339    342    343     1   109.8000471 387.438400
    339    342    344     1   109.8000471 387.438400
    340    339    342     1   109.5600471 388.275200
    340    339    341     1   108.4600466 328.025600
    341    339    342     1   109.5600471 388.275200
    343    342    345     1   108.7700466 392.459200
    343    342    344     1   107.5800459 329.699200
    344    342    345     1   108.7700466 392.459200
    345    347    348     1   106.5500460 417.563200
    349    352    353     1   109.8000471 387.438400
    349    352    354     1   109.8000471 387.438400
    350    349    352     1   109.5600471 388.275200
    350    349    351     1   108.4600466 328.025600
    351    349    352     1   109.5600471 388.275200
    353    352    355     1   108.7700466 392.459200
    353    352    354     1   107.5800459 329.699200
    354    352    355     1   108.7700466 392.459200
    355    357    358     1   106.5500460 417.563200
    360    363    364     1   109.8000471 387.438400
    360    363    365     1   109.8000471 387.438400
    361    360    363     1   109.5600471 388.275200
    361    360    390     1   109.7800468 425.094400
    361    360    362     1   108.4600466 328.025600
    362    360    363     1   109.5600471 388.275200
    362    360    390     1   109.7800468 425.094400
    363    366    367     1   109.5600471 388.275200
    363    366    368     1   109.5600471 388.275200
    364    363    366     1   109.8000471 387.438400
    364    363    365     1   107.5800459 329.699200
    365    363    366     1   109.8000471 387.438400
    367    366    369     1   109.8800469 414.216000
    367    366    368     1   108.4600466 328.025600
    368    366    369     1   109.8800469 414.216000
    369    370    371     1   109.8800469 414.216000
    369    370    372     1   109.8800469 414.216000
    369    380    381     1   109.8800469 414.216000
    369    380    382     1   109.8800469 414.216000
    370    373    374     1   109.8000471 387.438400
    370    373    375     1   109.8000471 387.438400
    371    370    373     1   109.5600471 388.275200
    371    370    372     1   108.4600466 328.025600
    372    370    373     1   109.5600471 388.275200
    374    373    376     1   108.7700466 392.459200
    374    373    375     1   107.5800459 329.699200
    375    373    376     1   108.7700466 392.459200
    376    378    379     1   106.5500460 417.563200
    380    383    384     1   109.8000471 387.438400
    380    383    385     1   109.8000471 387.438400
    381    380    383     1   109.5600471 388.275200
    381    380    382     1   108.4600466 328.025600
    382    380    383     1   109.5600471 388.275200
    384    383    386     1   108.7700466 392.459200
    384    383    385     1   107.5800459 329.699200
    385    383    386     1   108.7700466 392.459200
    386    388    389     1   106.5500460 417.563200
    391    394    395     1   109.8000471 387.438400
    391    394    396     1   109.8000471 387.438400
    392    391    394     1   109.5600471 388.275200
    392    391    421     1   109.7800468 425.094400
    392    391    393     1   108.4600466 328.025600
    393    391    394     1   109.5600471 388.275200
    393    391    421     1   109.7800468 425.094400
    394    397    398     1   109.5600471 388.275200
    394    397    399     1   109.5600471 388.275200
    395    394    397     1   109.8000471 387.438400
    395    394    396     1   107.5800459 329.699200
    396    394    397     1   109.8000471 387.438400
    398    397    400     1   109.8800469 414.216000
    398    397    399     1   108.4600466 328.025600
    399    397    400     1   109.8800469 414.216000
    400    401    402     1   109.8800469 414.216000
    400    401    403     1   109.8800469 414.216000
    400    411    412     1   109.8800469 414.216000
    400    411    413     1   109.8800469 414.216000
    401    404    405     1   109.8000471 387.438400
    401    404    406     1   109.8000471 387.438400
    402    401    404     1   109.5600471 388.275200
    402    401    403     1   108.4600466 328.025600
    403    401    404     1   109.5600471 388.275200
    405    404    407     1   108.7700466 392.459200
    405    404    406     1   107.5800459 329.699200
    406    404    407     1   108.7700466 392.459200
    407    409    410     1   106.5500460 417.563200
    411    414    415     1   109.8000471 387.438400
    411    414    416     1   109.8000471 387.438400
    412    411    414     1   109.5600471 388.275200
    412    411    413     1   108.4600466 328.025600
    413    411    414     1   109.5600471 388.275200
    415    414    417     1   108.7700466 392.459200
    415    414    416     1   107.5800459 329.699200
    416    414    417     1   108.7700466 392.459200
    417    419    420     1   106.5500460 417.563200

[ dihedrals ]
;    ai     aj     ak     al funct         c0         c1         c2         c3         c4         c5
      1      2      8     14     1  0.0000000  0.6508444  3
      1      5     11     17     1  0.0000000  0.6508444  3
      2      1      5     11     1  180.0000771  0.4184000  2
      2      1      5     11     1  0.0000000  1.6024720  3
      2      8     14     20     1  0.0000000  0.6508444  3
      5      1      2      8     1  180.0000771  0.4184000  2
      5      1      2      8     1  0.0000000  1.6024720  3
      5     11     17     21     1  0.0000000  0.6508444  3
      8     14     20     28     1  180.0000771  2.0083200  2
      8     14     20     28     1  0.0000000  1.2552000  3
      8     14     20     31     1  180.0000771  2.0083200  2
      8     14     20     31     1  0.0000000  1.2552000  3
     11     17     21     22     1  180.0000771  2.0083200  2
     11     17     21     22     1  0.0000000  1.2552000  3
     11     17     21     25     1  180.0000771  2.0083200  2
     11     17     21     25     1  0.0000000  1.2552000  3
     14     20     28     40     1  180.0000771  2.0083200  2
     14     20     28     40     1  0.0000000  1.2552000  3
     14     20     31     43     1  180.0000771  2.0083200  2
     14     20     31     43     1  0.0000000  1.2552000  3
     17     21     22     34     1  180.0000771  2.0083200  2
     17     21     22     34     1  0.0000000  1.2552000  3
     17     21     25     37     1  180.0000771  2.0083200  2
     17     21     25     37     1  0.0000000  1.2552000  3
     20     28     40     49     1  0.0000000  0.6508444  3
     20     31     43     46     1  0.0000000  0.6508444  3
     21     22     34     55     1  0.0000000  0.6508444  3
     21     25     37     52     1  0.0000000  0.6508444  3
     22     21     25     37     1  180.0000771  2.0083200  2
     22     21     25     37     1  0.0000000  1.2552000  3
     22     34     55    173     1  0.0000000  0.6508444  3
     25     21     22     34     1  180.0000771  2.0083200  2
     25     21     22     34     1  0.0000000  1.2552000  3
     25     37     52    144     1  0.0000000  0.6508444  3
     28     20     31     43     1  180.0000771  2.0083200  2
     28     20     31     43     1  0.0000000  1.2552000  3
     28     40     49    115     1  0.0000000  0.6508444  3
     31     20     28     40     1  180.0000771  2.0083200  2
     31     20     28     40     1  0.0000000  1.2552000  3
     31     43     46     86     1  0.0000000  0.6508444  3
     34     55    173    164     1  180.0000771  0.4184000  2
     34     55    173    164     1  0.0000000  1.6024720  3
     37     52    144    135     1  180.0000771  0.4184000  2
     37     52    144    135     1  0.0000000  1.6024720  3
     40     49    115    106     1  180.0000771  0.4184000  2
     40     49    115    106     1  0.0000000  1.6024720  3
     43     46     86     77     1  180.0000771  0.4184000  2
     43     46     86     77     1  0.0000000  1.6024720  3
     46     86     77     68     1  180.0000771  0.4184000  2
     46     86     77     68     1  0.0000000  1.6024720  3
     49    115    106     97     1  180.0000771  0.4184000  2
     49    115    106     97     1  0.0000000  1.6024720  3
     52    144    135    126     1  180.0000771  0.4184000  2
     52    144    135    126     1  0.0000000  1.6024720  3
     55    173    164    155     1  180.0000771  0.4184000  2
     55    173    164    155     1  0.0000000  1.6024720  3
     58     59     71     83     1  0.0000000  0.6508444  3
     58     62     74     80     1  0.0000000  0.6508444  3
     58     65     68     77     1  0.0000000  0.6508444  3
     59     58     62     74     1  180.0000771  2.0083200  2
     59     58     62     74     1  0.0000000  1.2552000  3
     59     58     65     68     1  180.0000771  2.0083200  2
     59     58     65     68     1  0.0000000  1.2552000  3
     59     71     83    235     1  0.0000000  0.6508444  3
     62     58     59     71     1  180.0000771  2.0083200  2
     62     58     59     71     1  0.0000000  1.2552000  3
     62     58     65     68     1  180.0000771  2.0083200  2
     62     58     65     68     1  0.0000000  1.2552000  3
     62     74     80    204     1  0.0000000  0.6508444  3
     65     58     59     71     1  180.0000771  2.0083200  2
     65     58     59     71     1  0.0000000  1.2552000  3
     65     58     62     74     1  180.0000771  2.0083200  2
     65     58     62     74     1  0.0000000  1.2552000  3
     65     68     77     86     1  0.0000000  0.6508444  3
     71     83    235    205     1  180.0000771  0.4184000  2
     71     83    235    205     1  0.0000000  1.6024720  3
     74     80    204    174     1  180.0000771  0.4184000  2
     74     80    204    174     1  0.0000000  1.6024720  3
     80    204    174    177     1  180.0000771  0.4184000  2
     80    204    174    177     1  0.0000000  1.6024720  3
     83    235    205    208     1  180.0000771  0.4184000  2
     83    235    205    208     1  0.0000000  1.6024720  3
     87     88    100    112     1  0.0000000  0.6508444  3
     87     91    103    109     1  0.0000000  0.6508444  3
     87     94     97    106     1  0.0000000  0.6508444  3
     88     87     91    103     1  180.0000771  2.0083200  2
     88     87     91    103     1  0.0000000  1.2552000  3
     88     87     94     97     1  180.0000771  2.0083200  2
     88     87     94     97     1  0.0000000  1.2552000  3
     88    100    112    297     1  0.0000000  0.6508444  3
     91     87     88    100     1  180.0000771  2.0083200  2
     91     87     88    100     1  0.0000000  1.2552000  3
     91     87     94     97     1  180.0000771  2.0083200  2
     91     87     94     97     1  0.0000000  1.2552000  3
     91    103    109    266     1  0.0000000  0.6508444  3
     94     87     88    100     1  180.0000771  2.0083200  2
     94     87     88    100     1  0.0000000  1.2552000  3
     94     87     91    103     1  180.0000771  2.0083200  2
     94     87     91    103     1  0.0000000  1.2552000  3
     94     97    106    115     1  0.0000000  0.6508444  3
    100    112    297    267     1  180.0000771  0.4184000  2
    100    112    297    267     1  0.0000000  1.6024720  3
    103    109    266    236     1  180.0000771  0.4184000  2
    103    109    266    236     1  0.0000000  1.6024720  3
    109    266    236    239     1  180.0000771  0.4184000  2
    109    266    236    239     1  0.0000000  1.6024720  3
    112    297    267    270     1  180.0000771  0.4184000  2
    112    297    267    270     1  0.0000000  1.6024720  3
    116    117    129    141     1  0.0000000  0.6508444  3
    116    120    132    138     1  0.0000000  0.6508444  3
    116    123    126    135     1  0.0000000  0.6508444  3
    117    116    120    132     1  180.0000771  2.0083200  2
    117    116    120    132     1  0.0000000  1.2552000  3
    117    116    123    126     1  180.0000771  2.0083200  2
    117    116    123    126     1  0.0000000  1.2552000  3
    117    129    141    359     1  0.0000000  0.6508444  3
    120    116    117    129     1  180.0000771  2.0083200  2
    120    116    117    129     1  0.0000000  1.2552000  3
    120    116    123    126     1  180.0000771  2.0083200  2
    120    116    123    126     1  0.0000000  1.2552000  3
    120    132    138    328     1  0.0000000  0.6508444  3
    123    116    117    129     1  180.0000771  2.0083200  2
    123    116    117    129     1  0.0000000  1.2552000  3
    123    116    120    132     1  180.0000771  2.0083200  2
    123    116    120    132     1  0.0000000  1.2552000  3
    123    126    135    144     1  0.0000000  0.6508444  3
    129    141    359    329     1  180.0000771  0.4184000  2
    129    141    359    329     1  0.0000000  1.6024720  3
    132    138    328    298     1  180.0000771  0.4184000  2
    132    138    328    298     1  0.0000000  1.6024720  3
    138    328    298    301     1  180.0000771  0.4184000  2
    138    328    298    301     1  0.0000000  1.6024720  3
    141    359    329    332     1  180.0000771  0.4184000  2
    141    359    329    332     1  0.0000000  1.6024720  3
    145    146    158    170     1  0.0000000  0.6508444  3
    145    149    161    167     1  0.0000000  0.6508444  3
    145    152    155    164     1  0.0000000  0.6508444  3
    146    145    149    161     1  180.0000771  2.0083200  2
    146    145    149    161     1  0.0000000  1.2552000  3
    146    145    152    155     1  180.0000771  2.0083200  2
    146    145    152    155     1  0.0000000  1.2552000  3
    146    158    170    421     1  0.0000000  0.6508444  3
    149    145    146    158     1  180.0000771  2.0083200  2
    149    145    146    158     1  0.0000000  1.2552000  3
    149    145    152    155     1  180.0000771  2.0083200  2
    149    145    152    155     1  0.0000000  1.2552000  3
    149    161    167    390     1  0.0000000  0.6508444  3
    152    145    146    158     1  180.0000771  2.0083200  2
    152    145    146    158     1  0.0000000  1.2552000  3
    152    145    149    161     1  180.0000771  2.0083200  2
    152    145    149    161     1  0.0000000  1.2552000  3
    152    155    164    173     1  0.0000000  0.6508444  3
    158    170    421    391     1  180.0000771  0.4184000  2
    158    170    421    391     1  0.0000000  1.6024720  3
    161    167    390    360     1  180.0000771  0.4184000  2
    161    167    390    360     1  0.0000000  1.6024720  3
    167    390    360    363     1  180.0000771  0.4184000  2
    167    390    360    363     1  0.0000000  1.6024720  3
    170    421    391    394     1  180.0000771  0.4184000  2
    170    421    391    394     1  0.0000000  1.6024720  3
    174    177    180    183     1  0.0000000  0.6508444  3
    177    180    183    184     1  180.0000771  2.0083200  2
    177    180    183    184     1  0.0000000  1.2552000  3
    177    180    183    194     1  180.0000771  2.0083200  2
    177    180    183    194     1  0.0000000  1.2552000  3
    180    177    174    204     1  0.0000000  0.6508444  3
    180    183    184    187     1  180.0000771  2.0083200  2
    180    183    184    187     1  0.0000000  1.2552000  3
    180    183    194    197     1  180.0000771  2.0083200  2
    180    183    194    197     1  0.0000000  1.2552000  3
    183    184    187    190     1  0.0000000  0.6508444  3
    183    194    197    200     1  0.0000000  0.6508444  3
    184    183    194    197     1  180.0000771  2.0083200  2
    184    183    194    197     1  0.0000000  1.2552000  3
    184    187    190    191     1  180.0000771  0.0000000  2
    184    187    190    192     1  180.0000771  0.0000000  2
    187    184    183    194     1  180.0000771  2.0083200  2
    187    184    183    194     1  0.0000000  1.2552000  3
    194    197    200    201     1  180.0000771  0.0000000  2
    194    197    200    202     1  180.0000771  0.0000000  2
    205    208    211    214     1  0.0000000  0.6508444  3
    208    211    214    215     1  180.0000771  2.0083200  2
    208    211    214    215     1  0.0000000  1.2552000  3
    208    211    214    225     1  180.0000771  2.0083200  2
    208    211    214    225     1  0.0000000  1.2552000  3
    211    214    215    218     1  180.0000771  2.0083200  2
    211    214    215    218     1  0.0000000  1.2552000  3
    211    214    225    228     1  180.0000771  2.0083200  2
    211    214    225    228     1  0.0000000  1.2552000  3
    211    208    205    235     1  0.0000000  0.6508444  3
    214    215    218    221     1  0.0000000  0.6508444  3
    214    225    228    231     1  0.0000000  0.6508444  3
    215    218    221    222     1  180.0000771  0.0000000  2
    215    218    221    223     1  180.0000771  0.0000000  2
    215    214    225    228     1  180.0000771  2.0083200  2
    215    214    225    228     1  0.0000000  1.2552000  3
    218    215    214    225     1  180.0000771  2.0083200  2
    218    215    214    225     1  0.0000000  1.2552000  3
    225    228    231    232     1  180.0000771  0.0000000  2
    225    228    231    233     1  180.0000771  0.0000000  2
    236    239    242    245     1  0.0000000  0.6508444  3
    239    242    245    246     1  180.0000771  2.0083200  2
    239    242    245    246     1  0.0000000  1.2552000  3
    239    242    245    256     1  180.0000771  2.0083200  2
    239    242    245    256     1  0.0000000  1.2552000  3
    242    239    236    266     1  0.0000000  0.6508444  3
    242    245    246    249     1  180.0000771  2.0083200  2
    242    245    246    249     1  0.0000000  1.2552000  3
    242    245    256    259     1  180.0000771  2.0083200  2
    242    245    256    259     1  0.0000000  1.2552000  3
    245    246    249    252     1  0.0000000  0.6508444  3
    245    256    259    262     1  0.0000000  0.6508444  3
    246    245    256    259     1  180.0000771  2.0083200  2
    246    245    256    259     1  0.0000000  1.2552000  3
    246    249    252    253     1  180.0000771  0.0000000  2
    246    249    252    254     1  180.0000771  0.0000000  2
    249    246    245    256     1  180.0000771  2.0083200  2
    249    246    245    256     1  0.0000000  1.2552000  3
    256    259    262    263     1  180.0000771  0.0000000  2
    256    259    262    264     1  180.0000771  0.0000000  2
    267    270    273    276     1  0.0000000  0.6508444  3
    270    273    276    277     1  180.0000771  2.0083200  2
    270    273    276    277     1  0.0000000  1.2552000  3
    270    273    276    287     1  180.0000771  2.0083200  2
    270    273    276    287     1  0.0000000  1.2552000  3
    273    276    277    280     1  180.0000771  2.0083200  2
    273    276    277    280     1  0.0000000  1.2552000  3
    273    276    287    290     1  180.0000771  2.0083200  2
    273    276    287    290     1  0.0000000  1.2552000  3
    273    270    267    297     1  0.0000000  0.6508444  3
    276    277    280    283     1  0.0000000  0.6508444  3
    276    287    290    293     1  0.0000000  0.6508444  3
    277    280    283    284     1  180.0000771  0.0000000  2
    277    280    283    285     1  180.0000771  0.0000000  2
    277    276    287    290     1  180.0000771  2.0083200  2
    277    276    287    290     1  0.0000000  1.2552000  3
    280    277    276    287     1  180.0000771  2.0083200  2
    280    277    276    287     1  0.0000000  1.2552000  3
    287    290    293    294     1  180.0000771  0.0000000  2
    287    290    293    295     1  180.0000771  0.0000000  2
    298    301    304    307     1  0.0000000  0.6508444  3
    301    304    307    308     1  180.0000771  2.0083200  2
    301    304    307    308     1  0.0000000  1.2552000  3
    301    304    307    318     1  180.0000771  2.0083200  2
    301    304    307    318     1  0.0000000  1.2552000  3
    304    301    298    328     1  0.0000000  0.6508444  3
    304    307    308    311     1  180.0000771  2.0083200  2
    304    307    308    311     1  0.0000000  1.2552000  3
    304    307    318    321     1  180.0000771  2.0083200  2
    304    307    318    321     1  0.0000000  1.2552000  3
    307    308    311    314     1  0.0000000  0.6508444  3
    307    318    321    324     1  0.0000000  0.6508444  3
    308    307    318    321     1  180.0000771  2.0083200  2
    308    307    318    321     1  0.0000000  1.2552000  3
    308    311    314    315     1  180.0000771  0.0000000  2
    308    311    314    316     1  180.0000771  0.0000000  2
    311    308    307    318     1  180.0000771  2.0083200  2
    311    308    307    318     1  0.0000000  1.2552000  3
    318    321    324    325     1  180.0000771  0.0000000  2
    318    321    324    326     1  180.0000771  0.0000000  2
    329    332    335    338     1  0.0000000  0.6508444  3
    332    335    338    339     1  180.0000771  2.0083200  2
    332    335    338    339     1  0.0000000  1.2552000  3
    332    335    338    349     1  180.0000771  2.0083200  2
    332    335    338    349     1  0.0000000  1.2552000  3
    335    338    339    342     1  180.0000771  2.0083200  2
    335    338    339    342     1  0.0000000  1.2552000  3
    335    338    349    352     1  180.0000771  2.0083200  2
    335    338    349    352     1  0.0000000  1.2552000  3
    335    332    329    359     1  0.0000000  0.6508444  3
    338    339    342    345     1  0.0000000  0.6508444  3
    338    349    352    355     1  0.0000000  0.6508444  3
    339    342    345    346     1  180.0000771  0.0000000  2
    339    342    345    347     1  180.0000771  0.0000000  2
    339    338    349    352     1  180.0000771  2.0083200  2
    339    338    349    352     1  0.0000000  1.2552000  3
    342    339    338    349     1  180.0000771  2.0083200  2
    342    339    338    349     1  0.0000000  1.2552000  3
    349    352    355    356     1  180.0000771  0.0000000  2
    349    352    355    357     1  180.0000771  0.0000000  2
    360    363    366    369     1  0.0000000  0.6508444  3
    363    366    369    370     1  180.0000771  2.0083200  2
    363    366    369    370     1  0.0000000  1.2552000  3
    363    366    369    380     1  180.0000771  2.0083200  2
    363    366    369    380     1  0.0000000  1.2552000  3
    366    363    360    390     1  0.0000000  0.6508444  3
    366    369    370    373     1  180.0000771  2.0083200  2
    366    369    370    373     1  0.0000000  1.2552000  3
    366    369    380    383     1  180.0000771  2.0083200  2
    366    369    380    383     1  0.0000000  1.2552000  3
    369    370    373    376     1  0.0000000  0.6508444  3
    369    380    383    386     1  0.0000000  0.6508444  3
    370    369    380    383     1  180.0000771  2.0083200  2
    370    369    380    383     1  0.0000000  1.2552000  3
    370    373    376    377     1  180.0000771  0.0000000  2
    370    373    376    378     1  180.0000771  0.0000000  2
    373    370    369    380     1  180.0000771  2.0083200  2
    373    370    369    380     1  0.0000000  1.2552000  3
    380    383    386    387     1  180.0000771  0.0000000  2
    380    383    386    388     1  180.0000771  0.0000000  2
    391    394    397    400     1  0.0000000  0.6508444  3
    394    397    400    401     1  180.0000771  2.0083200  2
    394    397    400    401     1  0.0000000  1.2552000  3
    394    397    400    411     1  180.0000771  2.0083200  2
    394    397    400    411     1  0.0000000  1.2552000  3
    397    400    401    404     1  180.0000771  2.0083200  2
    397    400    401    404     1  0.0000000  1.2552000  3
    397    400    411    414     1  180.0000771  2.0083200  2
    397    400    411    414     1  0.0000000  1.2552000  3
    397    394    391    421     1  0.0000000  0.6508444  3
    400    401    404    407     1  0.0000000  0.6508444  3
    400    411    414    417     1  0.0000000  0.6508444  3
    401    404    407    408     1  180.0000771  0.0000000  2
    401    404    407    409     1  180.0000771  0.0000000  2
    401    400    411    414     1  180.0000771  2.0083200  2
    401    400    411    414     1  0.0000000  1.2552000  3
    404    401    400    411     1  180.0000771  2.0083200  2
    404    401    400    411     1  0.0000000  1.2552000  3
    411    414    417    418     1  180.0000771  0.0000000  2
    411    414    417    419     1  180.0000771  0.0000000  2
    187    191    190    192     4  180.0000771  4.6024000  2
    197    201    200    202     4  180.0000771  4.6024000  2
    218    222    221    223     4  180.0000771  4.6024000  2
    228    232    231    233     4  180.0000771  4.6024000  2
    249    253    252    254     4  180.0000771  4.6024000  2
    259    263    262    264     4  180.0000771  4.6024000  2
    280    284    283    285     4  180.0000771  4.6024000  2
    290    294    293    295     4  180.0000771  4.6024000  2
    311    315    314    316     4  180.0000771  4.6024000  2
    321    325    324    326     4  180.0000771  4.6024000  2
    342    346    345    347     4  180.0000771  4.6024000  2
    352    356    355    357     4  180.0000771  4.6024000  2
    373    377    376    378     4  180.0000771  4.6024000  2
    383    387    386    388     4  180.0000771  4.6024000  2
    404    408    407    409     4  180.0000771  4.6024000  2
    414    418    417    419     4  180.0000771  4.6024000  2
      1      2      8      9     1  0.0000000  1.0460000  1
      1      2      8      9     1  0.0000000  0.0000000  3
      1      2      8     10     1  0.0000000  1.0460000  1
      1      2      8     10     1  0.0000000  0.0000000  3
      1      5     11     12     1  0.0000000  1.0460000  1
      1      5     11     12     1  0.0000000  0.0000000  3
      1      5     11     13     1  0.0000000  1.0460000  1
      1      5     11     13     1  0.0000000  0.0000000  3
      2      1      5      6     1  0.0000000  1.6038667  3
      2      1      5      7     1  0.0000000  1.6038667  3
      2      8     14     15     1  0.0000000  0.6508444  3
      2      8     14     16     1  0.0000000  0.6508444  3
      5      1      2      3     1  0.0000000  1.6038667  3
      3      2      8     14     1  0.0000000  0.6508444  3
      3      2      8      9     1  0.0000000  0.6508444  3
      3      2      8     10     1  0.0000000  0.6508444  3
      5      1      2      4     1  0.0000000  1.6038667  3
      4      2      8     14     1  0.0000000  0.6508444  3
      4      2      8      9     1  0.0000000  0.6508444  3
      4      2      8     10     1  0.0000000  0.6508444  3
      5     11     17     18     1  0.0000000  0.6508444  3
      5     11     17     19     1  0.0000000  0.6508444  3
      6      5     11     17     1  0.0000000  0.6508444  3
      6      5     11     12     1  0.0000000  0.6508444  3
      6      5     11     13     1  0.0000000  0.6508444  3
      7      5     11     17     1  0.0000000  0.6508444  3
      7      5     11     12     1  0.0000000  0.6508444  3
      7      5     11     13     1  0.0000000  0.6508444  3
      9      8     14     20     1  0.0000000  0.6508444  3
      9      8     14     15     1  0.0000000  0.6508444  3
      9      8     14     16     1  0.0000000  0.6508444  3
     10      8     14     20     1  0.0000000  0.6508444  3
     10      8     14     15     1  0.0000000  0.6508444  3
     10      8     14     16     1  0.0000000  0.6508444  3
     12     11     17     21     1  0.0000000  0.6508444  3
     12     11     17     18     1  0.0000000  0.6508444  3
     12     11     17     19     1  0.0000000  0.6508444  3
     13     11     17     21     1  0.0000000  0.6508444  3
     13     11     17     18     1  0.0000000  0.6508444  3
     13     11     17     19     1  0.0000000  0.6508444  3
     14     20     28     29     1  0.0000000  1.2552000  3
     14     20     28     30     1  0.0000000  1.2552000  3
     14     20     31     32     1  0.0000000  1.2552000  3
     14     20     31     33     1  0.0000000  1.2552000  3
     15     14     20     28     1  0.0000000  1.2552000  3
     15     14     20     31     1  0.0000000  1.2552000  3
     16     14     20     28     1  0.0000000  1.2552000  3
     16     14     20     31     1  0.0000000  1.2552000  3
     17     21     22     23     1  0.0000000  1.2552000  3
     17     21     22     24     1  0.0000000  1.2552000  3
     17     21     25     26     1  0.0000000  1.2552000  3
     17     21     25     27     1  0.0000000  1.2552000  3
     18     17     21     22     1  0.0000000  1.2552000  3
     18     17     21     25     1  0.0000000  1.2552000  3
     19     17     21     22     1  0.0000000  1.2552000  3
     19     17     21     25     1  0.0000000  1.2552000  3
     20     28     40     41     1  0.0000000  0.6508444  3
     20     28     40     42     1  0.0000000  0.6508444  3
     20     31     43     44     1  0.0000000  0.6508444  3
     20     31     43     45     1  0.0000000  0.6508444  3
     21     22     34     35     1  0.0000000  0.6508444  3
     21     22     34     36     1  0.0000000  0.6508444  3
     21     25     37     38     1  0.0000000  0.6508444  3
     21     25     37     39     1  0.0000000  0.6508444  3
     22     21     25     26     1  0.0000000  1.2552000  3
     22     21     25     27     1  0.0000000  1.2552000  3
     22     34     55     56     1  0.0000000  0.6508444  3
     22     34     55     57     1  0.0000000  0.6508444  3
     23     22     21     25     1  0.0000000  1.2552000  3
     23     22     34     55     1  0.0000000  0.6508444  3
     23     22     34     35     1  0.0000000  0.6508444  3
     23     22     34     36     1  0.0000000  0.6508444  3
     24     22     21     25     1  0.0000000  1.2552000  3
     24     22     34     55     1  0.0000000  0.6508444  3
     24     22     34     35     1  0.0000000  0.6508444  3
     24     22     34     36     1  0.0000000  0.6508444  3
     25     37     52     53     1  0.0000000  0.6508444  3
     25     37     52     54     1  0.0000000  0.6508444  3
     26     25     37     52     1  0.0000000  0.6508444  3
     26     25     37     38     1  0.0000000  0.6508444  3
     26     25     37     39     1  0.0000000  0.6508444  3
     27     25     37     52     1  0.0000000  0.6508444  3
     27     25     37     38     1  0.0000000  0.6508444  3
     27     25     37     39     1  0.0000000  0.6508444  3
     28     20     31     32     1  0.0000000  1.2552000  3
     28     20     31     33     1  0.0000000  1.2552000  3
     28     40     49     50     1  0.0000000  0.6508444  3
     28     40     49     51     1  0.0000000  0.6508444  3
     29     28     20     31     1  0.0000000  1.2552000  3
     29     28     40     49     1  0.0000000  0.6508444  3
     29     28     40     41     1  0.0000000  0.6508444  3
     29     28     40     42     1  0.0000000  0.6508444  3
     30     28     20     31     1  0.0000000  1.2552000  3
     30     28     40     49     1  0.0000000  0.6508444  3
     30     28     40     41     1  0.0000000  0.6508444  3
     30     28     40     42     1  0.0000000  0.6508444  3
     31     43     46     47     1  0.0000000  0.6508444  3
     31     43     46     48     1  0.0000000  0.6508444  3
     32     31     43     46     1  0.0000000  0.6508444  3
     32     31     43     44     1  0.0000000  0.6508444  3
     32     31     43     45     1  0.0000000  0.6508444  3
     33     31     43     46     1  0.0000000  0.6508444  3
     33     31     43     44     1  0.0000000  0.6508444  3
     33     31     43     45     1  0.0000000  0.6508444  3
     35     34     55    173     1  0.0000000  1.0460000  1
     35     34     55    173     1  0.0000000  0.0000000  3
     35     34     55     56     1  0.0000000  0.6508444  3
     35     34     55     57     1  0.0000000  0.6508444  3
     36     34     55    173     1  0.0000000  1.0460000  1
     36     34     55    173     1  0.0000000  0.0000000  3
     36     34     55     56     1  0.0000000  0.6508444  3
     36     34     55     57     1  0.0000000  0.6508444  3
     38     37     52    144     1  0.0000000  1.0460000  1
     38     37     52    144     1  0.0000000  0.0000000  3
     38     37     52     53     1  0.0000000  0.6508444  3
     38     37     52     54     1  0.0000000  0.6508444  3
     39     37     52    144     1  0.0000000  1.0460000  1
     39     37     52    144     1  0.0000000  0.0000000  3
     39     37     52     53     1  0.0000000  0.6508444  3
     39     37     52     54     1  0.0000000  0.6508444  3
     41     40     49    115     1  0.0000000  1.0460000  1
     41     40     49    115     1  0.0000000  0.0000000  3
     41     40     49     50     1  0.0000000  0.6508444  3
     41     40     49     51     1  0.0000000  0.6508444  3
     42     40     49    115     1  0.0000000  1.0460000  1
     42     40     49    115     1  0.0000000  0.0000000  3
     42     40     49     50     1  0.0000000  0.6508444  3
     42     40     49     51     1  0.0000000  0.6508444  3
     44     43     46     86     1  0.0000000  1.0460000  1
     44     43     46     86     1  0.0000000  0.0000000  3
     44     43     46     47     1  0.0000000  0.6508444  3
     44     43     46     48     1  0.0000000  0.6508444  3
     45     43     46     86     1  0.0000000  1.0460000  1
     45     43     46     86     1  0.0000000  0.0000000  3
     45     43     46     47     1  0.0000000  0.6508444  3
     45     43     46     48     1  0.0000000  0.6508444  3
     46     86     77     78     1  0.0000000  1.6038667  3
     46     86     77     79     1  0.0000000  1.6038667  3
     47     46     86     77     1  0.0000000  1.6038667  3
     48     46     86     77     1  0.0000000  1.6038667  3
     49    115    106    107     1  0.0000000  1.6038667  3
     49    115    106    108     1  0.0000000  1.6038667  3
     50     49    115    106     1  0.0000000  1.6038667  3
     51     49    115    106     1  0.0000000  1.6038667  3
     52    144    135    136     1  0.0000000  1.6038667  3
     52    144    135    137     1  0.0000000  1.6038667  3
     53     52    144    135     1  0.0000000  1.6038667  3
     54     52    144    135     1  0.0000000  1.6038667  3
     55    173    164    165     1  0.0000000  1.6038667  3
     55    173    164    166     1  0.0000000  1.6038667  3
     56     55    173    164     1  0.0000000  1.6038667  3
     57     55    173    164     1  0.0000000  1.6038667  3
     58     59     71     72     1  0.0000000  0.6508444  3
     58     59     71     73     1  0.0000000  0.6508444  3
     58     62     74     75     1  0.0000000  0.6508444  3
     58     62     74     76     1  0.0000000  0.6508444  3
     58     65     68     69     1  0.0000000  0.6508444  3
     58     65     68     70     1  0.0000000  0.6508444  3
     59     58     62     63     1  0.0000000  1.2552000  3
     59     58     62     64     1  0.0000000  1.2552000  3
     59     58     65     66     1  0.0000000  1.2552000  3
     59     58     65     67     1  0.0000000  1.2552000  3
     59     71     83     84     1  0.0000000  0.6508444  3
     59     71     83     85     1  0.0000000  0.6508444  3
     60     59     58     62     1  0.0000000  1.2552000  3
     60     59     58     65     1  0.0000000  1.2552000  3
     60     59     71     83     1  0.0000000  0.6508444  3
     60     59     71     72     1  0.0000000  0.6508444  3
     60     59     71     73     1  0.0000000  0.6508444  3
     61     59     58     62     1  0.0000000  1.2552000  3
     61     59     58     65     1  0.0000000  1.2552000  3
     61     59     71     83     1  0.0000000  0.6508444  3
     61     59     71     72     1  0.0000000  0.6508444  3
     61     59     71     73     1  0.0000000  0.6508444  3
     62     58     65     66     1  0.0000000  1.2552000  3
     62     58     65     67     1  0.0000000  1.2552000  3
     62     74     80     81     1  0.0000000  0.6508444  3
     62     74     80     82     1  0.0000000  0.6508444  3
     63     62     58     65     1  0.0000000  1.2552000  3
     63     62     74     80     1  0.0000000  0.6508444  3
     63     62     74     75     1  0.0000000  0.6508444  3
     63     62     74     76     1  0.0000000  0.6508444  3
     64     62     58     65     1  0.0000000  1.2552000  3
     64     62     74     80     1  0.0000000  0.6508444  3
     64     62     74     75     1  0.0000000  0.6508444  3
     64     62     74     76     1  0.0000000  0.6508444  3
     65     68     77     78     1  0.0000000  0.6508444  3
     65     68     77     79     1  0.0000000  0.6508444  3
     66     65     68     77     1  0.0000000  0.6508444  3
     66     65     68     69     1  0.0000000  0.6508444  3
     66     65     68     70     1  0.0000000  0.6508444  3
     67     65     68     77     1  0.0000000  0.6508444  3
     67     65     68     69     1  0.0000000  0.6508444  3
     67     65     68     70     1  0.0000000  0.6508444  3
     69     68     77     86     1  0.0000000  1.0460000  1
     69     68     77     86     1  0.0000000  0.0000000  3
     69     68     77     78     1  0.0000000  0.6508444  3
     69     68     77     79     1  0.0000000  0.6508444  3
     70     68     77     86     1  0.0000000  1.0460000  1
     70     68     77     86     1  0.0000000  0.0000000  3
     70     68     77     78     1  0.0000000  0.6508444  3
     70     68     77     79     1  0.0000000  0.6508444  3
     72     71     83    235     1  0.0000000  1.0460000  1
     72     71     83    235     1  0.0000000  0.0000000  3
     72     71     83     84     1  0.0000000  0.6508444  3
     72     71     83     85     1  0.0000000  0.6508444  3
     73     71     83    235     1  0.0000000  1.0460000  1
     73     71     83    235     1  0.0000000  0.0000000  3
     73     71     83     84     1  0.0000000  0.6508444  3
     73     71     83     85     1  0.0000000  0.6508444  3
     75     74     80    204     1  0.0000000  1.0460000  1
     75     74     80    204     1  0.0000000  0.0000000  3
     75     74     80     81     1  0.0000000  0.6508444  3
     75     74     80     82     1  0.0000000  0.6508444  3
     76     74     80    204     1  0.0000000  1.0460000  1
     76     74     80    204     1  0.0000000  0.0000000  3
     76     74     80     81     1  0.0000000  0.6508444  3
     76     74     80     82     1  0.0000000  0.6508444  3
     80    204    174    175     1  0.0000000  1.6038667  3
     80    204    174    176     1  0.0000000  1.6038667  3
     81     80    204    174     1  0.0000000  1.6038667  3
     82     80    204    174     1  0.0000000  1.6038667  3
     83    235    205    206     1  0.0000000  1.6038667  3
     83    235    205    207     1  0.0000000  1.6038667  3
     84     83    235    205     1  0.0000000  1.6038667  3
     85     83    235    205     1  0.0000000  1.6038667  3
     87     88    100    101     1  0.0000000  0.6508444  3
     87     88    100    102     1  0.0000000  0.6508444  3
     87     91    103    104     1  0.0000000  0.6508444  3
     87     91    103    105     1  0.0000000  0.6508444  3
     87     94     97     98     1  0.0000000  0.6508444  3
     87     94     97     99     1  0.0000000  0.6508444  3
     88     87     91     92     1  0.0000000  1.2552000  3
     88     87     91     93     1  0.0000000  1.2552000  3
     88     87     94     95     1  0.0000000  1.2552000  3
     88     87     94     96     1  0.0000000  1.2552000  3
     88    100    112    113     1  0.0000000  0.6508444  3
     88    100    112    114     1  0.0000000  0.6508444  3
     89     88     87     91     1  0.0000000  1.2552000  3
     89     88     87     94     1  0.0000000  1.2552000  3
     89     88    100    112     1  0.0000000  0.6508444  3
     89     88    100    101     1  0.0000000  0.6508444  3
     89     88    100    102     1  0.0000000  0.6508444  3
     90     88     87     91     1  0.0000000  1.2552000  3
     90     88     87     94     1  0.0000000  1.2552000  3
     90     88    100    112     1  0.0000000  0.6508444  3
     90     88    100    101     1  0.0000000  0.6508444  3
     90     88    100    102     1  0.0000000  0.6508444  3
     91     87     94     95     1  0.0000000  1.2552000  3
     91     87     94     96     1  0.0000000  1.2552000  3
     91    103    109    110     1  0.0000000  0.6508444  3
     91    103    109    111     1  0.0000000  0.6508444  3
     92     91     87     94     1  0.0000000  1.2552000  3
     92     91    103    109     1  0.0000000  0.6508444  3
     92     91    103    104     1  0.0000000  0.6508444  3
     92     91    103    105     1  0.0000000  0.6508444  3
     93     91     87     94     1  0.0000000  1.2552000  3
     93     91    103    109     1  0.0000000  0.6508444  3
     93     91    103    104     1  0.0000000  0.6508444  3
     93     91    103    105     1  0.0000000  0.6508444  3
     94     97    106    107     1  0.0000000  0.6508444  3
     94     97    106    108     1  0.0000000  0.6508444  3
     95     94     97    106     1  0.0000000  0.6508444  3
     95     94     97     98     1  0.0000000  0.6508444  3
     95     94     97     99     1  0.0000000  0.6508444  3
     96     94     97    106     1  0.0000000  0.6508444  3
     96     94     97     98     1  0.0000000  0.6508444  3
     96     94     97     99     1  0.0000000  0.6508444  3
     98     97    106    115     1  0.0000000  1.0460000  1
     98     97    106    115     1  0.0000000  0.0000000  3
     98     97    106    107     1  0.0000000  0.6508444  3
     98     97    106    108     1  0.0000000  0.6508444  3
     99     97    106    115     1  0.0000000  1.0460000  1
     99     97    106    115     1  0.0000000  0.0000000  3
     99     97    106    107     1  0.0000000  0.6508444  3
     99     97    106    108     1  0.0000000  0.6508444  3
    101    100    112    297     1  0.0000000  1.0460000  1
    101    100    112    297     1  0.0000000  0.0000000  3
    101    100    112    113     1  0.0000000  0.6508444  3
    101    100    112    114     1  0.0000000  0.6508444  3
    102    100    112    297     1  0.0000000  1.0460000  1
    102    100    112    297     1  0.0000000  0.0000000  3
    102    100    112    113     1  0.0000000  0.6508444  3
    102    100    112    114     1  0.0000000  0.6508444  3
    104    103    109    266     1  0.0000000  1.0460000  1
    104    103    109    266     1  0.0000000  0.0000000  3
    104    103    109    110     1  0.0000000  0.6508444  3
    104    103    109    111     1  0.0000000  0.6508444  3
    105    103    109    266     1  0.0000000  1.0460000  1
    105    103    109    266     1  0.0000000  0.0000000  3
    105    103    109    110     1  0.0000000  0.6508444  3
    105    103    109    111     1  0.0000000  0.6508444  3
    109    266    236    237     1  0.0000000  1.6038667  3
    109    266    236    238     1  0.0000000  1.6038667  3
    110    109    266    236     1  0.0000000  1.6038667  3
    111    109    266    236     1  0.0000000  1.6038667  3
    112    297    267    268     1  0.0000000  1.6038667  3
    112    297    267    269     1  0.0000000  1.6038667  3
    113    112    297    267     1  0.0000000  1.6038667  3
    114    112    297    267     1  0.0000000  1.6038667  3
    116    117    129    130     1  0.0000000  0.6508444  3
    116    117    129    131     1  0.0000000  0.6508444  3
    116    120    132    133     1  0.0000000  0.6508444  3
    116    120    132    134     1  0.0000000  0.6508444  3
    116    123    126    127     1  0.0000000  0.6508444  3
    116    123    126    128     1  0.0000000  0.6508444  3
    117    116    120    121     1  0.0000000  1.2552000  3
    117    116    120    122     1  0.0000000  1.2552000  3
    117    116    123    124     1  0.0000000  1.2552000  3
    117    116    123    125     1  0.0000000  1.2552000  3
    117    129    141    142     1  0.0000000  0.6508444  3
    117    129    141    143     1  0.0000000  0.6508444  3
    118    117    116    120     1  0.0000000  1.2552000  3
    118    117    116    123     1  0.0000000  1.2552000  3
    118    117    129    141     1  0.0000000  0.6508444  3
    118    117    129    130     1  0.0000000  0.6508444  3
    118    117    129    131     1  0.0000000  0.6508444  3
    119    117    116    120     1  0.0000000  1.2552000  3
    119    117    116    123     1  0.0000000  1.2552000  3
    119    117    129    141     1  0.0000000  0.6508444  3
    119    117    129    130     1  0.0000000  0.6508444  3
    119    117    129    131     1  0.0000000  0.6508444  3
    120    116    123    124     1  0.0000000  1.2552000  3
    120    116    123    125     1  0.0000000  1.2552000  3
    120    132    138    139     1  0.0000000  0.6508444  3
    120    132    138    140     1  0.0000000  0.6508444  3
    121    120    116    123     1  0.0000000  1.2552000  3
    121    120    132    138     1  0.0000000  0.6508444  3
    121    120    132    133     1  0.0000000  0.6508444  3
    121    120    132    134     1  0.0000000  0.6508444  3
    122    120    116    123     1  0.0000000  1.2552000  3
    122    120    132    138     1  0.0000000  0.6508444  3
    122    120    132    133     1  0.0000000  0.6508444  3
    122    120    132    134     1  0.0000000  0.6508444  3
    123    126    135    136     1  0.0000000  0.6508444  3
    123    126    135    137     1  0.0000000  0.6508444  3
    124    123    126    135     1  0.0000000  0.6508444  3
    124    123    126    127     1  0.0000000  0.6508444  3
    124    123    126    128     1  0.0000000  0.6508444  3
    125    123    126    135     1  0.0000000  0.6508444  3
    125    123    126    127     1  0.0000000  0.6508444  3
    125    123    126    128     1  0.0000000  0.6508444  3
    127    126    135    144     1  0.0000000  1.0460000  1
    127    126    135    144     1  0.0000000  0.0000000  3
    127    126    135    136     1  0.0000000  0.6508444  3
    127    126    135    137     1  0.0000000  0.6508444  3
    128    126    135    144     1  0.0000000  1.0460000  1
    128    126    135    144     1  0.0000000  0.0000000  3
    128    126    135    136     1  0.0000000  0.6508444  3
    128    126    135    137     1  0.0000000  0.6508444  3
    130    129    141    359     1  0.0000000  1.0460000  1
    130    129    141    359     1  0.0000000  0.0000000  3
    130    129    141    142     1  0.0000000  0.6508444  3
    130    129    141    143     1  0.0000000  0.6508444  3
    131    129    141    359     1  0.0000000  1.0460000  1
    131    129    141    359     1  0.0000000  0.0000000  3
    131    129    141    142     1  0.0000000  0.6508444  3
    131    129    141    143     1  0.0000000  0.6508444  3
    133    132    138    328     1  0.0000000  1.0460000  1
    133    132    138    328     1  0.0000000  0.0000000  3
    133    132    138    139     1  0.0000000  0.6508444  3
    133    132    138    140     1  0.0000000  0.6508444  3
    134    132    138    328     1  0.0000000  1.0460000  1
    134    132    138    328     1  0.0000000  0.0000000  3
    134    132    138    139     1  0.0000000  0.6508444  3
    134    132    138    140     1  0.0000000  0.6508444  3
    138    328    298    299     1  0.0000000  1.6038667  3
    138    328    298    300     1  0.0000000  1.6038667  3
    139    138    328    298     1  0.0000000  1.6038667  3
    140    138    328    298     1  0.0000000  1.6038667  3
    141    359    329    330     1  0.0000000  1.6038667  3
    141    359    329    331     1  0.0000000  1.6038667  3
    142    141    359    329     1  0.0000000  1.6038667  3
    143    141    359    329     1  0.0000000  1.6038667  3
    145    146    158    159     1  0.0000000  0.6508444  3
    145    146    158    160     1  0.0000000  0.6508444  3
    145    149    161    162     1  0.0000000  0.6508444  3
    145    149    161    163     1  0.0000000  0.6508444  3
    145    152    155    156     1  0.0000000  0.6508444  3
    145    152    155    157     1  0.0000000  0.6508444  3
    146    145    149    150     1  0.0000000  1.2552000  3
    146    145    149    151     1  0.0000000  1.2552000  3
    146    145    152    153     1  0.0000000  1.2552000  3
    146    145    152    154     1  0.0000000  1.2552000  3
    146    158    170    171     1  0.0000000  0.6508444  3
    146    158    170    172     1  0.0000000  0.6508444  3
    147    146    145    149     1  0.0000000  1.2552000  3
    147    146    145    152     1  0.0000000  1.2552000  3
    147    146    158    170     1  0.0000000  0.6508444  3
    147    146    158    159     1  0.0000000  0.6508444  3
    147    146    158    160     1  0.0000000  0.6508444  3
    148    146    145    149     1  0.0000000  1.2552000  3
    148    146    145    152     1  0.0000000  1.2552000  3
    148    146    158    170     1  0.0000000  0.6508444  3
    148    146    158    159     1  0.0000000  0.6508444  3
    148    146    158    160     1  0.0000000  0.6508444  3
    149    145    152    153     1  0.0000000  1.2552000  3
    149    145    152    154     1  0.0000000  1.2552000  3
    149    161    167    168     1  0.0000000  0.6508444  3
    149    161    167    169     1  0.0000000  0.6508444  3
    150    149    145    152     1  0.0000000  1.2552000  3
    150    149    161    167     1  0.0000000  0.6508444  3
    150    149    161    162     1  0.0000000  0.6508444  3
    150    149    161    163     1  0.0000000  0.6508444  3
    151    149    145    152     1  0.0000000  1.2552000  3
    151    149    161    167     1  0.0000000  0.6508444  3
    151    149    161    162     1  0.0000000  0.6508444  3
    151    149    161    163     1  0.0000000  0.6508444  3
    152    155    164    165     1  0.0000000  0.6508444  3
    152    155    164    166     1  0.0000000  0.6508444  3
    153    152    155    164     1  0.0000000  0.6508444  3
    153    152    155    156     1  0.0000000  0.6508444  3
    153    152    155    157     1  0.0000000  0.6508444  3
    154    152    155    164     1  0.0000000  0.6508444  3
    154    152    155    156     1  0.0000000  0.6508444  3
    154    152    155    157     1  0.0000000  0.6508444  3
    156    155    164    173     1  0.0000000  1.0460000  1
    156    155    164    173     1  0.0000000  0.0000000  3
    156    155    164    165     1  0.0000000  0.6508444  3
    156    155    164    166     1  0.0000000  0.6508444  3
    157    155    164    173     1  0.0000000  1.0460000  1
    157    155    164    173     1  0.0000000  0.0000000  3
    157    155    164    165     1  0.0000000  0.6508444  3
    157    155    164    166     1  0.0000000  0.6508444  3
    159    158    170    421     1  0.0000000  1.0460000  1
    159    158    170    421     1  0.0000000  0.0000000  3
    159    158    170    171     1  0.0000000  0.6508444  3
    159    158    170    172     1  0.0000000  0.6508444  3
    160    158    170    421     1  0.0000000  1.0460000  1
    160    158    170    421     1  0.0000000  0.0000000  3
    160    158    170    171     1  0.0000000  0.6508444  3
    160    158    170    172     1  0.0000000  0.6508444  3
    162    161    167    390     1  0.0000000  1.0460000  1
    162    161    167    390     1  0.0000000  0.0000000  3
    162    161    167    168     1  0.0000000  0.6508444  3
    162    161    167    169     1  0.0000000  0.6508444  3
    163    161    167    390     1  0.0000000  1.0460000  1
    163    161    167    390     1  0.0000000  0.0000000  3
    163    161    167    168     1  0.0000000  0.6508444  3
    163    161    167    169     1  0.0000000  0.6508444  3
    167    390    360    361     1  0.0000000  1.6038667  3
    167    390    360    362     1  0.0000000  1.6038667  3
    168    167    390    360     1  0.0000000  1.6038667  3
    169    167    390    360     1  0.0000000  1.6038667  3
    170    421    391    392     1  0.0000000  1.6038667  3
    170    421    391    393     1  0.0000000  1.6038667  3
    171    170    421    391     1  0.0000000  1.6038667  3
    172    170    421    391     1  0.0000000  1.6038667  3
    174    177    180    181     1  0.0000000  0.6508444  3
    174    177    180    182     1  0.0000000  0.6508444  3
    175    174    177    180     1  0.0000000  0.6508444  3
    175    174    177    178     1  0.0000000  0.6508444  3
    175    174    177    179     1  0.0000000  0.6508444  3
    176    174    177    180     1  0.0000000  0.6508444  3
    176    174    177    178     1  0.0000000  0.6508444  3
    176    174    177    179     1  0.0000000  0.6508444  3
    178    177    174    204     1  0.0000000  1.0460000  1
    178    177    174    204     1  0.0000000  0.0000000  3
    178    177    180    183     1  0.0000000  0.6508444  3
    178    177    180    181     1  0.0000000  0.6508444  3
    178    177    180    182     1  0.0000000  0.6508444  3
    179    177    174    204     1  0.0000000  1.0460000  1
    179    177    174    204     1  0.0000000  0.0000000  3
    179    177    180    183     1  0.0000000  0.6508444  3
    179    177    180    181     1  0.0000000  0.6508444  3
    179    177    180    182     1  0.0000000  0.6508444  3
    180    183    184    185     1  0.0000000  1.2552000  3
    180    183    184    186     1  0.0000000  1.2552000  3
    180    183    194    195     1  0.0000000  1.2552000  3
    180    183    194    196     1  0.0000000  1.2552000  3
    181    180    183    184     1  0.0000000  1.2552000  3
    181    180    183    194     1  0.0000000  1.2552000  3
    182    180    183    184     1  0.0000000  1.2552000  3
    182    180    183    194     1  0.0000000  1.2552000  3
    183    184    187    188     1  0.0000000  0.6508444  3
    183    184    187    189     1  0.0000000  0.6508444  3
    183    194    197    198     1  0.0000000  0.6508444  3
    183    194    197    199     1  0.0000000  0.6508444  3
    184    183    194    195     1  0.0000000  1.2552000  3
    184    183    194    196     1  0.0000000  1.2552000  3
    185    184    183    194     1  0.0000000  1.2552000  3
    185    184    187    190     1  0.0000000  0.6508444  3
    185    184    187    188     1  0.0000000  0.6508444  3
    185    184    187    189     1  0.0000000  0.6508444  3
    186    184    183    194     1  0.0000000  1.2552000  3
    186    184    187    190     1  0.0000000  0.6508444  3
    186    184    187    188     1  0.0000000  0.6508444  3
    186    184    187    189     1  0.0000000  0.6508444  3
    187    190    192    193     1  180.0000771  9.6232000  2
    188    187    190    191     1  0.0000000  3.3472000  1
    188    187    190    191     1  0.0000000  0.0000000  2
    188    187    190    191     1  180.0000771  0.3347200  3
    188    187    190    192     1  180.0000771  0.0000000  2
    189    187    190    191     1  0.0000000  3.3472000  1
    189    187    190    191     1  0.0000000  0.0000000  2
    189    187    190    191     1  180.0000771  0.3347200  3
    189    187    190    192     1  180.0000771  0.0000000  2
    191    190    192    193     1  0.0000000  7.9496000  1
    191    190    192    193     1  180.0000771  9.6232000  2
    195    194    197    200     1  0.0000000  0.6508444  3
    195    194    197    198     1  0.0000000  0.6508444  3
    195    194    197    199     1  0.0000000  0.6508444  3
    196    194    197    200     1  0.0000000  0.6508444  3
    196    194    197    198     1  0.0000000  0.6508444  3
    196    194    197    199     1  0.0000000  0.6508444  3
    197    200    202    203     1  180.0000771  9.6232000  2
    198    197    200    201     1  0.0000000  3.3472000  1
    198    197    200    201     1  0.0000000  0.0000000  2
    198    197    200    201     1  180.0000771  0.3347200  3
    198    197    200    202     1  180.0000771  0.0000000  2
    199    197    200    201     1  0.0000000  3.3472000  1
    199    197    200    201     1  0.0000000  0.0000000  2
    199    197    200    201     1  180.0000771  0.3347200  3
    199    197    200    202     1  180.0000771  0.0000000  2
    201    200    202    203     1  0.0000000  7.9496000  1
    201    200    202    203     1  180.0000771  9.6232000  2
    205    208    211    212     1  0.0000000  0.6508444  3
    205    208    211    213     1  0.0000000  0.6508444  3
    206    205    208    211     1  0.0000000  0.6508444  3
    206    205    208    209     1  0.0000000  0.6508444  3
    206    205    208    210     1  0.0000000  0.6508444  3
    207    205    208    211     1  0.0000000  0.6508444  3
    207    205    208    209     1  0.0000000  0.6508444  3
    207    205    208    210     1  0.0000000  0.6508444  3
    209    208    211    214     1  0.0000000  0.6508444  3
    209    208    211    212     1  0.0000000  0.6508444  3
    209    208    211    213     1  0.0000000  0.6508444  3
    209    208    205    235     1  0.0000000  1.0460000  1
    209    208    205    235     1  0.0000000  0.0000000  3
    210    208    211    214     1  0.0000000  0.6508444  3
    210    208    211    212     1  0.0000000  0.6508444  3
    210    208    211    213     1  0.0000000  0.6508444  3
    210    208    205    235     1  0.0000000  1.0460000  1
    210    208    205    235     1  0.0000000  0.0000000  3
    211    214    215    216     1  0.0000000  1.2552000  3
    211    214    215    217     1  0.0000000  1.2552000  3
    211    214    225    226     1  0.0000000  1.2552000  3
    211    214    225    227     1  0.0000000  1.2552000  3
    212    211    214    215     1  0.0000000  1.2552000  3
    212    211    214    225     1  0.0000000  1.2552000  3
    213    211    214    215     1  0.0000000  1.2552000  3
    213    211    214    225     1  0.0000000  1.2552000  3
    214    215    218    219     1  0.0000000  0.6508444  3
    214    215    218    220     1  0.0000000  0.6508444  3
    214    225    228    229     1  0.0000000  0.6508444  3
    214    225    228    230     1  0.0000000  0.6508444  3
    215    214    225    226     1  0.0000000  1.2552000  3
    215    214    225    227     1  0.0000000  1.2552000  3
    216    215    218    221     1  0.0000000  0.6508444  3
    216    215    218    219     1  0.0000000  0.6508444  3
    216    215    218    220     1  0.0000000  0.6508444  3
    216    215    214    225     1  0.0000000  1.2552000  3
    217    215    218    221     1  0.0000000  0.6508444  3
    217    215    218    219     1  0.0000000  0.6508444  3
    217    215    218    220     1  0.0000000  0.6508444  3
    217    215    214    225     1  0.0000000  1.2552000  3
    218    221    223    224     1  180.0000771  9.6232000  2
    219    218    221    222     1  0.0000000  3.3472000  1
    219    218    221    222     1  0.0000000  0.0000000  2
    219    218    221    222     1  180.0000771  0.3347200  3
    219    218    221    223     1  180.0000771  0.0000000  2
    220    218    221    222     1  0.0000000  3.3472000  1
    220    218    221    222     1  0.0000000  0.0000000  2
    220    218    221    222     1  180.0000771  0.3347200  3
    220    218    221    223     1  180.0000771  0.0000000  2
    222    221    223    224     1  0.0000000  7.9496000  1
    222    221    223    224     1  180.0000771  9.6232000  2
    226    225    228    231     1  0.0000000  0.6508444  3
    226    225    228    229     1  0.0000000  0.6508444  3
    226    225    228    230     1  0.0000000  0.6508444  3
    227    225    228    231     1  0.0000000  0.6508444  3
    227    225    228    229     1  0.0000000  0.6508444  3
    227    225    228    230     1  0.0000000  0.6508444  3
    228    231    233    234     1  180.0000771  9.6232000  2
    229    228    231    232     1  0.0000000  3.3472000  1
    229    228    231    232     1  0.0000000  0.0000000  2
    229    228    231    232     1  180.0000771  0.3347200  3
    229    228    231    233     1  180.0000771  0.0000000  2
    230    228    231    232     1  0.0000000  3.3472000  1
    230    228    231    232     1  0.0000000  0.0000000  2
    230    228    231    232     1  180.0000771  0.3347200  3
    230    228    231    233     1  180.0000771  0.0000000  2
    232    231    233    234     1  0.0000000  7.9496000  1
    232    231    233    234     1  180.0000771  9.6232000  2
    236    239    242    243     1  0.0000000  0.6508444  3
    236    239    242    244     1  0.0000000  0.6508444  3
    237    236    239    242     1  0.0000000  0.6508444  3
    237    236    239    240     1  0.0000000  0.6508444  3
    237    236    239    241     1  0.0000000  0.6508444  3
    238    236    239    242     1  0.0000000  0.6508444  3
    238    236    239    240     1  0.0000000  0.6508444  3
    238    236    239    241     1  0.0000000  0.6508444  3
    240    239    236    266     1  0.0000000  1.0460000  1
    240    239    236    266     1  0.0000000  0.0000000  3
    240    239    242    245     1  0.0000000  0.6508444  3
    240    239    242    243     1  0.0000000  0.6508444  3
    240    239    242    244     1  0.0000000  0.6508444  3
    241    239    236    266     1  0.0000000  1.0460000  1
    241    239    236    266     1  0.0000000  0.0000000  3
    241    239    242    245     1  0.0000000  0.6508444  3
    241    239    242    243     1  0.0000000  0.6508444  3
    241    239    242    244     1  0.0000000  0.6508444  3
    242    245    246    247     1  0.0000000  1.2552000  3
    242    245    246    248     1  0.0000000  1.2552000  3
    242    245    256    257     1  0.0000000  1.2552000  3
    242    245    256    258     1  0.0000000  1.2552000  3
    243    242    245    246     1  0.0000000  1.2552000  3
    243    242    245    256     1  0.0000000  1.2552000  3
    244    242    245    246     1  0.0000000  1.2552000  3
    244    242    245    256     1  0.0000000  1.2552000  3
    245    246    249    250     1  0.0000000  0.6508444  3
    245    246    249    251     1  0.0000000  0.6508444  3
    245    256    259    260     1  0.0000000  0.6508444  3
    245    256    259    261     1  0.0000000  0.6508444  3
    246    245    256    257     1  0.0000000  1.2552000  3
    246    245    256    258     1  0.0000000  1.2552000  3
    247    246    245    256     1  0.0000000  1.2552000  3
    247    246    249    252     1  0.0000000  0.6508444  3
    247    246    249    250     1  0.0000000  0.6508444  3
    247    246    249    251     1  0.0000000  0.6508444  3
    248    246    245    256     1  0.0000000  1.2552000  3
    248    246    249    252     1  0.0000000  0.6508444  3
    248    246    249    250     1  0.0000000  0.6508444  3
    248    246    249    251     1  0.0000000  0.6508444  3
    249    252    254    255     1  180.0000771  9.6232000  2
    250    249    252    253     1  0.0000000  3.3472000  1
    250    249    252    253     1  0.0000000  0.0000000  2
    250    249    252    253     1  180.0000771  0.3347200  3
    250    249    252    254     1  180.0000771  0.0000000  2
    251    249    252    253     1  0.0000000  3.3472000  1
    251    249    252    253     1  0.0000000  0.0000000  2
    251    249    252    253     1  180.0000771  0.3347200  3
    251    249    252    254     1  180.0000771  0.0000000  2
    253    252    254    255     1  0.0000000  7.9496000  1
    253    252    254    255     1  180.0000771  9.6232000  2
    257    256    259    262     1  0.0000000  0.6508444  3
    257    256    259    260     1  0.0000000  0.6508444  3
    257    256    259    261     1  0.0000000  0.6508444  3
    258    256    259    262     1  0.0000000  0.6508444  3
    258    256    259    260     1  0.0000000  0.6508444  3
    258    256    259    261     1  0.0000000  0.6508444  3
    259    262    264    265     1  180.0000771  9.6232000  2
    260    259    262    263     1  0.0000000  3.3472000  1
    260    259    262    263     1  0.0000000  0.0000000  2
    260    259    262    263     1  180.0000771  0.3347200  3
    260    259    262    264     1  180.0000771  0.0000000  2
    261    259    262    263     1  0.0000000  3.3472000  1
    261    259    262    263     1  0.0000000  0.0000000  2
    261    259    262    263     1  180.0000771  0.3347200  3
    261    259    262    264     1  180.0000771  0.0000000  2
    263    262    264    265     1  0.0000000  7.9496000  1
    263    262    264    265     1  180.0000771  9.6232000  2
    267    270    273    274     1  0.0000000  0.6508444  3
    267    270    273    275     1  0.0000000  0.6508444  3
    268    267    270    273     1  0.0000000  0.6508444  3
    268    267    270    271     1  0.0000000  0.6508444  3
    268    267    270    272     1  0.0000000  0.6508444  3
    269    267    270    273     1  0.0000000  0.6508444  3
    269    267    270    271     1  0.0000000  0.6508444  3
    269    267    270    272     1  0.0000000  0.6508444  3
    271    270    273    276     1  0.0000000  0.6508444  3
    271    270    273    274     1  0.0000000  0.6508444  3
    271    270    273    275     1  0.0000000  0.6508444  3
    271    270    267    297     1  0.0000000  1.0460000  1
    271    270    267    297     1  0.0000000  0.0000000  3
    272    270    273    276     1  0.0000000  0.6508444  3
    272    270    273    274     1  0.0000000  0.6508444  3
    272    270    273    275     1  0.0000000  0.6508444  3
    272    270    267    297     1  0.0000000  1.0460000  1
    272    270    267    297     1  0.0000000  0.0000000  3
    273    276    277    278     1  0.0000000  1.2552000  3
    273    276    277    279     1  0.0000000  1.2552000  3
    273    276    287    288     1  0.0000000  1.2552000  3
    273    276    287    289     1  0.0000000  1.2552000  3
    274    273    276    277     1  0.0000000  1.2552000  3
    274    273    276    287     1  0.0000000  1.2552000  3
    275    273    276    277     1  0.0000000  1.2552000  3
    275    273    276    287     1  0.0000000  1.2552000  3
    276    277    280    281     1  0.0000000  0.6508444  3
    276    277    280    282     1  0.0000000  0.6508444  3
    276    287    290    291     1  0.0000000  0.6508444  3
    276    287    290    292     1  0.0000000  0.6508444  3
    277    276    287    288     1  0.0000000  1.2552000  3
    277    276    287    289     1  0.0000000  1.2552000  3
    278    277    280    283     1  0.0000000  0.6508444  3
    278    277    280    281     1  0.0000000  0.6508444  3
    278    277    280    282     1  0.0000000  0.6508444  3
    278    277    276    287     1  0.0000000  1.2552000  3
    279    277    280    283     1  0.0000000  0.6508444  3
    279    277    280    281     1  0.0000000  0.6508444  3
    279    277    280    282     1  0.0000000  0.6508444  3
    279    277    276    287     1  0.0000000  1.2552000  3
    280    283    285    286     1  180.0000771  9.6232000  2
    281    280    283    284     1  0.0000000  3.3472000  1
    281    280    283    284     1  0.0000000  0.0000000  2
    281    280    283    284     1  180.0000771  0.3347200  3
    281    280    283    285     1  180.0000771  0.0000000  2
    282    280    283    284     1  0.0000000  3.3472000  1
    282    280    283    284     1  0.0000000  0.0000000  2
    282    280    283    284     1  180.0000771  0.3347200  3
    282    280    283    285     1  180.0000771  0.0000000  2
    284    283    285    286     1  0.0000000  7.9496000  1
    284    283    285    286     1  180.0000771  9.6232000  2
    288    287    290    293     1  0.0000000  0.6508444  3
    288    287    290    291     1  0.0000000  0.6508444  3
    288    287    290    292     1  0.0000000  0.6508444  3
    289    287    290    293     1  0.0000000  0.6508444  3
    289    287    290    291     1  0.0000000  0.6508444  3
    289    287    290    292     1  0.0000000  0.6508444  3
    290    293    295    296     1  180.0000771  9.6232000  2
    291    290    293    294     1  0.0000000  3.3472000  1
    291    290    293    294     1  0.0000000  0.0000000  2
    291    290    293    294     1  180.0000771  0.3347200  3
    291    290    293    295     1  180.0000771  0.0000000  2
    292    290    293    294     1  0.0000000  3.3472000  1
    292    290    293    294     1  0.0000000  0.0000000  2
    292    290    293    294     1  180.0000771  0.3347200  3
    292    290    293    295     1  180.0000771  0.0000000  2
    294    293    295    296     1  0.0000000  7.9496000  1
    294    293    295    296     1  180.0000771  9.6232000  2
    298    301    304    305     1  0.0000000  0.6508444  3
    298    301    304    306     1  0.0000000  0.6508444  3
    299    298    301    304     1  0.0000000  0.6508444  3
    299    298    301    302     1  0.0000000  0.6508444  3
    299    298    301    303     1  0.0000000  0.6508444  3
    300    298    301    304     1  0.0000000  0.6508444  3
    300    298    301    302     1  0.0000000  0.6508444  3
    300    298    301    303     1  0.0000000  0.6508444  3
    302    301    298    328     1  0.0000000  1.0460000  1
    302    301    298    328     1  0.0000000  0.0000000  3
    302    301    304    307     1  0.0000000  0.6508444  3
    302    301    304    305     1  0.0000000  0.6508444  3
    302    301    304    306     1  0.0000000  0.6508444  3
    303    301    298    328     1  0.0000000  1.0460000  1
    303    301    298    328     1  0.0000000  0.0000000  3
    303    301    304    307     1  0.0000000  0.6508444  3
    303    301    304    305     1  0.0000000  0.6508444  3
    303    301    304    306     1  0.0000000  0.6508444  3
    304    307    308    309     1  0.0000000  1.2552000  3
    304    307    308    310     1  0.0000000  1.2552000  3
    304    307    318    319     1  0.0000000  1.2552000  3
    304    307    318    320     1  0.0000000  1.2552000  3
    305    304    307    308     1  0.0000000  1.2552000  3
    305    304    307    318     1  0.0000000  1.2552000  3
    306    304    307    308     1  0.0000000  1.2552000  3
    306    304    307    318     1  0.0000000  1.2552000  3
    307    308    311    312     1  0.0000000  0.6508444  3
    307    308    311    313     1  0.0000000  0.6508444  3
    307    318    321    322     1  0.0000000  0.6508444  3
    307    318    321    323     1  0.0000000  0.6508444  3
    308    307    318    319     1  0.0000000  1.2552000  3
    308    307    318    320     1  0.0000000  1.2552000  3
    309    308    307    318     1  0.0000000  1.2552000  3
    309    308    311    314     1  0.0000000  0.6508444  3
    309    308    311    312     1  0.0000000  0.6508444  3
    309    308    311    313     1  0.0000000  0.6508444  3
    310    308    307    318     1  0.0000000  1.2552000  3
    310    308    311    314     1  0.0000000  0.6508444  3
    310    308    311    312     1  0.0000000  0.6508444  3
    310    308    311    313     1  0.0000000  0.6508444  3
    311    314    316    317     1  180.0000771  9.6232000  2
    312    311    314    315     1  0.0000000  3.3472000  1
    312    311    314    315     1  0.0000000  0.0000000  2
    312    311    314    315     1  180.0000771  0.3347200  3
    312    311    314    316     1  180.0000771  0.0000000  2
    313    311    314    315     1  0.0000000  3.3472000  1
    313    311    314    315     1  0.0000000  0.0000000  2
    313    311    314    315     1  180.0000771  0.3347200  3
    313    311    314    316     1  180.0000771  0.0000000  2
    315    314    316    317     1  0.0000000  7.9496000  1
    315    314    316    317     1  180.0000771  9.6232000  2
    319    318    321    324     1  0.0000000  0.6508444  3
    319    318    321    322     1  0.0000000  0.6508444  3
    319    318    321    323     1  0.0000000  0.6508444  3
    320    318    321    324     1  0.0000000  0.6508444  3
    320    318    321    322     1  0.0000000  0.6508444  3
    320    318    321    323     1  0.0000000  0.6508444  3
    321    324    326    327     1  180.0000771  9.6232000  2
    322    321    324    325     1  0.0000000  3.3472000  1
    322    321    324    325     1  0.0000000  0.0000000  2
    322    321    324    325     1  180.0000771  0.3347200  3
    322    321    324    326     1  180.0000771  0.0000000  2
    323    321    324    325     1  0.0000000  3.3472000  1
    323    321    324    325     1  0.0000000  0.0000000  2
    323    321    324    325     1  180.0000771  0.3347200  3
    323    321    324    326     1  180.0000771  0.0000000  2
    325    324    326    327     1  0.0000000  7.9496000  1
    325    324    326    327     1  180.0000771  9.6232000  2
    329    332    335    336     1  0.0000000  0.6508444  3
    329    332    335    337     1  0.0000000  0.6508444  3
    330    329    332    335     1  0.0000000  0.6508444  3
    330    329    332    333     1  0.0000000  0.6508444  3
    330    329    332    334     1  0.0000000  0.6508444  3
    331    329    332    335     1  0.0000000  0.6508444  3
    331    329    332    333     1  0.0000000  0.6508444  3
    331    329    332    334     1  0.0000000  0.6508444  3
    333    332    335    338     1  0.0000000  0.6508444  3
    333    332    335    336     1  0.0000000  0.6508444  3
    333    332    335    337     1  0.0000000  0.6508444  3
    333    332    329    359     1  0.0000000  1.0460000  1
    333    332    329    359     1  0.0000000  0.0000000  3
    334    332    335    338     1  0.0000000  0.6508444  3
    334    332    335    336     1  0.0000000  0.6508444  3
    334    332    335    337     1  0.0000000  0.6508444  3
    334    332    329    359     1  0.0000000  1.0460000  1
    334    332    329    359     1  0.0000000  0.0000000  3
    335    338    339    340     1  0.0000000  1.2552000  3
    335    338    339    341     1  0.0000000  1.2552000  3
    335    338    349    350     1  0.0000000  1.2552000  3
    335    338    349    351     1  0.0000000  1.2552000  3
    336    335    338    339     1  0.0000000  1.2552000  3
    336    335    338    349     1  0.0000000  1.2552000  3
    337    335    338    339     1  0.0000000  1.2552000  3
    337    335    338    349     1  0.0000000  1.2552000  3
    338    339    342    343     1  0.0000000  0.6508444  3
    338    339    342    344     1  0.0000000  0.6508444  3
    338    349    352    353     1  0.0000000  0.6508444  3
    338    349    352    354     1  0.0000000  0.6508444  3
    339    338    349    350     1  0.0000000  1.2552000  3
    339    338    349    351     1  0.0000000  1.2552000  3
    340    339    342    345     1  0.0000000  0.6508444  3
    340    339    342    343     1  0.0000000  0.6508444  3
    340    339    342    344     1  0.0000000  0.6508444  3
    340    339    338    349     1  0.0000000  1.2552000  3
    341    339    342    345     1  0.0000000  0.6508444  3
    341    339    342    343     1  0.0000000  0.6508444  3
    341    339    342    344     1  0.0000000  0.6508444  3
    341    339    338    349     1  0.0000000  1.2552000  3
    342    345    347    348     1  180.0000771  9.6232000  2
    343    342    345    346     1  0.0000000  3.3472000  1
    343    342    345    346     1  0.0000000  0.0000000  2
    343    342    345    346     1  180.0000771  0.3347200  3
    343    342    345    347     1  180.0000771  0.0000000  2
    344    342    345    346     1  0.0000000  3.3472000  1
    344    342    345    346     1  0.0000000  0.0000000  2
    344    342    345    346     1  180.0000771  0.3347200  3
    344    342    345    347     1  180.0000771  0.0000000  2
    346    345    347    348     1  0.0000000  7.9496000  1
    346    345    347    348     1  180.0000771  9.6232000  2
    350    349    352    355     1  0.0000000  0.6508444  3
    350    349    352    353     1  0.0000000  0.6508444  3
    350    349    352    354     1  0.0000000  0.6508444  3
    351    349    352    355     1  0.0000000  0.6508444  3
    351    349    352    353     1  0.0000000  0.6508444  3
    351    349    352    354     1  0.0000000  0.6508444  3
    352    355    357    358     1  180.0000771  9.6232000  2
    353    352    355    356     1  0.0000000  3.3472000  1
    353    352    355    356     1  0.0000000  0.0000000  2
    353    352    355    356     1  180.0000771  0.3347200  3
    353    352    355    357     1  180.0000771  0.0000000  2
    354    352    355    356     1  0.0000000  3.3472000  1
    354    352    355    356     1  0.0000000  0.0000000  2
    354    352    355    356     1  180.0000771  0.3347200  3
    354    352    355    357     1  180.0000771  0.0000000  2
    356    355    357    358     1  0.0000000  7.9496000  1
    356    355    357    358     1  180.0000771  9.6232000  2
    360    363    366    367     1  0.0000000  0.6508444  3
    360    363    366    368     1  0.0000000  0.6508444  3
    361    360    363    366     1  0.0000000  0.6508444  3
    361    360    363    364     1  0.0000000  0.6508444  3
    361    360    363    365     1  0.0000000  0.6508444  3
    362    360    363    366     1  0.0000000  0.6508444  3
    362    360    363    364     1  0.0000000  0.6508444  3
    362    360    363    365     1  0.0000000  0.6508444  3
    364    363    360    390     1  0.0000000  1.0460000  1
    364    363    360    390     1  0.0000000  0.0000000  3
    364    363    366    369     1  0.0000000  0.6508444  3
    364    363    366    367     1  0.0000000  0.6508444  3
    364    363    366    368     1  0.0000000  0.6508444  3
    365    363    360    390     1  0.0000000  1.0460000  1
    365    363    360    390     1  0.0000000  0.0000000  3
    365    363    366    369     1  0.0000000  0.6508444  3
    365    363    366    367     1  0.0000000  0.6508444  3
    365    363    366    368     1  0.0000000  0.6508444  3
    366    369    370    371     1  0.0000000  1.2552000  3
    366    369    370    372     1  0.0000000  1.2552000  3
    366    369    380    381     1  0.0000000  1.2552000  3
    366    369    380    382     1  0.0000000  1.2552000  3
    367    366    369    370     1  0.0000000  1.2552000  3
    367    366    369    380     1  0.0000000  1.2552000  3
    368    366    369    370     1  0.0000000  1.2552000  3
    368    366    369    380     1  0.0000000  1.2552000  3
    369    370    373    374     1  0.0000000  0.6508444  3
    369    370    373    375     1  0.0000000  0.6508444  3
    369    380    383    384     1  0.0000000  0.6508444  3
    369    380    383    385     1  0.0000000  0.6508444  3
    370    369    380    381     1  0.0000000  1.2552000  3
    370    369    380    382     1  0.0000000  1.2552000  3
    371    370    369    380     1  0.0000000  1.2552000  3
    371    370    373    376     1  0.0000000  0.6508444  3
    371    370    373    374     1  0.0000000  0.6508444  3
    371    370    373    375     1  0.0000000  0.6508444  3
    372    370    369    380     1  0.0000000  1.2552000  3
    372    370    373    376     1  0.0000000  0.6508444  3
    372    370    373    374     1  0.0000000  0.6508444  3
    372    370    373    375     1  0.0000000  0.6508444  3
    373    376    378    379     1  180.0000771  9.6232000  2
    374    373    376    377     1  0.0000000  3.3472000  1
    374    373    376    377     1  0.0000000  0.0000000  2
    374    373    376    377     1  180.0000771  0.3347200  3
    374    373    376    378     1  180.0000771  0.0000000  2
    375    373    376    377     1  0.0000000  3.3472000  1
    375    373    376    377     1  0.0000000  0.0000000  2
    375    373    376    377     1  180.0000771  0.3347200  3
    375    373    376    378     1  180.0000771  0.0000000  2
    377    376    378    379     1  0.0000000  7.9496000  1
    377    376    378    379     1  180.0000771  9.6232000  2
    381    380    383    386     1  0.0000000  0.6508444  3
    381    380    383    384     1  0.0000000  0.6508444  3
    381    380    383    385     1  0.0000000  0.6508444  3
    382    380    383    386     1  0.0000000  0.6508444  3
    382    380    383    384     1  0.0000000  0.6508444  3
    382    380    383    385     1  0.0000000  0.6508444  3
    383    386    388    389     1  180.0000771  9.6232000  2
    384    383    386    387     1  0.0000000  3.3472000  1
    384    383    386    387     1  0.0000000  0.0000000  2
    384    383    386    387     1  180.0000771  0.3347200  3
    384    383    386    388     1  180.0000771  0.0000000  2
    385    383    386    387     1  0.0000000  3.3472000  1
    385    383    386    387     1  0.0000000  0.0000000  2
    385    383    386    387     1  180.0000771  0.3347200  3
    385    383    386    388     1  180.0000771  0.0000000  2
    387    386    388    389     1  0.0000000  7.9496000  1
    387    386    388    389     1  180.0000771  9.6232000  2
    391    394    397    398     1  0.0000000  0.6508444  3
    391    394    397    399     1  0.0000000  0.6508444  3
    392    391    394    397     1  0.0000000  0.6508444  3
    392    391    394    395     1  0.0000000  0.6508444  3
    392    391    394    396     1  0.0000000  0.6508444  3
    393    391    394    397     1  0.0000000  0.6508444  3
    393    391    394    395     1  0.0000000  0.6508444  3
    393    391    394    396     1  0.0000000  0.6508444  3
    395    394    397    400     1  0.0000000  0.6508444  3
    395    394    397    398     1  0.0000000  0.6508444  3
    395    394    397    399     1  0.0000000  0.6508444  3
    395    394    391    421     1  0.0000000  1.0460000  1
    395    394    391    421     1  0.0000000  0.0000000  3
    396    394    397    400     1  0.0000000  0.6508444  3
    396    394    397    398     1  0.0000000  0.6508444  3
    396    394    397    399     1  0.0000000  0.6508444  3
    396    394    391    421     1  0.0000000  1.0460000  1
    396    394    391    421     1  0.0000000  0.0000000  3
    397    400    401    402     1  0.0000000  1.2552000  3
    397    400    401    403     1  0.0000000  1.2552000  3
    397    400    411    412     1  0.0000000  1.2552000  3
    397    400    411    413     1  0.0000000  1.2552000  3
    398    397    400    401     1  0.0000000  1.2552000  3
    398    397    400    411     1  0.0000000  1.2552000  3
    399    397    400    401     1  0.0000000  1.2552000  3
    399    397    400    411     1  0.0000000  1.2552000  3
    400    401    404    405     1  0.0000000  0.6508444  3
    400    401    404    406     1  0.0000000  0.6508444  3
    400    411    414    415     1  0.0000000  0.6508444  3
    400    411    414    416     1  0.0000000  0.6508444  3
    401    400    411    412     1  0.0000000  1.2552000  3
    401    400    411    413     1  0.0000000  1.2552000  3
    402    401    404    407     1  0.0000000  0.6508444  3
    402    401    404    405     1  0.0000000  0.6508444  3
    402    401    404    406     1  0.0000000  0.6508444  3
    402    401    400    411     1  0.0000000  1.2552000  3
    403    401    404    407     1  0.0000000  0.6508444  3
    403    401    404    405     1  0.0000000  0.6508444  3
    403    401    404    406     1  0.0000000  0.6508444  3
    403    401    400    411     1  0.0000000  1.2552000  3
    404    407    409    410     1  180.0000771  9.6232000  2
    405    404    407    408     1  0.0000000  3.3472000  1
    405    404    407    408     1  0.0000000  0.0000000  2
    405    404    407    408     1  180.0000771  0.3347200  3
    405    404    407    409     1  180.0000771  0.0000000  2
    406    404    407    408     1  0.0000000  3.3472000  1
    406    404    407    408     1  0.0000000  0.0000000  2
    406    404    407    408     1  180.0000771  0.3347200  3
    406    404    407    409     1  180.0000771  0.0000000  2
    408    407    409    410     1  0.0000000  7.9496000  1
    408    407    409    410     1  180.0000771  9.6232000  2
    412    411    414    417     1  0.0000000  0.6508444  3
    412    411    414    415     1  0.0000000  0.6508444  3
    412    411    414    416     1  0.0000000  0.6508444  3
    413    411    414    417     1  0.0000000  0.6508444  3
    413    411    414    415     1  0.0000000  0.6508444  3
    413    411    414    416     1  0.0000000  0.6508444  3
    414    417    419    420     1  180.0000771  9.6232000  2
    415    414    417    418     1  0.0000000  3.3472000  1
    415    414    417    418     1  0.0000000  0.0000000  2
    415    414    417    418     1  180.0000771  0.3347200  3
    415    414    417    419     1  180.0000771  0.0000000  2
    416    414    417    418     1  0.0000000  3.3472000  1
    416    414    417    418     1  0.0000000  0.0000000  2
    416    414    417    418     1  180.0000771  0.3347200  3
    416    414    417    419     1  180.0000771  0.0000000  2
    418    417    419    420     1  0.0000000  7.9496000  1
    418    417    419    420     1  180.0000771  9.6232000  2

;[ system ]
;; Name
;Generic title
;
;[ molecules ]
;; Compound       #mols
;system1              1
