G2.5Ocore-PETIM in water
25729
    1aaa     O1    1   0.888   1.371   3.416  0.4981  0.3104  0.0922
    1aaa     C1    2   0.886   1.319   3.282  0.2762  0.0697 -1.0217
    1aaa     H1    3   0.983   1.350   3.242  1.4104  0.2059  1.7717
    1aaa     H2    4   0.805   1.367   3.224 -2.7083 -0.9648  2.1325
    1aaa     C2    5   0.755   1.419   3.464  0.1844 -0.1897  0.2201
    1aaa     H3    6   0.679   1.339   3.464 -1.0658  0.9466 -1.7604
    1aaa     H4    7   0.709   1.504   3.413  0.8642  0.0197 -0.0442
    1aaa     C3    8   0.879   1.166   3.284 -0.3802 -0.7921 -0.2022
    1aaa     H5    9   0.872   1.131   3.180 -1.1172  1.1756 -0.8466
    1aaa     H6   10   0.785   1.133   3.330 -0.9891  0.0030 -0.8386
    1aaa     C4   11   0.774   1.451   3.614  0.4235  0.0420 -0.3826
    1aaa     H7   12   0.676   1.481   3.652  1.7162  1.2323  2.1114
    1aaa     H8   13   0.850   1.528   3.632  0.3547 -0.3064  1.4020
    1aaa     C5   14   0.996   1.093   3.353 -0.0479  0.1417  0.1810
    1aaa     H9   15   1.083   1.096   3.286 -1.0847  0.0167 -1.1891
    1aaa    H10   16   1.016   1.163   3.435  0.8351 -0.1999  0.2597
    1aaa     C6   17   0.812   1.318   3.687  0.1239  0.4301 -0.5801
    1aaa    H11   18   0.901   1.280   3.637 -0.4994  0.1302 -1.4735
    1aaa    H12   19   0.743   1.232   3.686 -0.4418  0.8272  1.6118
    1aaa     N1   20   0.966   0.957   3.404 -0.2117  0.1849 -0.5963
    1aaa     N2   21   0.844   1.349   3.826  0.7308 -0.1755  0.1244
    1aaa     C7   22   0.723   1.363   3.910  0.5072 -0.0420  0.6350
    1aaa    H13   23   0.638   1.402   3.853 -1.2142 -4.4329 -0.0458
    1aaa    H14   24   0.695   1.260   3.938 -0.0818 -0.3451 -1.0001
    1aaa     C8   25   0.933   1.256   3.889 -0.0585  0.1217 -0.0758
    1aaa    H15   26   0.934   1.275   3.997 -0.0319  0.5526 -0.1510
    1aaa    H16   27   0.887   1.156   3.889 -0.6867  0.3933  1.4674
    1aaa     C9   28   1.092   0.874   3.413 -0.2038 -0.2352 -0.2539
    1aaa    H17   29   1.077   0.765   3.410  1.4496 -0.4685 -0.5342
    1aaa    H18   30   1.153   0.897   3.325 -0.7474  0.4700 -0.4517
    1aaa    C10   31   0.879   0.947   3.514  0.7809 -0.3173 -0.1828
    1aaa    H19   32   0.928   0.988   3.603  0.6975 -2.1100  0.7094
    1aaa    H20   33   0.784   0.999   3.498 -0.2228 -2.7015 -2.3303
    1aaa    C11   34   0.731   1.456   4.024  0.3063  0.2916  0.0833
    1aaa    H21   35   0.819   1.429   4.083  1.1628 -0.1056 -1.3328
    1aaa    H22   36   0.745   1.551   3.972 -0.6513 -0.3960 -1.5042
    1aaa    C12   37   1.070   1.247   3.832  0.3006 -0.1950  0.2750
    1aaa    H23   38   1.074   1.215   3.727 -1.0809 -0.2363  0.2224
    1aaa    H24   39   1.120   1.344   3.836 -0.8023  0.4211 -0.6052
    1aaa    C13   40   1.194   0.920   3.521 -0.6463  0.6319 -0.0285
    1aaa    H25   41   1.224   1.023   3.498  0.0626  0.0027 -2.0486
    1aaa    H26   42   1.148   0.925   3.620 -1.9948 -3.1380 -0.3650
    1aaa    C14   43   0.841   0.798   3.559 -0.0002 -0.3777  0.1583
    1aaa    H27   44   0.813   0.746   3.467  0.0742 -0.2616  0.0711
    1aaa    H28   45   0.934   0.752   3.594 -0.1540 -0.6940  0.1510
    1aaa    C15   46   0.728   0.788   3.667  0.5091  0.4683 -0.3100
    1aaa    H29   47   0.770   0.838   3.755  0.9424 -1.6570  0.7089
    1aaa    H30   48   0.642   0.853   3.645 -0.7256 -1.7347 -2.3149
    1aaa    C16   49   1.313   0.820   3.528 -0.9149 -0.0400 -0.1553
    1aaa    H31   50   1.369   0.823   3.433  0.3323 -0.0967  0.5599
    1aaa    H32   51   1.388   0.842   3.605 -2.8277  1.9745  1.1752
    1aaa    C17   52   1.155   1.146   3.921  0.0869  0.4443  0.2502
    1aaa    H33   53   1.112   1.046   3.909 -2.0354  1.3597 -0.0022
    1aaa    H34   54   1.259   1.157   3.889  0.0087  1.4275  0.3250
    1aaa    C18   55   0.608   1.468   4.117 -0.0579 -0.2470  0.3966
    1aaa    H35   56   0.644   1.531   4.198 -0.8998  0.2460  0.3973
    1aaa    H36   57   0.524   1.515   4.064  1.9472 -0.1244 -2.7779
    2bbb     N1   58   0.242   0.735   3.912 -0.3832 -0.6084 -0.1594
    2bbb     C1   59   0.141   0.650   3.834  0.5046  0.3436 -0.3468
    2bbb     H1   60   0.153   0.545   3.864 -1.5715  0.6433  1.7092
    2bbb     H2   61   0.155   0.662   3.726  0.4053  1.3262 -0.2553
    2bbb     C2   62   0.239   0.883   3.887 -0.3647 -0.4504  0.0252
    2bbb     H3   63   0.139   0.922   3.911  0.2384  0.8559  0.4379
    2bbb     H4   64   0.259   0.896   3.779  1.2429 -1.6406  0.1779
    2bbb     C3   65   0.383   0.677   3.918 -0.0233 -0.6395  0.1434
    2bbb     H5   66   0.383   0.568   3.924  0.1575 -0.7041 -1.0316
    2bbb     H6   67   0.438   0.720   4.003 -0.9896 -0.3033  0.6093
    2bbb     C4   68   0.468   0.693   3.789 -0.2629 -0.5082  0.3556
    2bbb     H7   69   0.490   0.800   3.784  1.8058 -1.0278 -3.2943
    2bbb     H8   70   0.418   0.664   3.696 -1.4151  0.7393  0.5681
    2bbb     C5   71  -0.001   0.684   3.877  0.5222  0.6083  0.6631
    2bbb     H9   72  -0.038   0.777   3.831 -1.0531  0.3179  1.3271
    2bbb    H10   73   0.007   0.707   3.984 -2.6748 -0.4443  1.1723
    2bbb     C6   74   0.341   0.963   3.975  0.2350 -0.1851  0.0894
    2bbb    H11   75   0.443   0.960   3.936 -0.1577  0.2648 -0.9967
    2bbb    H12   76   0.335   0.920   4.076 -1.9283  0.3168  0.2144
    2bbb     C7   77   0.599   0.617   3.791  0.5812 -0.1718 -0.2939
    2bbb    H13   78   0.576   0.509   3.798 -0.3502  0.1073  1.1971
    2bbb    H14   79   0.649   0.646   3.884  0.4950 -1.1377  0.0595
    2bbb     C8   80   0.304   1.113   3.992 -0.2422  0.4088 -0.0901
    2bbb    H15   81   0.371   1.164   4.061 -0.4565 -0.8440  1.0664
    2bbb    H16   82   0.207   1.114   4.044 -0.7350 -0.4791 -0.9850
    2bbb     C9   83  -0.099   0.560   3.857 -0.4947 -0.5412 -0.1958
    2bbb    H17   84  -0.051   0.466   3.885 -2.6832 -1.4363  0.6504
    2bbb    H18   85  -0.118   0.564   3.749 -1.0053  1.5892 -0.0557
    2bbb     O1   86   0.694   0.647   3.684  0.4494 -0.8812  0.2311
    3bbb     N1   87   1.432   0.549   3.916 -0.0774  0.3230  0.4740
    3bbb     C1   88   1.497   0.410   3.939  0.3104  0.1122  0.6224
    3bbb     H1   89   1.518   0.405   4.046  2.2941 -0.7009  0.2014
    3bbb     H2   90   1.590   0.395   3.884 -1.2352  1.0319 -2.3949
    3bbb     C2   91   1.537   0.644   3.944 -0.4609 -0.6259  0.9162
    3bbb     H3   92   1.623   0.612   3.884  0.6330 -0.9702  2.6338
    3bbb     H4   93   1.585   0.636   4.043  2.6980 -0.7879 -0.5884
    3bbb     C3   94   1.356   0.568   3.785  0.9881  0.1883  0.0885
    3bbb     H5   95   1.313   0.669   3.786  1.2889  0.3159  0.1174
    3bbb     H6   96   1.276   0.497   3.760  0.0581  1.9560 -2.1314
    3bbb     C4   97   1.446   0.574   3.653  0.5345 -0.2421 -0.5150
    3bbb     H7   98   1.502   0.480   3.656  0.1225 -0.4389  1.5606
    3bbb     H8   99   1.515   0.659   3.657  0.9011 -0.5826  0.4341
    3bbb     C5  100   1.399   0.295   3.907 -0.4329 -0.4716 -0.3468
    3bbb     H9  101   1.381   0.298   3.799  2.9387 -0.8216 -1.0020
    3bbb    H10  102   1.308   0.319   3.963  1.2693  0.0208  2.3043
    3bbb     C6  103   1.514   0.792   3.917 -0.7517 -0.1257  0.7870
    3bbb    H11  104   1.481   0.818   3.815 -0.1898  1.0742  0.8958
    3bbb    H12  105   1.613   0.837   3.930 -0.7507  0.2947 -0.5577
    3bbb     C7  106   1.357   0.574   3.520 -0.4370  0.5006 -0.1618
    3bbb    H13  107   1.304   0.479   3.507 -0.9354  0.9297 -1.2920
    3bbb    H14  108   1.411   0.588   3.426 -1.0433 -0.8500 -0.7257
    3bbb     C8  109   1.414   0.868   4.014 -0.3224  0.4349  0.1583
    3bbb    H15  110   1.314   0.854   3.971 -0.5550 -3.0547  1.6077
    3bbb    H16  111   1.432   0.976   4.014  0.2843  0.3554 -2.0758
    3bbb     C9  112   1.448   0.152   3.941 -0.7484 -0.1079  0.2246
    3bbb    H17  113   1.478   0.139   4.046 -0.3237  0.8050  0.2176
    3bbb    H18  114   1.539   0.154   3.880 -0.1770  1.0652  1.0925
    3bbb     O1  115   1.260   0.682   3.539 -0.3034 -0.0209 -0.3318
    4bbb     N1  116   1.082   1.106   4.490  0.7209  0.0368 -0.3812
    4bbb     C1  117   1.091   1.251   4.538 -0.1623  0.5342  0.6465
    4bbb     H1  118   1.180   1.306   4.503  0.5738  0.4767  2.3593
    4bbb     H2  119   1.094   1.259   4.647  1.8686  1.1312  0.5768
    4bbb     C2  120   0.954   1.038   4.531 -0.5943  0.6304 -0.5536
    4bbb     H3  121   0.945   0.932   4.505  0.9198  1.1216 -3.1937
    4bbb     H4  122   0.869   1.089   4.485  1.0980  2.7187 -1.4589
    4bbb     C3  123   1.107   1.090   4.343  0.0603 -0.3401 -0.3250
    4bbb     H5  124   1.020   1.131   4.290 -0.7641 -1.8860 -0.2069
    4bbb     H6  125   1.093   0.988   4.305  1.8840 -0.0336 -1.9131
    4bbb     C4  126   1.231   1.146   4.288  0.0685  0.2538  0.0789
    4bbb     H7  127   1.314   1.107   4.348  1.1271 -1.7686 -2.6096
    4bbb     H8  128   1.230   1.253   4.310  1.7159  0.0833  1.0648
    4bbb     C5  129   0.971   1.342   4.486 -0.3053  0.2715  0.6687
    4bbb     H9  130   0.881   1.290   4.519  0.7335 -0.7728  1.8953
    4bbb    H10  131   0.967   1.335   4.376  1.2979 -0.3612  0.6442
    4bbb     C6  132   0.926   1.048   4.684 -0.8184  0.0205 -0.2617
    4bbb    H11  133   0.913   1.151   4.718 -0.1608  0.1358 -0.3547
    4bbb    H12  134   1.015   1.010   4.737 -1.0858  0.7726  0.7405
    4bbb     C7  135   1.250   1.116   4.136  0.4316  0.6980 -0.1773
    4bbb    H13  136   1.248   1.006   4.135  0.6383  0.6921  0.0154
    4bbb    H14  137   1.348   1.146   4.097 -0.3819  2.4804 -0.9219
    4bbb     C8  138   0.815   0.946   4.729  0.2466  0.4382 -0.4783
    4bbb    H15  139   0.798   0.960   4.837  0.8663 -1.1641 -0.1530
    4bbb    H16  140   0.846   0.842   4.713 -2.8788 -0.1468 -3.1874
    4bbb     C9  141   0.986   1.485   4.539  0.5578 -0.4109 -0.3977
    4bbb    H17  142   1.079   1.527   4.498 -0.2123 -0.5754 -2.3552
    4bbb    H18  143   0.987   1.491   4.649 -1.4463 -1.2047 -0.3173
    4bbb     O1  144   1.143   1.176   4.058 -0.5031 -0.8119 -0.2938
    5bbb     N1  145   0.658   0.919   4.188  0.6116  0.2726 -0.0799
    5bbb     C1  146   0.673   0.859   4.322 -0.1155 -0.3575  0.5996
    5bbb     H1  147   0.602   0.912   4.388  1.2273  1.2180  0.8136
    5bbb     H2  148   0.776   0.872   4.357  0.2727 -2.2760  0.1804
    5bbb     C2  149   0.733   0.854   4.080 -0.0507  0.1036 -0.2382
    5bbb     H3  150   0.691   0.890   3.985  1.5242 -1.3819 -1.5343
    5bbb     H4  151   0.716   0.745   4.079 -0.2568  0.1261 -1.9840
    5bbb     C3  152   0.673   1.066   4.188  0.0429  0.6170 -0.1532
    5bbb     H5  153   0.645   1.107   4.090  1.8625 -0.1748 -1.0415
    5bbb     H6  154   0.779   1.090   4.205  0.9154 -1.8082 -1.8490
    5bbb     C4  155   0.583   1.139   4.285  0.1238 -0.0127 -0.6906
    5bbb     H7  156   0.608   1.120   4.390  1.0826  0.9531 -0.7342
    5bbb     H8  157   0.475   1.129   4.266  0.0176 -0.6474  0.2350
    5bbb     C5  158   0.651   0.709   4.323  0.0469  0.1150 -0.6778
    5bbb     H9  159   0.723   0.659   4.256 -0.0645 -1.5393  0.4078
    5bbb    H10  160   0.556   0.674   4.282  0.8860 -1.9981 -0.8745
    5bbb     C6  161   0.880   0.887   4.069 -0.2564 -0.6040 -0.2390
    5bbb    H11  162   0.924   0.858   4.165 -1.9643 -0.6255  0.5639
    5bbb    H12  163   0.890   0.995   4.052 -2.3975  0.1491  2.8106
    5bbb     C7  164   0.615   1.287   4.277 -0.3424 -0.3326 -0.3060
    5bbb    H13  165   0.723   1.302   4.285 -0.7044  3.1032 -1.1561
    5bbb    H14  166   0.565   1.345   4.357 -1.9866 -2.1185  0.0062
    5bbb     C8  167   0.949   0.803   3.960 -0.1919 -0.0815 -0.1318
    5bbb    H15  168   1.058   0.794   3.975  0.0318 -0.9361 -1.9724
    5bbb    H16  169   0.930   0.859   3.867  1.2952  0.0328 -0.3855
    5bbb     C9  170   0.687   0.648   4.460  0.3334  0.2606  0.1549
    5bbb    H17  171   0.620   0.683   4.538 -1.4960 -0.8320 -0.8958
    5bbb    H18  172   0.790   0.660   4.495  1.1992 -0.5480 -1.9753
    5bbb     O1  173   0.563   1.335   4.152 -0.2086  0.2751  0.3523
    6ccc     C1  174   0.396   1.215   3.778 -0.1476  0.7753 -0.7778
    6ccc     H1  175   0.472   1.278   3.826  0.6828 -0.0780 -0.9662
    6ccc     H2  176   0.430   1.116   3.747 -0.9103  0.4071 -0.4399
    6ccc     C2  177   0.333   1.286   3.658 -0.1875  0.0680 -0.2914
    6ccc     H3  178   0.415   1.314   3.590  1.4978  0.3608  1.8065
    6ccc     H4  179   0.291   1.379   3.696  3.1112  0.9610  1.3403
    6ccc     C3  180   0.233   1.213   3.573 -0.0323 -0.2522 -0.2332
    6ccc     H5  181   0.162   1.161   3.638  0.4200  1.0208  1.3116
    6ccc     H6  182   0.284   1.129   3.526 -0.0891 -0.9853  0.9960
    6ccc     N1  183   0.158   1.298   3.479 -0.2580 -0.1279  0.8395
    6ccc     C4  184   0.057   1.229   3.403 -0.0770 -0.6661 -0.1713
    6ccc     H7  185   0.102   1.135   3.370  1.1871  0.2663 -1.1272
    6ccc     H8  186   0.034   1.276   3.307  0.3469  0.8192  0.4297
    6ccc     C5  187  -0.066   1.196   3.480  0.2393  0.2163 -0.1781
    6ccc     H9  188  -0.051   1.154   3.580  0.6947  0.2639 -0.2298
    6ccc    H10  189  -0.124   1.286   3.504 -0.8360 -0.7454  0.9042
    6ccc     C6  190  -0.165   1.094   3.423 -0.2206 -0.0474 -0.4413
    6ccc     O1  191  -0.179   1.072   3.301  0.7778 -0.5062  0.2460
    6ccc     O2  192  -0.172   0.980   3.497  0.4221 -0.4741  0.2226
    6ccc    H11  193  -0.176   1.010   3.589  0.1708  0.7027 -0.1663
    6ccc     C7  194   0.246   1.381   3.393 -0.4535 -0.0035 -1.1367
    6ccc    H12  195   0.303   1.451   3.456 -2.6306  0.7187  0.1044
    6ccc    H13  196   0.312   1.313   3.340 -1.1361 -1.1116 -0.5940
    6ccc     C8  197   0.182   1.466   3.281 -0.6820  0.0142  0.5217
    6ccc    H14  198   0.138   1.411   3.197 -1.4822 -0.2817  1.1284
    6ccc    H15  199   0.117   1.541   3.329  1.4106  0.5781  2.5715
    6ccc     C9  200   0.289   1.551   3.221  0.1952 -0.4123  0.2545
    6ccc     O3  201   0.406   1.520   3.225  0.0134  0.1853  0.3325
    6ccc     O4  202   0.256   1.617   3.112 -0.5794 -0.7323  0.3591
    6ccc    H16  203   0.166   1.648   3.129 -0.0932  0.8812  0.0660
    6ccc     O5  204   0.287   1.187   3.861  0.2269  0.0199 -0.5629
    7ccc     C1  205  -0.312   0.466   3.938  0.6829 -0.1662  0.4343
    7ccc     H1  206  -0.347   0.446   3.836  1.1745 -2.2206  0.6603
    7ccc     H2  207  -0.282   0.367   3.973 -2.3695 -0.3664  2.7435
    7ccc     C2  208  -0.430   0.516   4.023  0.2014 -0.0678 -0.6488
    7ccc     H3  209  -0.449   0.624   4.017 -2.6771 -0.4670  0.7409
    7ccc     H4  210  -0.398   0.492   4.126  0.8076  0.6234 -0.6725
    7ccc     C3  211  -0.561   0.435   4.005  0.3526 -0.6784  0.1359
    7ccc     H5  212  -0.549   0.331   4.038 -0.3464 -1.6014 -2.4073
    7ccc     H6  213  -0.579   0.416   3.899  1.4262 -0.3819 -0.1063
    7ccc     N1  214  -0.681   0.489   4.079  0.2234 -0.7542  0.9027
    7ccc     C4  215  -0.806   0.433   4.026  0.0615 -0.4200  0.2007
    7ccc     H7  216  -0.793   0.419   3.918  3.8735  0.6411  0.4653
    7ccc     H8  217  -0.884   0.510   4.022 -0.2504 -0.7192  0.4850
    7ccc     C5  218  -0.856   0.297   4.092  0.7881  0.2167  0.5350
    7ccc     H9  219  -0.899   0.318   4.191 -0.2007 -0.4469  0.2589
    7ccc    H10  220  -0.941   0.258   4.034  2.4268  0.0256 -1.8206
    7ccc     C6  221  -0.760   0.186   4.099  0.3084  0.3441  0.6586
    7ccc     O1  222  -0.730   0.133   4.203  0.5154 -0.3276 -0.2483
    7ccc     O2  223  -0.719   0.132   3.984 -0.0802 -0.5513 -0.6220
    7ccc    H11  224  -0.775   0.184   3.923  0.4050  0.4604 -0.2216
    7ccc     C7  225  -0.664   0.518   4.222 -0.3484  0.3763  0.1009
    7ccc    H12  226  -0.671   0.428   4.284 -1.0459  0.6131  0.3779
    7ccc    H13  227  -0.565   0.559   4.242  0.9343 -2.1697 -0.8241
    7ccc     C8  228  -0.779   0.610   4.262  0.5039 -0.2375  0.0750
    7ccc    H14  229  -0.876   0.562   4.248 -0.3878  2.1945 -2.6386
    7ccc    H15  230  -0.778   0.699   4.198  1.0912 -0.2865  0.0095
    7ccc     C9  231  -0.765   0.656   4.405 -0.5312 -0.1708  0.4713
    7ccc     O3  232  -0.827   0.611   4.505  0.4016  0.6047  0.1388
    7ccc     O4  233  -0.680   0.756   4.431 -0.2586 -0.7118 -0.3575
    7ccc    H16  234  -0.639   0.786   4.348 -2.3505  2.9910 -0.1767
    7ccc     O5  235  -0.216   0.573   3.934 -0.8287 -0.0359 -0.4553
    8ccc     C1  236   1.561   0.857   4.228 -0.4983  0.1062  0.2675
    8ccc     H1  237   1.643   0.807   4.175 -0.7586 -1.1305  1.0257
    8ccc     H2  238   1.578   0.966   4.234 -0.0563 -0.0364  1.8664
    8ccc     C2  239   1.541   0.803   4.371 -0.7799  0.0982  0.3570
    8ccc     H3  240   1.468   0.861   4.428  0.4759  0.4815  1.5974
    8ccc     H4  241   1.633   0.835   4.421  0.4590  0.4583 -2.0575
    8ccc     C3  242   1.515   0.644   4.383  0.5929  0.8106 -1.2045
    8ccc     H5  243   1.594   0.595   4.325  1.9604  1.8349 -0.2523
    8ccc     H6  244   1.423   0.633   4.324 -0.4327 -3.8291  0.9431
    8ccc     N1  245   1.504   0.583   4.518  0.3531 -0.3590  0.4928
    8ccc     C4  246   1.596   0.629   4.619 -0.7909  0.4951  0.7880
    8ccc     H7  247   1.675   0.690   4.573  0.2222  0.1651  2.0628
    8ccc     H8  248   1.638   0.551   4.684 -1.3974  0.2762  0.9181
    8ccc     C5  249   1.521   0.724   4.716  0.0490 -0.3700  0.8463
    8ccc     H9  250   1.605   0.752   4.781  2.2015  1.9825 -2.7660
    8ccc    H10  251   1.492   0.813   4.659 -0.6141 -0.8800  0.3690
    8ccc     C6  252   1.406   0.658   4.780  0.4531  0.1926 -0.0528
    8ccc     O1  253   1.427   0.573   4.867  0.3710 -0.3829 -0.0139
    8ccc     O2  254   1.292   0.724   4.778 -0.2362  0.4892 -0.1131
    8ccc    H11  255   1.309   0.795   4.713 -0.2350  0.3571 -0.2559
    8ccc     C7  256   1.489   0.436   4.517  0.2740  0.0967 -0.4435
    8ccc    H12  257   1.577   0.387   4.474 -0.6776 -1.2489 -0.9205
    8ccc    H13  258   1.487   0.399   4.621  0.9283 -2.4936 -1.3167
    8ccc     C8  259   1.362   0.372   4.455 -0.1081  0.6716 -0.2704
    8ccc    H14  260   1.275   0.350   4.518  1.0470 -2.3227  0.3386
    8ccc    H15  261   1.328   0.448   4.383 -1.0213 -2.2131 -2.9727
    8ccc     C9  262   1.374   0.245   4.380  0.2266  1.0135  0.5345
    8ccc     O3  263   1.408   0.251   4.266  0.3558  0.3013 -0.7640
    8ccc     O4  264   1.393   0.135   4.451 -0.7920 -0.0761  0.4050
    8ccc    H16  265   1.400   0.179   4.538  1.0203 -0.2765  0.3744
    8ccc     O5  266   1.438   0.832   4.159  0.2190 -0.1385  0.3085
    9ccc     C1  267   1.410  -0.077   3.904 -0.3720 -0.4997  0.5964
    9ccc     H1  268   1.498  -0.075   3.839 -2.2665  3.5846 -2.0539
    9ccc     H2  269   1.446  -0.100   4.006  2.9310 -0.2202 -0.4359
    9ccc     C2  270   1.303  -0.180   3.863 -1.0334 -0.3811 -0.0386
    9ccc     H3  271   1.363  -0.265   3.830 -2.3538 -1.9874  1.6462
    9ccc     H4  272   1.235  -0.147   3.782 -0.1722  1.8007  0.0808
    9ccc     C3  273   1.215  -0.226   3.982 -0.1264  1.0657  0.0089
    9ccc     H5  274   1.158  -0.142   4.021 -0.3302  0.8483  0.1844
    9ccc     H6  275   1.274  -0.253   4.070 -0.4787 -1.6814 -0.5211
    9ccc     N1  276   1.133  -0.342   3.961 -0.3486  0.4168 -0.4463
    9ccc     C4  277   1.011  -0.352   4.046 -0.5851  0.3436 -0.3969
    9ccc     H7  278   0.952  -0.264   4.021  1.6387  1.3418 -2.3978
    9ccc     H8  279   0.940  -0.425   4.006 -0.0892  1.0001 -2.5572
    9ccc     C5  280   1.045  -0.380   4.196 -0.0189 -0.1590  0.2996
    9ccc     H9  281   1.065  -0.488   4.202 -0.8663 -0.2597  1.7016
    9ccc    H10  282   1.132  -0.320   4.228  1.0327 -0.1411 -2.4952
    9ccc     C6  283   0.927  -0.358   4.285  0.6778  0.4393 -0.1380
    9ccc     O1  284   0.867  -0.458   4.313 -0.3733 -0.3511 -0.2639
    9ccc     O2  285   0.930  -0.264   4.372  0.3134 -0.6540  0.2827
    9ccc    H11  286   0.985  -0.196   4.330  0.5454 -0.4084  0.9819
    9ccc     C7  287   1.200  -0.475   3.933 -0.4520 -0.0393 -0.9097
    9ccc    H12  288   1.235  -0.478   3.829 -1.0971 -2.8170 -1.0886
    9ccc    H13  289   1.127  -0.557   3.930 -0.3572 -0.1002 -1.7933
    9ccc     C8  290   1.318  -0.505   4.022 -0.7616  0.0248 -0.1049
    9ccc    H14  291   1.289  -0.516   4.127 -0.3831  0.4968  0.0458
    9ccc    H15  292   1.391  -0.426   4.003  0.2397 -1.0877 -0.9894
    9ccc     C9  293   1.386  -0.637   3.976 -0.9573 -0.6795  0.0984
    9ccc     O3  294   1.376  -0.684   3.866 -0.5786 -0.2476  0.3879
    9ccc     O4  295   1.484  -0.674   4.058  0.2527 -0.4159  0.0066
    9ccc    H16  296   1.500  -0.596   4.114  1.3721 -0.6938  0.0960
    9ccc     O5  297   1.346   0.058   3.895 -0.9032 -0.2846  0.1811
   10ccc     C1  298   0.569   0.935   4.703 -0.4132 -0.0570  0.2946
   10ccc     H1  299   0.546   0.829   4.682 -2.3759 -0.4203  3.8392
   10ccc     H2  300   0.567   0.946   4.812  1.0033  0.9325  0.2331
   10ccc     C2  301   0.455   1.017   4.630  0.5565  0.3134 -0.6721
   10ccc     H3  302   0.452   1.007   4.520 -0.5521  0.0312 -0.6258
   10ccc     H4  303   0.474   1.121   4.659  0.5235 -0.0034  0.4834
   10ccc     C3  304   0.309   0.979   4.676  0.5764 -0.1543 -0.7598
   10ccc     H5  305   0.310   1.002   4.783  1.8329  0.4969 -0.8945
   10ccc     H6  306   0.297   0.871   4.660 -2.1195  0.0056 -0.0736
   10ccc     N1  307   0.203   1.055   4.609  0.3022 -0.5912  0.2773
   10ccc     C4  308   0.208   1.200   4.619 -0.0176 -0.6628 -0.1798
   10ccc     H7  309   0.281   1.237   4.546 -0.1757 -0.2398 -0.1230
   10ccc     H8  310   0.240   1.222   4.721 -3.1143 -0.8716  0.9048
   10ccc     C5  311   0.079   1.282   4.585 -0.3302  0.3172 -0.6827
   10ccc     H9  312   0.055   1.275   4.478 -3.0680  1.8296 -0.2184
   10ccc    H10  313  -0.007   1.241   4.639  0.2362 -0.7392 -0.5598
   10ccc     C6  314   0.089   1.430   4.624  0.2014  0.0037 -0.1673
   10ccc     O1  315   0.179   1.487   4.687  0.0303  0.2095  0.4223
   10ccc     O2  316  -0.022   1.498   4.594  0.4695 -0.4908 -0.0283
   10ccc    H11  317  -0.076   1.434   4.543  0.2350 -0.6173  0.3743
   10ccc     C7  318   0.161   1.010   4.471  0.0198  0.0021 -0.6819
   10ccc    H12  319   0.087   1.079   4.430  0.0753  2.6755  3.3708
   10ccc    H13  320   0.243   1.024   4.400  2.5570  0.7526  2.2695
   10ccc     C8  321   0.127   0.857   4.479  0.5619  0.4793  0.0434
   10ccc    H14  322   0.223   0.807   4.459 -0.3057 -0.2179 -2.6447
   10ccc    H15  323   0.084   0.810   4.568 -0.0181 -1.9280 -1.4460
   10ccc     C9  324   0.034   0.819   4.360  0.6177  0.3568 -0.7995
   10ccc     O3  325   0.014   0.891   4.265  0.1206  0.0409 -0.2957
   10ccc     O4  326  -0.066   0.735   4.397  0.6151 -0.7754  0.2993
   10ccc    H16  327  -0.032   0.687   4.474  2.0518  0.5708  0.5321
   10ccc     O5  328   0.692   0.980   4.653 -0.6301  0.2905  0.3054
   11ccc     C1  329   0.873   1.703   4.475  0.0366  0.2987 -0.2329
   11ccc     H1  330   0.774   1.749   4.465 -0.0803  0.8413  2.8822
   11ccc     H2  331   0.923   1.745   4.563  0.5197  1.0034 -0.8303
   11ccc     C2  332   0.950   1.754   4.348 -0.5807  0.0785 -0.3023
   11ccc     H3  333   1.058   1.758   4.365 -0.6972 -1.2892  0.8639
   11ccc     H4  334   0.936   1.862   4.353 -0.5157  0.0398  1.0037
   11ccc     C3  335   0.894   1.698   4.209  0.3262 -0.4623  0.1005
   11ccc     H5  336   0.794   1.743   4.195  0.4527 -0.5052 -0.9819
   11ccc     H6  337   0.893   1.589   4.220  0.9865 -0.7813 -2.5302
   11ccc     N1  338   0.988   1.744   4.102 -0.8871  0.0083 -0.2443
   11ccc     C4  339   0.924   1.766   3.971 -0.5217  0.5082  0.1684
   11ccc     H7  340   0.818   1.793   3.972  0.1268  3.1541 -0.1014
   11ccc     H8  341   0.930   1.675   3.910  0.6874  0.7970 -0.1601
   11ccc     C5  342   0.996   1.878   3.891  0.2669  0.8041 -0.1342
   11ccc     H9  343   0.988   1.977   3.937  1.4098  2.1173 -2.6934
   11ccc    H10  344   1.105   1.860   3.892  0.1915  0.3697  0.8534
   11ccc     C6  345   0.944   1.886   3.753 -0.6423  0.1600 -0.3986
   11ccc     O1  346   0.955   1.789   3.679 -0.6122  0.9523 -0.0087
   11ccc     O2  347   0.859   1.980   3.723 -0.3575 -0.1806  0.5402
   11ccc    H11  348   0.864   2.043   3.796 -0.5298  0.1975  0.2312
   11ccc     C7  349   1.120   1.674   4.096 -0.4457 -0.4666 -0.6212
   11ccc    H12  350   1.188   1.726   4.028 -1.0521 -0.2105 -1.0391
   11ccc    H13  351   1.173   1.685   4.192 -0.8762 -1.2420 -0.2880
   11ccc     C8  352   1.124   1.527   4.066 -0.1343 -0.2282 -1.1698
   11ccc    H14  353   1.064   1.459   4.128  0.7691  0.9100  0.9925
   11ccc    H15  354   1.076   1.502   3.970 -1.4221 -3.2067  0.1900
   11ccc     C9  355   1.262   1.477   4.066 -0.3663  0.4444  0.0169
   11ccc     O3  356   1.322   1.449   4.166 -0.2313 -0.1943 -0.3151
   11ccc     O4  357   1.325   1.519   3.956 -0.0632 -0.6737 -0.8012
   11ccc    H16  358   1.249   1.545   3.902  0.0273 -1.7368 -1.4604
   11ccc     O5  359   0.870   1.558   4.483  0.1539 -0.2318  0.2022
   12ccc     C1  360   0.991   0.565   3.883  0.0692 -0.6002 -0.2187
   12ccc     H1  361   1.028   0.595   3.784 -0.3706 -1.7825 -0.7490
   12ccc     H2  362   1.076   0.553   3.950  0.9063  2.0339 -0.7520
   12ccc     C2  363   0.908   0.437   3.866  0.8250  0.8163 -0.4598
   12ccc     H3  364   0.843   0.451   3.778  0.0995 -0.6598 -0.1702
   12ccc     H4  365   0.837   0.433   3.949  2.0215 -1.1186  0.4717
   12ccc     C3  366   0.989   0.306   3.844 -0.1071  0.1825 -0.0013
   12ccc     H5  367   1.054   0.283   3.929  0.8062 -0.4037 -0.8409
   12ccc     H6  368   1.062   0.298   3.762 -0.3467 -0.6517 -0.1413
   12ccc     N1  369   0.886   0.201   3.842 -0.0940  0.5359  0.5770
   12ccc     C4  370   0.841   0.170   3.702  0.1611 -0.1096 -0.2965
   12ccc     H7  371   0.910   0.104   3.648 -1.2361 -1.1027 -0.8934
   12ccc     H8  372   0.828   0.261   3.643 -0.5024  0.3486  0.5493
   12ccc     C5  373   0.698   0.114   3.704  0.3748  0.2985 -0.0464
   12ccc     H9  374   0.665   0.100   3.600  0.4101 -1.9004  0.2214
   12ccc    H10  375   0.694   0.017   3.756  1.7434  0.8162  1.0726
   12ccc     C6  376   0.592   0.208   3.766  0.1914  0.2305  0.0998
   12ccc     O1  377   0.549   0.214   3.886  0.0065  0.0414  0.1534
   12ccc     O2  378   0.539   0.301   3.684 -0.0688  0.1838  0.2806
   12ccc    H11  379   0.601   0.298   3.609 -1.3014  1.2064 -0.8137
   12ccc     C7  380   0.908   0.086   3.939 -0.2695  0.1542  0.5491
   12ccc    H12  381   0.821   0.019   3.925  0.0348  0.1479 -1.4377
   12ccc    H13  382   1.003   0.037   3.915 -0.2215  0.0637  0.9214
   12ccc     C8  383   0.899   0.138   4.084 -0.1811 -0.1083  0.1865
   12ccc    H14  384   0.976   0.211   4.111  1.3037 -1.4706 -0.3347
   12ccc    H15  385   0.806   0.197   4.085 -0.9956 -1.3797  1.6846
   12ccc     C9  386   0.892   0.011   4.171 -0.4434 -0.4044  0.3104
   12ccc     O3  387   0.793  -0.065   4.173 -0.0538 -0.1548  0.2872
   12ccc     O4  388   1.007  -0.027   4.236  0.6888 -0.3371 -0.1552
   12ccc    H16  389   1.071   0.042   4.210 -1.0538  1.6583  0.7486
   12ccc     O5  390   0.902   0.664   3.945  0.1023  0.5378  0.6788
   13ccc     C1  391   0.670   0.430   4.559  0.9513  0.6226 -0.4838
   13ccc     H1  392   0.778   0.428   4.575  1.3044  1.5203 -2.6106
   13ccc     H2  393   0.619   0.469   4.649  1.1110  2.2142 -1.0695
   13ccc     C2  394   0.595   0.302   4.532  0.1058  0.9672  0.5688
   13ccc     H3  395   0.493   0.322   4.497  0.4882 -0.0922 -1.2073
   13ccc     H4  396   0.594   0.245   4.626 -0.9023  0.3023  0.1681
   13ccc     C3  397   0.666   0.213   4.423 -0.3607 -0.3419 -0.3379
   13ccc     H5  398   0.768   0.188   4.454 -0.0073 -0.2877 -1.4123
   13ccc     H6  399   0.679   0.276   4.334  0.7138 -0.5384 -0.3288
   13ccc     N1  400   0.589   0.088   4.383 -0.1562  0.1273  0.0939
   13ccc     C4  401   0.461   0.122   4.317  0.5251 -0.0599  0.1385
   13ccc     H7  402   0.401   0.034   4.290  2.2879 -0.1699 -3.8203
   13ccc     H8  403   0.400   0.188   4.379  0.0527 -0.9238  0.6110
   13ccc     C5  404   0.477   0.183   4.170  0.3603  0.0691  0.0066
   13ccc     H9  405   0.526   0.111   4.104 -0.2963 -2.1226  1.8473
   13ccc    H10  406   0.548   0.267   4.168  0.1065  0.2722 -1.6418
   13ccc     C6  407   0.345   0.239   4.120  0.7099 -0.0287  0.8174
   13ccc     O1  408   0.239   0.218   4.176  0.2937  0.1464 -0.2225
   13ccc     O2  409   0.333   0.281   3.994 -0.2985  0.1933 -0.6735
   13ccc    H11  410   0.425   0.263   3.968  0.0004 -4.1192  2.7397
   13ccc     C7  411   0.562  -0.013   4.480  0.1962 -0.6162 -0.3481
   13ccc    H12  412   0.528   0.026   4.576 -0.4221  0.7438 -1.1111
   13ccc    H13  413   0.495  -0.091   4.442 -1.7339  1.4615 -1.2641
   13ccc     C8  414   0.699  -0.075   4.513 -0.1622  0.4569 -0.2045
   13ccc    H14  415   0.753  -0.093   4.419 -0.6040  0.3580 -0.4375
   13ccc    H15  416   0.751  -0.004   4.579 -0.0771  0.0048  0.2198
   13ccc     C9  417   0.689  -0.198   4.599 -0.7247  1.2829  0.6746
   13ccc     O3  418   0.623  -0.196   4.697 -0.0117 -0.1203 -0.8116
   13ccc     O4  419   0.792  -0.288   4.594  0.1469 -0.1537 -0.6280
   13ccc    H16  420   0.842  -0.265   4.515 -1.2523  2.2298 -0.8631
   13ccc     O5  421   0.647   0.510   4.443 -0.1921  0.3229  0.4067
   14SOL     OW  422   3.091   5.627   6.012  0.2456  0.5306  0.5540
   14SOL    HW1  423   3.060   5.698   6.069  2.4390  1.1407  1.0480
   14SOL    HW2  424   3.175   5.659   5.979 -0.1188 -0.6185 -1.5556
   15SOL     OW  425   0.082   5.504   1.845 -1.2146 -0.1968  0.3452
   15SOL    HW1  426  -0.004   5.462   1.851 -0.9870 -0.6223  0.6791
   15SOL    HW2  427   0.112   5.512   1.936  0.9916 -4.0227  0.0641
   16SOL     OW  428   4.367   4.804   2.952  0.8569 -0.4702  0.4767
   16SOL    HW1  429   4.342   4.804   3.045 -1.4995 -1.2652 -0.1196
   16SOL    HW2  430   4.425   4.879   2.943  0.1919  0.3154  2.3731
   17SOL     OW  431   3.464   4.526   3.037  0.1068  0.1853 -0.2340
   17SOL    HW1  432   3.389   4.526   3.096 -1.0923  0.2730 -1.7377
   17SOL    HW2  433   3.427   4.546   2.951  2.0419  1.7667 -0.7420
   18SOL     OW  434   6.213   2.716   4.461 -0.2191 -0.1499 -0.3528
   18SOL    HW1  435   6.299   2.696   4.424 -0.2517 -1.0438  0.0490
   18SOL    HW2  436   6.157   2.644   4.433 -0.8529  0.4329 -0.6249
   19SOL     OW  437   1.709   0.238   3.625 -0.0606 -0.0900 -0.0812
   19SOL    HW1  438   1.760   0.159   3.643  0.1938 -0.0860 -0.7687
   19SOL    HW2  439   1.761   0.309   3.663  0.0845 -0.1704 -0.1262
   20SOL     OW  440   2.119   0.296   2.085  0.3525  0.2907 -0.3873
   20SOL    HW1  441   2.048   0.247   2.043  1.4602 -1.2292 -0.5469
   20SOL    HW2  442   2.134   0.371   2.027 -0.4082  0.0401 -0.9185
   21SOL     OW  443   3.300   4.113   3.347  0.3424 -0.2664 -0.1330
   21SOL    HW1  444   3.266   4.182   3.291  0.0293 -1.1536 -1.0604
   21SOL    HW2  445   3.230   4.095   3.409 -0.1337 -0.7389 -0.8035
   22SOL     OW  446   4.707   3.741   5.937 -0.0887  0.5449 -0.0704
   22SOL    HW1  447   4.739   3.797   5.866 -0.3545  0.0154 -0.6101
   22SOL    HW2  448   4.723   3.792   6.016  1.3326  0.6365 -0.4015
   23SOL     OW  449   3.676   6.062   5.426 -0.1477  0.4507  0.4630
   23SOL    HW1  450   3.753   6.007   5.437 -0.9152 -0.7135  0.1446
   23SOL    HW2  451   3.605   6.013   5.467 -1.4968 -0.3714 -2.7207
   24SOL     OW  452   0.483   1.699   2.986  0.1919  0.2490  0.0769
   24SOL    HW1  453   0.389   1.689   2.971  0.0016  2.6001 -0.3471
   24SOL    HW2  454   0.502   1.640   3.059 -1.9064  1.0009  1.2463
   25SOL     OW  455   5.172   5.319   2.082  0.1617 -0.2504 -0.0133
   25SOL    HW1  456   5.201   5.249   2.023 -0.1055  0.9725 -1.6072
   25SOL    HW2  457   5.216   5.398   2.050 -0.8894  0.6450  0.7102
   26SOL     OW  458   4.042   2.675   4.316  0.4946 -0.0847 -0.5486
   26SOL    HW1  459   4.136   2.666   4.300 -0.0678 -2.4292 -2.9242
   26SOL    HW2  460   4.018   2.593   4.360 -0.8170 -0.5235 -2.0303
   27SOL     OW  461   4.950   1.027   1.715  0.3039  0.0644 -0.0045
   27SOL    HW1  462   4.964   1.058   1.805  2.1398 -1.0205  0.0965
   27SOL    HW2  463   4.857   1.003   1.713  0.3745 -0.4857  1.7958
   28SOL     OW  464   0.030   5.477   2.882  0.7856  0.3976 -0.1680
   28SOL    HW1  465   0.116   5.481   2.925  0.0946 -0.9764  1.3942
   28SOL    HW2  466   0.033   5.395   2.831 -0.1963 -0.5444  1.2554
   29SOL     OW  467   5.361   3.988   5.857  0.4269 -0.3028  0.1243
   29SOL    HW1  468   5.414   4.037   5.794  1.4756 -0.3174  0.9823
   29SOL    HW2  469   5.271   4.009   5.834  0.8589  2.1110  0.5234
   30SOL     OW  470   0.678   5.524   1.201  0.4467  0.0594 -0.3923
   30SOL    HW1  471   0.749   5.493   1.256  0.1549 -0.4782 -0.3103
   30SOL    HW2  472   0.718   5.539   1.115  0.9261  1.0223 -0.0003
   31SOL     OW  473   3.865   6.100   0.635 -0.0125 -0.6060  0.1772
   31SOL    HW1  474   3.850   6.040   0.708 -0.3713 -0.9300 -0.1582
   31SOL    HW2  475   3.782   6.146   0.625  0.3152  0.0670  0.5407
   32SOL     OW  476   1.284   6.012   4.597  0.3703  0.2261  0.0574
   32SOL    HW1  477   1.367   6.052   4.623 -0.6771  1.4012  1.7486
   32SOL    HW2  478   1.286   5.925   4.637  0.3015  0.6834  1.0677
   33SOL     OW  479   2.695   5.283   0.911  0.8664  0.1321 -0.3208
   33SOL    HW1  480   2.659   5.261   0.825  0.5103 -0.4855 -0.0204
   33SOL    HW2  481   2.790   5.284   0.897  0.8453 -0.6987 -0.5548
   34SOL     OW  482   2.172   3.379   0.319 -0.3045 -0.5032 -0.0834
   34SOL    HW1  483   2.242   3.345   0.375 -0.1617 -0.9960 -0.5585
   34SOL    HW2  484   2.160   3.312   0.252 -2.3709 -1.1806  0.9308
   35SOL     OW  485   5.220   3.823   6.330  0.3313  0.1307  0.5166
   35SOL    HW1  486   5.227   3.833   6.425  1.8238  1.4040  0.2950
   35SOL    HW2  487   5.253   3.906   6.294 -0.6371 -0.1607 -1.1004
   36SOL     OW  488   0.991   5.031   4.758  0.2975  0.3633 -0.1665
   36SOL    HW1  489   0.971   5.123   4.739  1.4360  0.6044 -0.1930
   36SOL    HW2  490   1.086   5.025   4.751  0.2543 -0.7452  0.1788
   37SOL     OW  491   1.516   2.571   0.307 -0.1858 -0.3534  0.0850
   37SOL    HW1  492   1.475   2.542   0.388  0.5043 -4.4962 -0.9392
   37SOL    HW2  493   1.581   2.635   0.335  0.1704 -1.8420  2.8714
   38SOL     OW  494   0.493   6.074   2.630  0.1149 -0.7287 -0.6124
   38SOL    HW1  495   0.443   6.116   2.559  1.8442  0.0470 -1.4223
   38SOL    HW2  496   0.459   5.985   2.634 -0.1304 -0.7411 -2.3345
   39SOL     OW  497   3.593   4.738   1.560 -0.0320 -0.6087  0.2219
   39SOL    HW1  498   3.559   4.774   1.478  1.9765  1.1289  0.1096
   39SOL    HW2  499   3.576   4.806   1.625  1.6642 -0.4142  0.4872
   40SOL     OW  500   3.607   3.550   1.944 -0.0435 -0.0726  0.8804
   40SOL    HW1  501   3.684   3.494   1.951  0.2023 -0.2667 -2.3785
   40SOL    HW2  502   3.643   3.637   1.925 -0.5614  0.3457  1.7863
   41SOL     OW  503   0.124   3.950   5.034 -0.3803  0.3501  0.6219
   41SOL    HW1  504   0.037   3.989   5.045 -0.1009  0.6855  1.7533
   41SOL    HW2  505   0.185   4.022   5.054  0.1712  0.3448 -0.9666
   42SOL     OW  506   5.205   3.026   4.591  0.1150 -0.2093 -0.0562
   42SOL    HW1  507   5.147   3.098   4.568  0.3492  0.3697  1.1418
   42SOL    HW2  508   5.271   3.025   4.522 -2.5063 -2.2799 -2.7009
   43SOL     OW  509   2.496   2.066   1.327 -0.1347 -0.1887 -0.1865
   43SOL    HW1  510   2.592   2.061   1.322 -0.0531  0.5223  0.7150
   43SOL    HW2  511   2.476   2.159   1.318 -0.6200 -0.0844  1.7499
   44SOL     OW  512   6.053   0.265   2.683  0.1438 -0.0153 -0.0176
   44SOL    HW1  513   6.068   0.305   2.768 -0.6975 -0.0423  0.1411
   44SOL    HW2  514   6.038   0.339   2.624 -2.9489 -0.1189  0.5660
   45SOL     OW  515   3.989   0.208   2.521  0.0616 -0.3657  0.1351
   45SOL    HW1  516   4.047   0.245   2.454  0.5469 -4.1637 -1.6497
   45SOL    HW2  517   4.048   0.179   2.590  0.0470 -1.6223 -0.3783
   46SOL     OW  518   1.483   2.267   2.816 -0.3806 -0.1231 -0.5773
   46SOL    HW1  519   1.457   2.256   2.907  2.7074 -1.1554  0.2180
   46SOL    HW2  520   1.480   2.179   2.779 -1.9440  0.3346 -1.5998
   47SOL     OW  521   5.662   2.723   1.625  0.2383 -0.2253 -0.0250
   47SOL    HW1  522   5.654   2.774   1.706  0.3365  0.6771 -0.5813
   47SOL    HW2  523   5.574   2.727   1.586  0.2450 -0.4854 -0.0633
   48SOL     OW  524   0.258   4.122   3.759 -0.2794  0.0643 -0.3063
   48SOL    HW1  525   0.307   4.203   3.745 -0.0787  0.4718  2.5176
   48SOL    HW2  526   0.173   4.138   3.717  0.5196  0.8911 -1.6528
   49SOL     OW  527   0.842   4.820   3.515 -0.4674  0.1845 -0.2190
   49SOL    HW1  528   0.861   4.726   3.519 -0.3819 -0.1189 -4.6846
   49SOL    HW2  529   0.927   4.862   3.502 -0.7354  0.6551 -0.4919
   50SOL     OW  530   5.219   6.259   5.659  0.7149  0.3084 -0.0294
   50SOL    HW1  531   5.157   6.203   5.612 -0.1491  0.4236  0.9589
   50SOL    HW2  532   5.304   6.241   5.618  0.1422 -0.3644 -0.9272
   51SOL     OW  533   4.984   2.199   5.578 -0.1095  0.1369  0.7594
   51SOL    HW1  534   4.970   2.116   5.624 -0.2964  0.0651  0.5752
   51SOL    HW2  535   5.074   2.223   5.599  0.2406 -0.5628  0.1088
   52SOL     OW  536   2.508   5.638   0.989  0.0379  0.0036 -0.2271
   52SOL    HW1  537   2.431   5.692   1.007 -0.1809 -0.5296  0.4473
   52SOL    HW2  538   2.504   5.569   1.055  0.6386 -0.4993 -0.7237
   53SOL     OW  539   0.002   5.257   0.988  0.5221 -0.2495  0.2461
   53SOL    HW1  540   0.060   5.296   1.053  1.0551 -0.2039 -0.2530
   53SOL    HW2  541   0.053   5.256   0.907 -0.4604  0.5525 -0.4068
   54SOL     OW  542   5.860   0.398   3.616  0.1783  0.3213  0.5893
   54SOL    HW1  543   5.800   0.367   3.549 -1.0139 -0.2978  1.9019
   54SOL    HW2  544   5.816   0.474   3.655  1.2523  1.2097  0.0965
   55SOL     OW  545   2.799   3.216   4.219 -0.6335  0.5024 -0.9896
   55SOL    HW1  546   2.825   3.131   4.184 -0.1460 -0.1171  0.8107
   55SOL    HW2  547   2.725   3.197   4.277 -1.7505  1.5727 -2.0075
   56SOL     OW  548   1.871   2.728   2.510  0.6676  0.6413 -0.0266
   56SOL    HW1  549   1.898   2.759   2.597  2.3144 -2.3728  0.6116
   56SOL    HW2  550   1.940   2.760   2.451  1.5424 -0.4578  0.3846
   57SOL     OW  551   4.526   4.888   3.328 -0.1830 -0.1270 -0.1916
   57SOL    HW1  552   4.588   4.860   3.260  2.2748  1.5979  1.2644
   57SOL    HW2  553   4.537   4.823   3.398 -0.9730 -0.5632 -0.4765
   58SOL     OW  554   6.373   3.220   5.545  0.4848  0.1186 -0.8305
   58SOL    HW1  555   6.332   3.162   5.609  1.1937 -0.7908 -1.1890
   58SOL    HW2  556   6.458   3.241   5.584  0.3397  0.7081 -0.8279
   59SOL     OW  557   1.369   5.398   4.489 -0.0993 -0.4088  0.1204
   59SOL    HW1  558   1.343   5.487   4.514 -1.9423 -0.4092 -1.6561
   59SOL    HW2  559   1.355   5.395   4.394  2.5751 -1.7436 -0.2815
   60SOL     OW  560   0.228   2.575   1.559 -0.0371  0.2599  0.5061
   60SOL    HW1  561   0.285   2.632   1.509 -1.1216  1.4528  0.6089
   60SOL    HW2  562   0.278   2.493   1.568  0.4793  0.2585 -1.8788
   61SOL     OW  563   2.732   2.708   3.975  0.0503  0.1422  0.2522
   61SOL    HW1  564   2.805   2.653   3.945  0.0165  0.2648 -0.0615
   61SOL    HW2  565   2.702   2.667   4.056  0.2392 -0.1123  0.1928
   62SOL     OW  566   4.692   3.763   3.075  0.2727 -0.3558 -0.5490
   62SOL    HW1  567   4.665   3.679   3.037 -1.0654 -0.1723 -0.0260
   62SOL    HW2  568   4.613   3.817   3.073  1.1254  0.9081 -0.8941
   63SOL     OW  569   2.889   2.719   5.949 -0.2877  0.0255  1.0555
   63SOL    HW1  570   2.941   2.727   6.029  0.0344  0.4242  0.8090
   63SOL    HW2  571   2.929   2.646   5.902  0.1324  0.4096  0.8092
   64SOL     OW  572   5.675   5.713   1.053 -0.0636  0.0218  0.6787
   64SOL    HW1  573   5.677   5.780   1.121 -0.3308  0.0808  0.6253
   64SOL    HW2  574   5.704   5.757   0.973  2.4446 -0.5611  1.2195
   65SOL     OW  575   0.301   1.814   0.912  0.2717  0.4161 -0.4181
   65SOL    HW1  576   0.309   1.896   0.863  1.1785  0.1628 -0.6951
   65SOL    HW2  577   0.235   1.764   0.864 -1.3314  1.5416  0.5441
   66SOL     OW  578   2.259   0.966   2.057  0.5553 -0.1444  0.3965
   66SOL    HW1  579   2.342   0.933   2.093 -0.0587 -0.7346  1.3151
   66SOL    HW2  580   2.273   1.059   2.045  0.4009  0.3211  3.3796
   67SOL     OW  581   2.331   1.308   3.708  0.4326 -0.4728  0.0286
   67SOL    HW1  582   2.425   1.300   3.694  0.3354 -0.1389 -0.8033
   67SOL    HW2  583   2.323   1.340   3.798  1.1481  0.4088 -0.2109
   68SOL     OW  584   5.970   5.553   1.603 -0.0109 -0.3498 -0.1306
   68SOL    HW1  585   5.942   5.508   1.683  1.5700 -3.3811 -1.1707
   68SOL    HW2  586   6.050   5.599   1.628 -0.8115  0.6712  0.5834
   69SOL     OW  587   3.464   5.848   1.355 -0.4560 -0.4353 -0.3817
   69SOL    HW1  588   3.533   5.893   1.404 -2.3449  0.9967  1.0112
   69SOL    HW2  589   3.443   5.908   1.283 -1.0844 -0.3064 -0.0951
   70SOL     OW  590   3.925   3.813   2.442 -0.2863 -0.7077  0.2108
   70SOL    HW1  591   3.868   3.767   2.381  0.9703 -1.5277 -0.3663
   70SOL    HW2  592   3.869   3.830   2.518 -1.0526 -2.3401  0.0449
   71SOL     OW  593   2.500   1.113   1.845 -0.5383 -0.0243 -0.0195
   71SOL    HW1  594   2.556   1.191   1.849 -0.7203  0.0840  0.5097
   71SOL    HW2  595   2.436   1.133   1.776  0.6455 -0.5398 -1.2714
   72SOL     OW  596   4.447   2.810   0.739  0.5156  0.3598  0.1910
   72SOL    HW1  597   4.368   2.802   0.792  0.0568 -1.3762 -0.7142
   72SOL    HW2  598   4.457   2.724   0.697  1.4960  1.3390 -1.6529
   73SOL     OW  599   2.065   6.141   0.666  0.3166  0.9211 -0.2418
   73SOL    HW1  600   1.977   6.140   0.703  0.6077 -0.3423  0.4536
   73SOL    HW2  601   2.053   6.110   0.576  0.2025 -0.4200  0.2265
   74SOL     OW  602   4.136   0.252   2.072  0.2764 -0.1931  0.1387
   74SOL    HW1  603   4.073   0.299   2.017  0.4074 -0.6770 -0.4332
   74SOL    HW2  604   4.215   0.245   2.018  0.3532 -0.8107  0.3268
   75SOL     OW  605   5.299   4.117   0.045  0.1665 -0.0272 -0.3599
   75SOL    HW1  606   5.241   4.129  -0.030 -0.5874  1.1029  0.3646
   75SOL    HW2  607   5.378   4.165   0.022 -0.4250  1.1148 -0.0622
   76SOL     OW  608   5.049   2.941   1.187 -0.3313  0.0838  0.5662
   76SOL    HW1  609   5.122   2.882   1.206 -0.5978 -0.5879 -0.4526
   76SOL    HW2  610   4.977   2.909   1.241 -0.5041 -0.5863 -0.0631
   77SOL     OW  611   1.689   4.049   3.066 -0.4172  0.2276 -0.0373
   77SOL    HW1  612   1.670   4.136   3.099 -1.7174  0.1989 -0.6662
   77SOL    HW2  613   1.697   4.060   2.971  2.8290  0.2351  0.1885
   78SOL     OW  614   1.308   3.654   4.251 -0.0539  0.2343 -0.0125
   78SOL    HW1  615   1.226   3.683   4.289 -0.8263 -2.1571  0.2484
   78SOL    HW2  616   1.375   3.703   4.299 -1.2919  1.8602  0.0947
   79SOL     OW  617   3.131   2.978   5.803 -0.3480 -0.2946 -0.0928
   79SOL    HW1  618   3.047   2.989   5.757 -0.4371  1.4272  0.4219
   79SOL    HW2  619   3.187   2.931   5.741 -1.0344  0.4126 -1.2755
   80SOL     OW  620   2.451   1.808   1.419 -0.2703 -0.3108  0.0595
   80SOL    HW1  621   2.436   1.880   1.358 -0.4532 -0.2761  0.1441
   80SOL    HW2  622   2.427   1.729   1.370 -0.9476 -0.2352  0.2692
   81SOL     OW  623   0.481   1.288   0.706 -0.8406  0.1794  0.5956
   81SOL    HW1  624   0.568   1.253   0.724 -0.7168  1.5220  2.7549
   81SOL    HW2  625   0.497   1.367   0.654 -0.8906 -0.6187 -0.6491
   82SOL     OW  626   4.485   5.448   0.261  0.5842 -0.0442  0.6950
   82SOL    HW1  627   4.556   5.404   0.308  0.2389  1.3225  2.5237
   82SOL    HW2  628   4.482   5.403   0.176  0.6896 -3.1051  2.2368
   83SOL     OW  629   3.178   5.586   2.835  0.2978  0.2859  0.1170
   83SOL    HW1  630   3.185   5.509   2.891 -2.0804  1.4192  2.0335
   83SOL    HW2  631   3.267   5.622   2.833  0.5583 -0.1642  2.5936
   84SOL     OW  632   6.127   4.060   2.770  0.0234 -0.3324 -0.0965
   84SOL    HW1  633   6.170   4.110   2.701 -0.3212 -0.0119 -0.0802
   84SOL    HW2  634   6.163   4.095   2.852  1.0945 -1.3184 -0.1340
   85SOL     OW  635   6.079   6.307   2.313 -0.1592 -1.0620 -0.0016
   85SOL    HW1  636   5.997   6.296   2.264 -0.8319  0.5043  0.7152
   85SOL    HW2  637   6.051   6.324   2.403  0.9424 -0.3847  0.2269
   86SOL     OW  638   6.191   0.555   1.671 -0.1306  0.2130 -0.5116
   86SOL    HW1  639   6.171   0.628   1.731  0.1364 -0.6711  0.6742
   86SOL    HW2  640   6.105   0.525   1.641 -0.5650 -1.9182  2.5799
   87SOL     OW  641   6.231   1.448   3.271  0.6668  0.0015  0.6165
   87SOL    HW1  642   6.256   1.414   3.186 -0.2727  1.1641 -0.1410
   87SOL    HW2  643   6.147   1.406   3.290  1.3043 -0.9557  1.4053
   88SOL     OW  644   3.232   2.617   1.305 -0.1242  0.4519 -0.0220
   88SOL    HW1  645   3.283   2.648   1.379  0.4112 -0.8440  0.1649
   88SOL    HW2  646   3.283   2.644   1.228  1.4502 -1.8115  0.1836
   89SOL     OW  647   5.318   5.329   2.538  0.2470  0.3110  0.6005
   89SOL    HW1  648   5.261   5.252   2.529 -0.8950  1.3156 -1.1292
   89SOL    HW2  649   5.346   5.328   2.629 -0.4174 -1.6852  0.8160
   90SOL     OW  650   3.276   2.109   3.694  0.2728 -0.2008 -0.1224
   90SOL    HW1  651   3.277   2.147   3.606  1.0420 -0.4542 -0.2252
   90SOL    HW2  652   3.363   2.073   3.706 -0.3714 -1.7340  0.0730
   91SOL     OW  653   4.463   4.763   4.847  0.2554  0.7276  0.0078
   91SOL    HW1  654   4.541   4.784   4.795  0.5166  2.4009  1.0107
   91SOL    HW2  655   4.392   4.808   4.803  0.3138  1.3467  0.5318
   92SOL     OW  656   1.770   1.008   5.985  0.6819  0.0682 -0.4578
   92SOL    HW1  657   1.818   1.070   5.929 -1.5185  1.3650 -1.0125
   92SOL    HW2  658   1.760   1.054   6.068 -0.3463  0.1916 -0.6412
   93SOL     OW  659   0.704   3.289   3.749 -0.3832  0.2170  0.3945
   93SOL    HW1  660   0.681   3.382   3.758 -2.3250 -0.2443  0.4139
   93SOL    HW2  661   0.748   3.267   3.831 -2.7878  0.3287  1.7561
   94SOL     OW  662   1.663   1.093   3.575  0.0809 -0.2055 -0.4389
   94SOL    HW1  663   1.602   1.059   3.509  1.4969 -0.6894 -1.5078
   94SOL    HW2  664   1.655   1.188   3.568  0.1877 -0.2544 -1.2764
   95SOL     OW  665   6.367   2.678   5.186 -0.2206  0.6091 -0.0319
   95SOL    HW1  666   6.442   2.701   5.131 -1.9144  2.0111 -1.8001
   95SOL    HW2  667   6.357   2.752   5.246  0.6790 -0.2299  1.1741
   96SOL     OW  668   1.095   0.221   1.077 -0.3504 -0.5222  0.2618
   96SOL    HW1  669   1.188   0.201   1.085 -0.3972 -0.8638 -0.0355
   96SOL    HW2  670   1.093   0.313   1.048 -0.1556  0.2122  2.4584
   97SOL     OW  671   0.345   2.643   3.308  0.8867 -0.2278  0.4014
   97SOL    HW1  672   0.275   2.641   3.242 -1.3430  0.4836  2.6604
   97SOL    HW2  673   0.332   2.563   3.358  0.1733  1.0493  2.3086
   98SOL     OW  674   2.038   4.222   5.346  0.3890  0.4125 -0.1860
   98SOL    HW1  675   2.043   4.224   5.441  1.7375  1.1661 -0.2604
   98SOL    HW2  676   1.949   4.250   5.326  0.6241  1.9121  0.8142
   99SOL     OW  677   4.749   5.707   1.647  0.1553  0.4675 -0.2875
   99SOL    HW1  678   4.827   5.760   1.663  0.0367  0.2851  0.9378
   99SOL    HW2  679   4.779   5.636   1.590  0.9996  0.1178  0.5796
  100SOL     OW  680   1.548   4.851   0.173 -0.5351  0.2626 -0.5268
  100SOL    HW1  681   1.552   4.789   0.246 -1.3814 -0.0045 -0.7004
  100SOL    HW2  682   1.624   4.909   0.186 -1.3540  0.9655  1.2271
  101SOL     OW  683   2.896   1.525   3.666  0.3900 -0.1122 -0.6100
  101SOL    HW1  684   2.850   1.575   3.733  0.4995 -0.0808 -0.5584
  101SOL    HW2  685   2.874   1.433   3.685  0.2709 -0.0910 -0.6435
  102SOL     OW  686   3.603   6.314   4.280  0.1584  0.2482 -0.0751
  102SOL    HW1  687   3.603   6.243   4.216 -0.0833  0.9275 -0.8542
  102SOL    HW2  688   3.512   6.319   4.310  0.1490  0.3027 -0.1118
  103SOL     OW  689   2.215   1.096   0.832  0.8192  0.4452  0.2128
  103SOL    HW1  690   2.265   1.171   0.865  0.0042  0.3830  1.6474
  103SOL    HW2  691   2.277   1.023   0.834  1.5485  1.0184 -0.9673
  104SOL     OW  692   0.771   2.019   0.936  0.5287 -0.1168  0.1577
  104SOL    HW1  693   0.799   1.974   0.856  0.5019 -0.0861  0.1313
  104SOL    HW2  694   0.698   1.967   0.968  1.6068 -1.1064  1.0798
  105SOL     OW  695   4.094   3.628   2.034  0.5841  0.0893  0.4975
  105SOL    HW1  696   4.077   3.711   1.990  3.0410  0.7777  0.7759
  105SOL    HW2  697   4.158   3.649   2.102  0.5095 -1.8536  1.2058
  106SOL     OW  698   3.340   4.263   1.860 -0.0220 -0.8656 -0.3458
  106SOL    HW1  699   3.276   4.192   1.866  0.6778 -1.4996 -0.3220
  106SOL    HW2  700   3.424   4.221   1.874  0.5134 -0.2441 -1.6205
  107SOL     OW  701   4.028   0.439   1.892  0.3929 -0.1227  0.6506
  107SOL    HW1  702   4.067   0.453   1.806 -0.8561  2.0292  0.4137
  107SOL    HW2  703   3.935   0.424   1.874 -0.0548  1.3446  1.6892
  108SOL     OW  704   4.580   2.646   4.552  0.1008 -0.7252 -0.1222
  108SOL    HW1  705   4.552   2.654   4.643 -0.5186 -0.1950 -0.3498
  108SOL    HW2  706   4.653   2.707   4.544  0.6534 -1.3389  0.2104
  109SOL     OW  707   4.417   1.503   3.153 -0.3119 -0.9941 -0.1078
  109SOL    HW1  708   4.396   1.455   3.233  0.8858 -1.6874 -0.1978
  109SOL    HW2  709   4.500   1.547   3.172 -0.9299  0.2954 -0.3506
  110SOL     OW  710   3.743   2.597   2.662  0.3820 -0.2045 -0.4103
  110SOL    HW1  711   3.830   2.586   2.624  0.1404 -1.4575 -0.6134
  110SOL    HW2  712   3.688   2.624   2.589  0.4887  0.0779 -0.3872
  111SOL     OW  713   2.208   4.636   0.840 -0.3888  0.6509  0.0320
  111SOL    HW1  714   2.167   4.720   0.817 -0.8476  0.0607 -1.3572
  111SOL    HW2  715   2.137   4.572   0.833 -0.1594  0.1934  1.5617
  112SOL     OW  716   5.702   1.885   0.818  0.7433  0.1294  0.5091
  112SOL    HW1  717   5.752   1.804   0.831  0.2972 -0.1377  0.5546
  112SOL    HW2  718   5.683   1.886   0.724 -1.8249 -1.3295  0.9837
  113SOL     OW  719   1.706   2.761   3.294 -0.0479  0.1361 -0.1624
  113SOL    HW1  720   1.692   2.704   3.218 -0.4533  0.0189 -0.0032
  113SOL    HW2  721   1.794   2.739   3.325  0.0569  0.0742 -0.5032
  114SOL     OW  722   5.471   0.976   4.242 -0.4425  0.4172  0.0795
  114SOL    HW1  723   5.545   1.027   4.207 -0.4346 -0.3658 -1.0554
  114SOL    HW2  724   5.481   0.983   4.337  1.3815 -0.0819 -0.0526
  115SOL     OW  725   0.365   4.966   1.400 -0.0389 -0.5596  0.3538
  115SOL    HW1  726   0.329   4.998   1.317  0.3814 -0.5769  0.1619
  115SOL    HW2  727   0.301   4.902   1.431 -0.7490  0.2648  0.6044
  116SOL     OW  728   2.927   3.255   5.562 -0.5842  0.2924 -0.5339
  116SOL    HW1  729   2.835   3.246   5.587 -0.4717  1.5484  0.3901
  116SOL    HW2  730   2.937   3.198   5.486 -2.1479  0.2137 -0.6974
  117SOL     OW  731   3.472   5.404   4.929 -0.5073  0.3039 -0.1646
  117SOL    HW1  732   3.495   5.311   4.936  1.4918  0.5568 -2.9708
  117SOL    HW2  733   3.390   5.411   4.979 -0.2760 -2.7879  0.7793
  118SOL     OW  734   2.408   5.922   2.362  0.2478 -0.4401  0.5513
  118SOL    HW1  735   2.440   5.975   2.435 -0.6152 -0.6351  1.0771
  118SOL    HW2  736   2.418   5.831   2.392  0.3348 -0.5398  0.2309
  119SOL     OW  737   2.360   4.813   2.787  0.0718  0.4356 -0.4135
  119SOL    HW1  738   2.322   4.874   2.850 -2.0655 -1.0072 -0.2511
  119SOL    HW2  739   2.396   4.743   2.842  1.5181  0.9724 -0.6514
  120SOL     OW  740   0.670   5.730   5.828  0.0908 -0.0563 -0.3280
  120SOL    HW1  741   0.704   5.761   5.744 -0.0094  0.1565 -0.2881
  120SOL    HW2  742   0.742   5.744   5.890  0.5005 -1.0645 -0.5621
  121SOL     OW  743   5.592   6.155   0.127  0.1074 -0.2794  0.4774
  121SOL    HW1  744   5.592   6.061   0.143  0.0247 -0.3910 -0.1371
  121SOL    HW2  745   5.683   6.175   0.104  0.2659 -0.0898  1.2546
  122SOL     OW  746   3.742   3.762   5.396  0.7014 -0.1445 -1.1164
  122SOL    HW1  747   3.741   3.857   5.399 -1.1707 -0.1879  1.8323
  122SOL    HW2  748   3.835   3.738   5.401  1.0857  1.4902 -0.2385
  123SOL     OW  749   5.095   6.050   5.276  0.9110  0.6527  0.5845
  123SOL    HW1  750   5.084   6.045   5.371  0.5037 -1.3481  0.4420
  123SOL    HW2  751   5.008   6.070   5.243  0.9470  0.8039  0.5784
  124SOL     OW  752   1.696   2.059   2.974 -0.6189  0.0662  0.1630
  124SOL    HW1  753   1.647   2.035   2.895 -1.1133 -0.6788  0.6935
  124SOL    HW2  754   1.718   2.151   2.961 -0.8117 -0.0124 -0.7855
  125SOL     OW  755   0.962   4.273   1.075 -0.2410  0.5366  0.1410
  125SOL    HW1  756   1.058   4.272   1.079 -0.2433 -0.2806  0.0783
  125SOL    HW2  757   0.935   4.276   1.167 -0.1559  0.7696  0.1588
  126SOL     OW  758   4.490   3.324   0.407 -0.7250  0.4301 -0.2415
  126SOL    HW1  759   4.468   3.414   0.433 -2.0971  0.0657 -0.1387
  126SOL    HW2  760   4.554   3.296   0.473 -0.6299  1.1747 -0.0106
  127SOL     OW  761   5.194   5.490   4.508  0.1758 -0.0741  0.1893
  127SOL    HW1  762   5.232   5.436   4.577  2.2938  1.2358  0.1044
  127SOL    HW2  763   5.212   5.580   4.536 -0.3078  0.5122 -1.3273
  128SOL     OW  764   3.757   1.194   5.000 -0.4551 -0.7792  0.3353
  128SOL    HW1  765   3.805   1.111   4.992 -0.8555 -0.8939 -1.1042
  128SOL    HW2  766   3.670   1.174   4.965  0.1153  0.8029 -2.0624
  129SOL     OW  767   0.481   4.737   4.861 -0.3691 -0.0394  0.2140
  129SOL    HW1  768   0.436   4.677   4.802  0.1649  0.5462 -0.8016
  129SOL    HW2  769   0.528   4.797   4.803  0.6663  0.1592  1.2440
  130SOL     OW  770   1.265   1.529   5.681 -0.4283 -0.2344 -0.0563
  130SOL    HW1  771   1.351   1.488   5.670 -0.1535  0.8130 -1.9247
  130SOL    HW2  772   1.211   1.490   5.612 -1.5348 -1.0178  1.2106
  131SOL     OW  773   2.190   3.174   1.979  0.5924  0.1743  0.1327
  131SOL    HW1  774   2.161   3.264   1.966  0.5189  0.1957  0.4415
  131SOL    HW2  775   2.116   3.130   2.020  1.1935  0.3790  1.4601
  132SOL     OW  776   3.793   2.307   1.044  0.2919 -0.1145 -0.0509
  132SOL    HW1  777   3.712   2.359   1.043  0.9593  0.9610  0.5697
  132SOL    HW2  778   3.763   2.217   1.057 -0.9189  0.0296 -1.7171
  133SOL     OW  779   3.025   2.689   3.227 -0.0677 -0.2496 -0.0286
  133SOL    HW1  780   2.952   2.668   3.286  0.8780  0.2284  1.3260
  133SOL    HW2  781   3.021   2.784   3.217  1.1500 -0.0746  1.0852
  134SOL     OW  782   3.749   4.540   3.523  0.0688 -0.0424 -0.6568
  134SOL    HW1  783   3.744   4.452   3.559  1.6043 -0.6473 -1.8401
  134SOL    HW2  784   3.695   4.536   3.444  0.1881  0.0475 -0.7430
  135SOL     OW  785   4.672   0.944   2.768 -0.2716  0.1239  0.3687
  135SOL    HW1  786   4.708   0.928   2.680  2.3855 -1.7653  1.7271
  135SOL    HW2  787   4.581   0.969   2.752 -0.0381 -0.8218 -2.8993
  136SOL     OW  788   3.720   4.657   0.433  0.2736  0.2617  0.0286
  136SOL    HW1  789   3.788   4.664   0.500 -1.1375  2.0702  1.3168
  136SOL    HW2  790   3.702   4.563   0.427  0.0539  0.1107  2.5530
  137SOL     OW  791   5.565   1.999   1.026  0.7794  0.4555 -0.2536
  137SOL    HW1  792   5.626   2.011   1.099  0.2332 -0.6432  0.3899
  137SOL    HW2  793   5.610   1.938   0.967  0.5051  0.0302 -0.0193
  138SOL     OW  794   1.209   5.476   3.457  0.2208  0.1310 -0.2980
  138SOL    HW1  795   1.149   5.464   3.383 -1.5886 -0.8248  1.2538
  138SOL    HW2  796   1.245   5.563   3.445 -1.0097  0.4717 -1.6381
  139SOL     OW  797   3.558   5.753   1.849 -0.1378  0.4569  0.3608
  139SOL    HW1  798   3.496   5.825   1.851 -1.1873 -0.4323  0.1471
  139SOL    HW2  799   3.504   5.674   1.850  0.9678 -0.3258 -0.2439
  140SOL     OW  800   0.253   2.304   1.450 -0.5094 -0.3246  0.0488
  140SOL    HW1  801   0.263   2.224   1.501 -1.0445 -0.3851  0.0665
  140SOL    HW2  802   0.161   2.328   1.462 -0.5465 -0.1439 -0.6039
  141SOL     OW  803   2.250   2.901   1.372  0.1082 -0.2891 -0.5036
  141SOL    HW1  804   2.235   2.837   1.441 -0.0077  1.2160  0.9059
  141SOL    HW2  805   2.166   2.908   1.326  0.5148 -2.1472 -1.5675
  142SOL     OW  806   1.224   2.545   0.299 -0.2226 -0.5721 -0.0311
  142SOL    HW1  807   1.230   2.507   0.212 -0.0237 -0.2333 -0.1687
  142SOL    HW2  808   1.297   2.506   0.347 -0.5825 -1.0775  0.1114
  143SOL     OW  809   3.173   0.301   0.451 -0.3066 -0.4957 -0.1174
  143SOL    HW1  810   3.143   0.295   0.542  0.7768 -1.1872  0.2077
  143SOL    HW2  811   3.238   0.371   0.453  0.2760 -1.0305 -0.1957
  144SOL     OW  812   4.202   5.406   6.266  0.2463 -0.0456 -0.4226
  144SOL    HW1  813   4.136   5.468   6.296  0.1781  0.0371 -0.7506
  144SOL    HW2  814   4.230   5.361   6.346  1.1713  1.2520 -0.0011
  145SOL     OW  815   3.951   4.904   0.668  0.1461  0.3562  0.0684
  145SOL    HW1  816   3.985   4.976   0.720  0.7408  1.2601 -1.5508
  145SOL    HW2  817   3.856   4.919   0.665  0.5279  2.5499 -2.4036
  146SOL     OW  818   1.598   3.262   5.476 -0.5426 -0.5131  0.1082
  146SOL    HW1  819   1.615   3.170   5.495 -0.6787 -0.4022  0.7556
  146SOL    HW2  820   1.562   3.297   5.557 -0.6017  0.0830 -0.1771
  147SOL     OW  821   2.920   1.907   2.746  0.2166 -0.3388 -0.2970
  147SOL    HW1  822   2.860   1.849   2.792  0.7084 -1.3232 -0.8993
  147SOL    HW2  823   2.862   1.967   2.697 -0.3422  1.4758  2.4501
  148SOL     OW  824   1.492   0.460   0.342 -0.2128  0.0009 -0.0141
  148SOL    HW1  825   1.486   0.391   0.275 -2.5790 -0.1377  0.3132
  148SOL    HW2  826   1.532   0.534   0.296 -0.8502 -0.4458 -1.3189
  149SOL     OW  827   1.642   2.568   0.736 -0.3359  0.0900  0.2933
  149SOL    HW1  828   1.588   2.640   0.769  0.9363  0.5602  1.4229
  149SOL    HW2  829   1.728   2.583   0.776  0.3933 -1.1234 -0.7867
  150SOL     OW  830   3.509   1.624   2.759 -0.1021  0.3941  0.6002
  150SOL    HW1  831   3.589   1.611   2.810  0.9004 -0.3614 -1.1163
  150SOL    HW2  832   3.463   1.696   2.804  0.9618  0.0570  2.2711
  151SOL     OW  833   2.775   6.268   5.596 -0.3196  0.7279 -0.4625
  151SOL    HW1  834   2.685   6.249   5.624 -0.4843  0.1315 -1.3549
  151SOL    HW2  835   2.827   6.261   5.676 -1.3504  3.1080  0.4736
  152SOL     OW  836   2.988   6.225   1.433  0.3501 -0.2306 -0.3670
  152SOL    HW1  837   2.976   6.308   1.387 -4.1959  0.0737  1.0785
  152SOL    HW2  838   3.051   6.245   1.502 -0.2385  1.9181 -0.4073
  153SOL     OW  839   3.585   1.057   6.009 -0.6964 -0.0138 -0.5976
  153SOL    HW1  840   3.539   1.092   5.932  0.8282  2.0835 -0.6040
  153SOL    HW2  841   3.629   1.133   6.047  0.1077 -1.3818  1.2727
  154SOL     OW  842   5.120   1.477   0.657  0.2502 -0.0400  0.4544
  154SOL    HW1  843   5.127   1.383   0.639  0.8433 -0.1893  1.4191
  154SOL    HW2  844   5.039   1.504   0.614  1.8455 -0.2573 -2.8425
  155SOL     OW  845   5.932   0.251   5.051 -0.2546  0.7206 -0.1027
  155SOL    HW1  846   5.849   0.285   5.017 -0.2584 -1.8418 -2.9310
  155SOL    HW2  847   5.999   0.304   5.006 -0.3305  0.8740 -0.0358
  156SOL     OW  848   3.018   4.596   5.313  0.2298  0.2905  0.6922
  156SOL    HW1  849   3.109   4.580   5.337  0.6988  0.4429 -0.9100
  156SOL    HW2  850   3.020   4.677   5.263 -0.6167 -0.3073 -0.3418
  157SOL     OW  851   4.188   0.177   4.974  0.2563 -0.2977  0.2339
  157SOL    HW1  852   4.235   0.118   4.914  0.1442  0.3348 -0.4854
  157SOL    HW2  853   4.250   0.248   4.991 -0.5730  0.7731 -1.0715
  158SOL     OW  854   4.984   0.041   5.170 -0.4632 -1.2868 -0.2525
  158SOL    HW1  855   4.946   0.079   5.091  0.5839  0.2067 -0.0647
  158SOL    HW2  856   5.018   0.116   5.219 -1.0832 -2.1993  1.6172
  159SOL     OW  857   4.608   4.308   4.176  0.3897 -0.1938 -0.0905
  159SOL    HW1  858   4.610   4.344   4.087 -0.7945 -0.7371 -0.3406
  159SOL    HW2  859   4.523   4.266   4.183  1.0932 -1.4935  0.7904
  160SOL     OW  860   0.214   3.697   2.362  0.5282 -0.5818  0.5836
  160SOL    HW1  861   0.135   3.643   2.354 -0.0586  0.5263 -1.6385
  160SOL    HW2  862   0.286   3.634   2.363 -0.2020 -1.4739 -0.9064
  161SOL     OW  863   4.701   0.668   3.146  0.0115  0.0912  0.4751
  161SOL    HW1  864   4.641   0.739   3.125  0.6559  0.3642 -0.4490
  161SOL    HW2  865   4.647   0.589   3.139 -0.6026  0.4367  1.1130
  162SOL     OW  866   5.051   4.052   3.213 -0.3637  0.1867 -0.3482
  162SOL    HW1  867   4.992   3.986   3.247  0.5975 -0.9921 -0.9358
  162SOL    HW2  868   5.061   4.030   3.120 -0.2571  1.3179 -0.6142
  163SOL     OW  869   1.084   2.408   1.754  0.0103 -0.0884  0.3216
  163SOL    HW1  870   1.143   2.398   1.830  0.2348 -0.6321  0.0782
  163SOL    HW2  871   1.122   2.481   1.705  0.4120 -0.3468  0.2383
  164SOL     OW  872   5.402   2.024   3.946 -0.5123  0.0252 -0.5513
  164SOL    HW1  873   5.317   2.062   3.967 -0.8391 -0.6953 -0.5607
  164SOL    HW2  874   5.408   1.946   4.001 -0.7830 -1.1005 -2.0855
  165SOL     OW  875   0.039   2.048   2.724  0.5423  0.2170 -0.1712
  165SOL    HW1  876   0.074   2.092   2.646  2.9050 -0.1142  0.6872
  165SOL    HW2  877   0.113   2.041   2.783 -0.4541 -2.5071  0.8092
  166SOL     OW  878   1.189   2.940   5.811 -0.0704 -0.4513 -0.0328
  166SOL    HW1  879   1.125   2.874   5.785  1.5078 -0.7021 -3.6106
  166SOL    HW2  880   1.261   2.890   5.848 -1.0444 -0.2985  2.1669
  167SOL     OW  881   1.592   3.815   3.191  0.9506  0.8208  0.3055
  167SOL    HW1  882   1.574   3.892   3.137 -0.2273  0.2998 -0.0520
  167SOL    HW2  883   1.685   3.797   3.175  1.0063  1.6064 -0.3386
  168SOL     OW  884   3.505   0.203   1.851  0.1103  0.0975  0.3693
  168SOL    HW1  885   3.517   0.260   1.927 -1.3951 -1.1325  1.5888
  168SOL    HW2  886   3.431   0.241   1.804  0.2402  0.1587  0.2161
  169SOL     OW  887   1.534   5.584   3.073 -0.4156  1.0652  0.1114
  169SOL    HW1  888   1.462   5.637   3.108  0.4000  1.0407  1.8787
  169SOL    HW2  889   1.549   5.516   3.138  0.0906  0.0335 -1.0476
  170SOL     OW  890   5.299   0.089   2.127  0.2082 -0.8112 -0.2933
  170SOL    HW1  891   5.365   0.152   2.097  1.3096 -1.3578  0.9049
  170SOL    HW2  892   5.283   0.114   2.218 -0.8400 -1.0319 -0.4113
  171SOL     OW  893   5.881   4.110   1.132  0.2150 -0.1728 -0.3204
  171SOL    HW1  894   5.896   4.153   1.216 -1.4236 -1.2232  0.5453
  171SOL    HW2  895   5.951   4.045   1.126  0.1792 -0.2824  0.3730
  172SOL     OW  896   3.596   2.711   5.696  0.1029  0.7460  0.3491
  172SOL    HW1  897   3.673   2.755   5.731  1.7156 -1.3018 -0.5115
  172SOL    HW2  898   3.618   2.695   5.604 -0.5990 -1.4836  0.5506
  173SOL     OW  899   4.047   0.793   0.165  0.7374  0.2398  0.0857
  173SOL    HW1  900   4.032   0.821   0.255 -0.7542 -0.3678  0.0320
  173SOL    HW2  901   4.127   0.840   0.139  1.2398  0.3448  1.7419
  174SOL     OW  902   4.207   4.232   6.222 -0.6724  0.1024 -0.5175
  174SOL    HW1  903   4.281   4.286   6.192 -1.2507  2.7045  2.4734
  174SOL    HW2  904   4.246   4.147   6.241  1.4810  1.2431  0.3924
  175SOL     OW  905   3.953   5.000   2.174 -0.0041  0.6058 -0.1309
  175SOL    HW1  906   3.959   5.034   2.085 -0.6478  1.9365  0.3256
  175SOL    HW2  907   4.040   5.016   2.212  0.7910 -1.4006 -0.9929
  176SOL     OW  908   1.642   3.377   4.204  0.4069 -0.2166  0.5185
  176SOL    HW1  909   1.667   3.457   4.249  1.7640 -1.0077  1.1934
  176SOL    HW2  910   1.653   3.308   4.269 -0.6612 -0.9836 -0.0800
  177SOL     OW  911   2.080   1.569   1.342  0.0032  0.8281 -0.0758
  177SOL    HW1  912   2.032   1.629   1.398 -0.5390  0.0148  0.3335
  177SOL    HW2  913   2.072   1.607   1.254 -1.5776  0.5740 -0.0456
  178SOL     OW  914   1.725   1.572   3.227 -0.2361  0.1890 -0.1691
  178SOL    HW1  915   1.639   1.562   3.267 -0.1104 -0.9576 -0.1807
  178SOL    HW2  916   1.785   1.580   3.301 -0.4714  2.1244 -0.1635
  179SOL     OW  917   5.615   0.774   1.239  0.0683 -0.1804 -0.1618
  179SOL    HW1  918   5.694   0.794   1.290  0.4462 -0.6121 -0.5769
  179SOL    HW2  919   5.543   0.804   1.295  0.5208  0.1704  0.2413
  180SOL     OW  920   2.921   1.492   1.232 -0.7214 -0.2180  0.1886
  180SOL    HW1  921   2.859   1.495   1.305  0.3231  0.4808  1.0600
  180SOL    HW2  922   3.003   1.462   1.270 -0.3568 -0.5767 -0.8458
  181SOL     OW  923   2.262   3.734   1.564 -0.0180 -0.1339 -0.8579
  181SOL    HW1  924   2.334   3.795   1.548 -0.2314  0.5549  0.7112
  181SOL    HW2  925   2.204   3.745   1.489 -0.1711  1.7966 -0.4889
  182SOL     OW  926   3.933   4.303   1.137  0.3706  0.2635 -0.5856
  182SOL    HW1  927   3.879   4.297   1.216  1.5342  2.1929  0.4104
  182SOL    HW2  928   3.990   4.227   1.140  0.4599  0.3661  0.5016
  183SOL     OW  929   6.010   3.723   2.050 -0.3058 -0.3088  0.5944
  183SOL    HW1  930   6.093   3.675   2.043  1.3366  2.5171 -0.3406
  183SOL    HW2  931   5.979   3.731   1.960 -0.9742 -0.3103  0.8218
  184SOL     OW  932   6.311   2.431   5.325 -0.3275  0.5259  0.7585
  184SOL    HW1  933   6.312   2.452   5.418 -1.0681  0.8475  0.6992
  184SOL    HW2  934   6.318   2.516   5.281 -1.9835  0.5594  0.5191
  185SOL     OW  935   2.611   0.451   4.684 -0.0351  0.0566  0.5722
  185SOL    HW1  936   2.532   0.404   4.661 -0.2234  1.4245 -1.7880
  185SOL    HW2  937   2.585   0.508   4.756 -0.6041 -1.1396  1.3199
  186SOL     OW  938   4.418   0.772   2.545  0.1087  0.2730  0.3736
  186SOL    HW1  939   4.362   0.703   2.508 -0.8755  1.9652 -1.3731
  186SOL    HW2  940   4.504   0.731   2.552 -0.1825 -0.7801 -1.7465
  187SOL     OW  941   6.314   3.230   0.741 -0.1628  0.0176 -0.0223
  187SOL    HW1  942   6.222   3.205   0.736 -0.3493  0.7106 -0.1127
  187SOL    HW2  943   6.317   3.300   0.806  0.1630  0.5983 -0.6471
  188SOL     OW  944   1.588   2.667   2.447 -0.0603  0.1052  0.4187
  188SOL    HW1  945   1.683   2.679   2.446  0.2635 -2.0634 -2.3463
  188SOL    HW2  946   1.576   2.583   2.492 -0.6229 -0.0002  0.0646
  189SOL     OW  947   0.486   1.876   0.596 -0.3189 -0.1366  0.0169
  189SOL    HW1  948   0.445   1.930   0.663 -1.3550 -0.1126 -0.6219
  189SOL    HW2  949   0.419   1.813   0.571  0.3908 -0.7863 -0.2818
  190SOL     OW  950   0.848   0.676   1.944 -0.2847 -1.0815  0.7824
  190SOL    HW1  951   0.765   0.653   1.986 -1.7646  1.1037 -0.8112
  190SOL    HW2  952   0.888   0.739   2.004 -1.0489 -0.1496  0.3436
  191SOL     OW  953   0.857   2.202   3.868  0.1056 -0.8685 -0.1161
  191SOL    HW1  954   0.919   2.273   3.885  1.6598 -2.7365  2.3468
  191SOL    HW2  955   0.791   2.211   3.936 -1.3720  0.0209 -1.6456
  192SOL     OW  956   1.003   0.210   1.910  0.0001 -0.6529  0.1531
  192SOL    HW1  957   1.013   0.300   1.942  0.0572 -0.7668  0.4589
  192SOL    HW2  958   1.012   0.217   1.815 -1.5318 -0.1087  0.0371
  193SOL     OW  959   3.411   5.480   2.590 -0.1945 -0.7555 -0.1661
  193SOL    HW1  960   3.364   5.509   2.512 -1.4056 -0.4255  0.6712
  193SOL    HW2  961   3.489   5.436   2.556 -0.1716  0.3059 -1.5290
  194SOL     OW  962   0.923   4.247   4.412  0.3030 -0.6616  0.6033
  194SOL    HW1  963   0.951   4.333   4.378  0.3355 -0.1792  1.8358
  194SOL    HW2  964   0.884   4.266   4.497  1.2432 -1.9794  1.3590
  195SOL     OW  965   2.601   0.679   2.683 -0.2394  0.3612 -0.1183
  195SOL    HW1  966   2.650   0.701   2.762 -2.8371  0.2132  1.5872
  195SOL    HW2  967   2.590   0.584   2.687 -2.9650  0.6767  0.9649
  196SOL     OW  968   4.731   4.218   5.418 -0.4099  0.5202 -0.2037
  196SOL    HW1  969   4.738   4.313   5.416 -2.0086  0.6287 -2.8401
  196SOL    HW2  970   4.639   4.199   5.398 -0.2192 -1.5783  0.6812
  197SOL     OW  971   1.664   3.559   5.889  0.2327 -0.1377 -0.0998
  197SOL    HW1  972   1.759   3.559   5.903 -0.1545 -1.6256  3.0673
  197SOL    HW2  973   1.646   3.644   5.850  2.6850  0.8829  0.8564
  198SOL     OW  974   2.942   3.295   3.382 -0.3362  0.1538  0.0022
  198SOL    HW1  975   2.903   3.376   3.348 -0.2522 -0.2720 -1.1354
  198SOL    HW2  976   3.034   3.299   3.355 -0.6001 -0.8622 -1.0985
  199SOL     OW  977   0.834   5.529   0.150 -0.2710 -0.1303  0.3907
  199SOL    HW1  978   0.907   5.591   0.147  0.4727 -1.0070  0.0517
  199SOL    HW2  979   0.841   5.479   0.069 -0.1636 -1.4358  1.1899
  200SOL     OW  980   2.062   4.644   5.075 -0.2535  0.1614  0.2646
  200SOL    HW1  981   2.118   4.615   5.147  0.4946 -0.4016 -0.5446
  200SOL    HW2  982   1.993   4.694   5.118  0.3840  0.1288  1.3482
  201SOL     OW  983   0.959   6.340   1.051 -0.1306  0.0208 -0.1301
  201SOL    HW1  984   0.956   6.431   1.022 -1.0298 -0.5953 -2.0940
  201SOL    HW2  985   1.052   6.321   1.061  0.0487  1.2735  0.7285
  202SOL     OW  986   1.229   4.308   2.986  0.2395 -0.0418 -0.5055
  202SOL    HW1  987   1.154   4.363   2.961 -1.2986 -1.4849  0.7827
  202SOL    HW2  988   1.225   4.234   2.924 -2.3137 -2.5403  2.4193
  203SOL     OW  989   1.840   4.062   4.489 -0.1694  0.3077 -0.2859
  203SOL    HW1  990   1.755   4.037   4.452  0.2300 -0.7644 -0.4981
  203SOL    HW2  991   1.821   4.079   4.581 -0.2674 -1.8932  0.1308
  204SOL     OW  992   0.151   1.895   3.927  0.1498  0.1066  0.1401
  204SOL    HW1  993   0.206   1.968   3.956  0.1139 -0.4058  1.5116
  204SOL    HW2  994   0.111   1.927   3.846  1.6532  0.8727 -0.3409
  205SOL     OW  995   0.378   1.499   4.470 -0.0915 -0.1411 -0.1240
  205SOL    HW1  996   0.459   1.466   4.509  1.9439  0.5676 -3.4518
  205SOL    HW2  997   0.362   1.583   4.514  1.5737  0.1915 -0.1183
  206SOL     OW  998   3.713   4.326   0.785  0.2616 -0.2861 -0.3713
  206SOL    HW1  999   3.733   4.293   0.697  1.5044 -2.4785  0.6657
  206SOL    HW2 1000   3.658   4.258   0.824  0.0159  0.4904  0.6499
  207SOL     OW 1001   4.455   4.213   5.381  0.5503  0.2958  0.3724
  207SOL    HW1 1002   4.487   4.232   5.293  0.0976  0.0983  0.1666
  207SOL    HW2 1003   4.382   4.274   5.394 -1.1563 -1.5159 -0.4308
  208SOL     OW 1004   5.095   2.748   4.321  0.8869 -0.0341 -0.0402
  208SOL    HW1 1005   5.124   2.827   4.274  0.1187  0.7000  0.6932
  208SOL    HW2 1006   5.114   2.769   4.413 -0.8646 -0.0331  0.3233
  209SOL     OW 1007   0.982   4.217   2.144 -0.2001 -0.5530  0.1972
  209SOL    HW1 1008   0.959   4.129   2.113  0.4369 -0.1153 -1.6075
  209SOL    HW2 1009   1.056   4.243   2.088  1.3975  0.0620  2.5202
  210SOL     OW 1010   0.407   2.136   4.916  0.0381 -0.4713 -0.4302
  210SOL    HW1 1011   0.330   2.187   4.940  0.8111  0.2556  0.5446
  210SOL    HW2 1012   0.470   2.201   4.883  1.2760 -0.6711  1.4479
  211SOL     OW 1013   3.999   1.868   3.316  0.0951 -0.0645  0.3764
  211SOL    HW1 1014   3.938   1.795   3.304 -0.7990  1.0064 -2.0358
  211SOL    HW2 1015   4.085   1.827   3.321 -0.5233 -1.3835  0.3647
  212SOL     OW 1016   4.922   5.280   5.980 -0.0598  0.0101  0.3982
  212SOL    HW1 1017   4.920   5.371   5.952 -1.0090 -0.6435 -1.7523
  212SOL    HW2 1018   4.998   5.242   5.936 -0.6101 -0.6315 -0.0074
  213SOL     OW 1019   1.724   4.782   1.078  0.7004 -0.1363 -0.4645
  213SOL    HW1 1020   1.666   4.737   1.139 -0.2516  0.1406 -1.1394
  213SOL    HW2 1021   1.798   4.723   1.067  1.0895  0.0111  1.2760
  214SOL     OW 1022   5.865   0.748   4.655  0.2324  0.5718  0.0251
  214SOL    HW1 1023   5.846   0.840   4.672  0.2484  0.4015  0.9652
  214SOL    HW2 1024   5.832   0.733   4.566  0.8880  1.6668 -0.4157
  215SOL     OW 1025   2.379   2.624   3.396  0.3911  0.1971  0.5374
  215SOL    HW1 1026   2.383   2.663   3.309  2.0635 -0.1361  0.4546
  215SOL    HW2 1027   2.299   2.573   3.396  0.7767 -0.4081 -1.0661
  216SOL     OW 1028   4.520   4.522   1.636  0.3181 -0.4194 -0.0341
  216SOL    HW1 1029   4.553   4.444   1.680  0.5190  0.1122  0.7683
  216SOL    HW2 1030   4.586   4.543   1.570  0.5960 -0.5320  0.2075
  217SOL     OW 1031   3.520   3.955   2.435 -0.3891 -0.1647  0.5603
  217SOL    HW1 1032   3.485   4.028   2.384 -1.2636  0.3748  1.8865
  217SOL    HW2 1033   3.568   3.902   2.372  1.3448  2.2469 -0.1917
  218SOL     OW 1034   3.665   5.113   5.588 -0.1223 -0.0607  0.4207
  218SOL    HW1 1035   3.760   5.113   5.576  0.1437 -1.5100  2.2204
  218SOL    HW2 1036   3.637   5.199   5.558  1.4309 -0.4593 -2.4166
  219SOL     OW 1037   2.663   4.927   0.637  0.2285  0.7916  0.1091
  219SOL    HW1 1038   2.570   4.947   0.626  0.8106  3.0758 -1.0320
  219SOL    HW2 1039   2.702   4.946   0.552  1.6271 -0.9675  0.3267
  220SOL     OW 1040   2.231   0.005   1.032 -0.0756 -0.1485  0.1711
  220SOL    HW1 1041   2.162  -0.046   0.989  0.7695 -0.4174 -0.8814
  220SOL    HW2 1042   2.282   0.042   0.960  0.8664  0.0784  0.9514
  221SOL     OW 1043   6.078   3.991   0.304 -0.2309 -0.3383 -0.2582
  221SOL    HW1 1044   6.034   3.936   0.368  0.6884  0.5280  1.1358
  221SOL    HW2 1045   6.076   4.079   0.341  1.6267 -0.0759 -0.7016
  222SOL     OW 1046   6.150   4.303   1.074 -0.2883  0.5539 -0.3152
  222SOL    HW1 1047   6.135   4.209   1.060 -0.4483  0.5656 -0.2324
  222SOL    HW2 1048   6.149   4.341   0.986 -1.3391  0.6381 -0.2682
  223SOL     OW 1049   2.289   4.844   4.530 -0.5281  0.5826 -0.1608
  223SOL    HW1 1050   2.270   4.753   4.550 -1.1786  0.2018 -2.3598
  223SOL    HW2 1051   2.204   4.884   4.514 -0.1248  1.1621 -0.9130
  224SOL     OW 1052   4.333   1.077   5.618  0.5287 -0.2640 -0.0887
  224SOL    HW1 1053   4.275   1.137   5.570  1.4072 -0.2994 -1.2161
  224SOL    HW2 1054   4.284   1.056   5.697 -0.7022  0.2705 -0.6801
  225SOL     OW 1055   0.817   1.058   5.665 -0.2718 -0.1467  1.0185
  225SOL    HW1 1056   0.888   1.035   5.724  1.6101 -1.2630 -1.5908
  225SOL    HW2 1057   0.790   0.976   5.625 -2.2428  0.4330  1.0827
  226SOL     OW 1058   2.553   5.259   0.351  0.1018  0.1730  0.0516
  226SOL    HW1 1059   2.555   5.286   0.259  2.0180  1.7710  0.5391
  226SOL    HW2 1060   2.527   5.167   0.348  1.4925 -0.1803 -2.1950
  227SOL     OW 1061   4.906   5.972   2.384  0.0623  0.6710 -0.0476
  227SOL    HW1 1062   4.994   5.981   2.346  0.7298  3.0348  1.9098
  227SOL    HW2 1063   4.854   6.039   2.339 -0.3284  0.3326 -0.0980
  228SOL     OW 1064   2.026   0.294   5.035  0.5787  0.4839  0.2937
  228SOL    HW1 1065   2.004   0.386   5.049 -0.6760  0.3399 -0.5911
  228SOL    HW2 1066   2.120   0.288   5.053  0.5096  1.7677  1.1394
  229SOL     OW 1067   3.860   1.553   4.398 -0.3980  0.6217 -0.2509
  229SOL    HW1 1068   3.953   1.559   4.376  0.2412  1.0191  2.4130
  229SOL    HW2 1069   3.849   1.466   4.435 -1.2014  0.4141 -0.9383
  230SOL     OW 1070   6.093   2.688   5.225  0.1186  0.3576 -0.0770
  230SOL    HW1 1071   6.043   2.688   5.143 -2.2677  2.6619  1.3141
  230SOL    HW2 1072   6.185   2.694   5.197 -0.6648  1.3009 -2.5660
  231SOL     OW 1073   1.244   4.546   6.129  0.0389 -0.0262  0.5028
  231SOL    HW1 1074   1.186   4.471   6.123 -0.9831  0.9990 -4.1622
  231SOL    HW2 1075   1.325   4.517   6.087 -0.4681  1.4749 -1.6099
  232SOL     OW 1076   1.358   3.460   2.504  0.0708  0.1908  0.0709
  232SOL    HW1 1077   1.289   3.399   2.526  0.3182 -1.1164 -2.5512
  232SOL    HW2 1078   1.435   3.405   2.489  1.3472  1.5003  1.5755
  233SOL     OW 1079   6.188   1.524   1.997  0.0870  0.3951 -0.5357
  233SOL    HW1 1080   6.112   1.492   1.949  0.5662  0.5521 -1.4265
  233SOL    HW2 1081   6.158   1.602   2.042 -0.1807  0.6684 -1.1903
  234SOL     OW 1082   5.829   6.358   6.232 -0.2509  0.0099 -0.1722
  234SOL    HW1 1083   5.760   6.424   6.225 -0.1766  0.1186  0.1226
  234SOL    HW2 1084   5.808   6.294   6.164  0.0547  0.6892 -0.9163
  235SOL     OW 1085   5.201   3.304   6.102  0.3661  0.3720  0.2704
  235SOL    HW1 1086   5.288   3.265   6.089 -0.1419 -1.0426  1.0330
  235SOL    HW2 1087   5.158   3.246   6.164 -1.0834  1.1545  0.0106
  236SOL     OW 1088   0.407   1.646   3.832 -0.3893  0.5923  0.2366
  236SOL    HW1 1089   0.370   1.563   3.862 -1.0006  0.5476 -0.5943
  236SOL    HW2 1090   0.426   1.694   3.912  1.2486 -0.8844  0.7539
  237SOL     OW 1091   5.008   2.751   2.158  0.0053  0.2553 -0.0345
  237SOL    HW1 1092   5.017   2.833   2.208  1.3017  0.2890 -0.3050
  237SOL    HW2 1093   5.067   2.690   2.203  0.7022  0.1071 -1.1453
  238SOL     OW 1094   2.490   1.380   1.667  0.1511  0.3324  0.2002
  238SOL    HW1 1095   2.446   1.462   1.645 -0.0410 -0.1966 -1.4961
  238SOL    HW2 1096   2.531   1.352   1.585  0.7239 -0.9663  0.9036
  239SOL     OW 1097   5.290   0.895   6.094 -0.0642  0.3179  0.0828
  239SOL    HW1 1098   5.295   0.990   6.108 -0.2296  0.3786 -0.2861
  239SOL    HW2 1099   5.382   0.869   6.082  0.0011  0.3982  0.3973
  240SOL     OW 1100   3.567   1.036   2.398 -0.0352 -0.0725  0.2273
  240SOL    HW1 1101   3.651   1.051   2.443  0.0356  3.1605 -0.8944
  240SOL    HW2 1102   3.502   1.037   2.468  0.7107 -1.2845  0.9552
  241SOL     OW 1103   4.424   3.952   1.610 -0.3540 -0.3519  0.1665
  241SOL    HW1 1104   4.382   3.887   1.554  0.4021 -0.4732 -0.2662
  241SOL    HW2 1105   4.417   4.034   1.561 -0.9695 -0.1745  0.5428
  242SOL     OW 1106   0.715   5.493   6.001  0.0494  0.4826  0.5150
  242SOL    HW1 1107   0.703   5.459   6.089 -0.1887  0.5642  0.5146
  242SOL    HW2 1108   0.656   5.568   5.995  2.5606  2.6137  1.4579
  243SOL     OW 1109   4.750   2.165   2.506  0.5830  0.3034  0.2447
  243SOL    HW1 1110   4.722   2.094   2.450  1.1004 -0.1382  0.5417
  243SOL    HW2 1111   4.740   2.132   2.595  1.9051  0.1812  0.3586
  244SOL     OW 1112   3.311   0.463   5.649 -0.1133 -0.1348  0.3745
  244SOL    HW1 1113   3.373   0.397   5.619  0.5886 -0.0040  1.4955
  244SOL    HW2 1114   3.274   0.426   5.729 -2.2787 -0.6720 -0.8556
  245SOL     OW 1115   4.178   1.350   0.707 -0.7265 -0.1048 -0.4867
  245SOL    HW1 1116   4.178   1.263   0.667 -2.3527  0.0814 -0.9457
  245SOL    HW2 1117   4.238   1.401   0.653 -2.3644 -0.0467 -2.3385
  246SOL     OW 1118   1.707   3.971   4.089 -0.0566  0.0002 -0.1329
  246SOL    HW1 1119   1.797   3.999   4.071  0.3058 -1.1906 -0.2156
  246SOL    HW2 1120   1.710   3.933   4.176 -0.3632 -0.5404 -0.3526
  247SOL     OW 1121   0.415   4.388   0.966  0.2751 -0.0977 -0.3379
  247SOL    HW1 1122   0.431   4.455   1.033  0.3199 -0.4507  0.0030
  247SOL    HW2 1123   0.499   4.377   0.922  0.3233 -0.0953 -0.2451
  248SOL     OW 1124   4.314   3.091   3.160  0.4449  0.2692  0.1629
  248SOL    HW1 1125   4.266   3.029   3.215  0.6797 -1.4081 -1.4813
  248SOL    HW2 1126   4.399   3.101   3.203  1.5218 -2.8570 -1.0792
  249SOL     OW 1127   4.885   2.127   6.071  0.3418 -0.0217 -0.1020
  249SOL    HW1 1128   4.845   2.063   6.130 -0.6166  1.1976  0.6054
  249SOL    HW2 1129   4.902   2.203   6.126  0.9073  0.5528 -1.0633
  250SOL     OW 1130   0.599   2.584   3.951  0.1024  0.4469  0.1626
  250SOL    HW1 1131   0.689   2.612   3.935  0.2139  0.6529  1.1286
  250SOL    HW2 1132   0.546   2.654   3.913  0.3366  0.1974 -0.6433
  251SOL     OW 1133   3.621   1.098   4.192 -0.1827 -0.3899  0.1067
  251SOL    HW1 1134   3.684   1.027   4.199 -1.1597 -1.1333  1.6101
  251SOL    HW2 1135   3.674   1.175   4.170  0.9789 -1.4114 -0.7050
  252SOL     OW 1136   0.572   5.411   4.002  0.5209  0.2626  0.2075
  252SOL    HW1 1137   0.633   5.356   3.953 -0.2801 -0.4681  0.0156
  252SOL    HW2 1138   0.618   5.494   4.013  1.1621  0.0476 -0.7757
  253SOL     OW 1139   1.468   1.051   0.197 -0.2273 -0.1868  0.1143
  253SOL    HW1 1140   1.414   1.095   0.132 -0.3964  2.0366  1.7067
  253SOL    HW2 1141   1.555   1.049   0.158 -0.5079  0.3462 -0.5560
  254SOL     OW 1142   2.058   0.733   5.894  0.5749 -0.3539  0.0177
  254SOL    HW1 1143   2.101   0.816   5.912  0.0307 -0.3962  1.5571
  254SOL    HW2 1144   2.077   0.716   5.802  2.1636  0.6084  0.1423
  255SOL     OW 1145   0.136   4.373   3.959  0.3820 -0.0326 -0.0018
  255SOL    HW1 1146   0.068   4.352   4.023  0.3582  0.1705  0.0398
  255SOL    HW2 1147   0.094   4.436   3.900  0.1782 -0.7653 -0.6355
  256SOL     OW 1148   3.154   6.207   0.168 -0.0469 -0.2469  0.0043
  256SOL    HW1 1149   3.238   6.225   0.211 -1.9952 -1.0640  4.4598
  256SOL    HW2 1150   3.131   6.119   0.197 -2.0288 -0.4012 -1.9134
  257SOL     OW 1151   2.751   2.049   4.129 -0.2959  0.1282 -0.3721
  257SOL    HW1 1152   2.709   2.102   4.062 -0.6077 -0.1409 -0.3946
  257SOL    HW2 1153   2.722   1.959   4.110  0.9358 -0.1800 -0.8858
  258SOL     OW 1154   4.425   1.799   5.534 -0.1356 -0.4278  0.4340
  258SOL    HW1 1155   4.384   1.755   5.608 -0.3110  0.9558  1.1824
  258SOL    HW2 1156   4.468   1.876   5.573  2.1483 -1.1885 -0.5019
  259SOL     OW 1157   2.972   1.819   6.244  0.4139 -0.1051  0.3310
  259SOL    HW1 1158   3.033   1.878   6.289  0.5110  0.2337 -0.2390
  259SOL    HW2 1159   2.898   1.810   6.304  1.3790 -1.1597  1.3912
  260SOL     OW 1160   2.976   3.649   6.117 -0.4476  0.3107  0.7465
  260SOL    HW1 1161   3.025   3.566   6.120 -0.2538  0.3240 -1.1200
  260SOL    HW2 1162   2.973   3.679   6.208  2.2665 -0.1452  1.0313
  261SOL     OW 1163   0.506   6.010   1.546  0.5429  0.0150 -0.2527
  261SOL    HW1 1164   0.501   5.950   1.472  0.8086  0.1425 -0.3762
  261SOL    HW2 1165   0.470   6.092   1.513 -0.7075 -0.3490  0.2022
  262SOL     OW 1166   0.097   5.688   5.607  0.1688  0.5439  0.0181
  262SOL    HW1 1167   0.064   5.760   5.554  0.3496  1.4137  1.0696
  262SOL    HW2 1168   0.099   5.723   5.696  1.3646 -0.3717  0.3675
  263SOL     OW 1169   0.652   0.553   0.575  0.6680  0.5382 -0.0678
  263SOL    HW1 1170   0.620   0.503   0.500  0.7389 -0.0824  0.3130
  263SOL    HW2 1171   0.577   0.560   0.634  1.3663 -1.4508  1.1101
  264SOL     OW 1172   0.104   0.443   1.004 -0.0927  0.2301  0.0847
  264SOL    HW1 1173   0.177   0.387   1.030 -1.5638 -1.7516  0.0059
  264SOL    HW2 1174   0.138   0.532   1.014  1.0779 -0.5743  3.7724
  265SOL     OW 1175   4.327   0.861   0.884 -0.2298 -0.3016  0.5730
  265SOL    HW1 1176   4.416   0.863   0.847 -0.5402 -1.4036 -0.2478
  265SOL    HW2 1177   4.331   0.923   0.957  1.2929 -0.5409  0.7254
  266SOL     OW 1178   2.455   3.472   3.047  0.1477 -0.5429  0.7719
  266SOL    HW1 1179   2.500   3.388   3.056 -0.8277 -1.1126  0.3929
  266SOL    HW2 1180   2.424   3.492   3.136 -1.8327 -1.8532  0.4134
  267SOL     OW 1181   4.968   3.653   3.927 -0.4826  0.2066  0.0637
  267SOL    HW1 1182   4.907   3.700   3.984  0.9974  1.5743  0.5569
  267SOL    HW2 1183   5.053   3.693   3.945  0.2192 -0.2399 -2.1454
  268SOL     OW 1184   5.209   5.934   2.563  0.0048 -0.1280 -0.2835
  268SOL    HW1 1185   5.120   5.967   2.557  0.7791  2.0369 -0.5327
  268SOL    HW2 1186   5.243   5.939   2.474  0.2024 -1.4907 -0.2975
  269SOL     OW 1187   6.223   3.767   3.687  0.6106  0.0107  0.6208
  269SOL    HW1 1188   6.192   3.857   3.699  0.6967  0.0357  0.6604
  269SOL    HW2 1189   6.143   3.715   3.676  0.6112  0.3240 -0.9917
  270SOL     OW 1190   2.848   6.231   1.103  0.6991 -0.3931 -0.2410
  270SOL    HW1 1191   2.881   6.293   1.167 -2.0918 -0.1413  1.0384
  270SOL    HW2 1192   2.758   6.214   1.130  0.0342 -1.7124 -3.0389
  271SOL     OW 1193   4.177   3.382   5.638 -0.1198  0.6039  0.1250
  271SOL    HW1 1194   4.196   3.412   5.550 -1.7635  0.9410 -0.1314
  271SOL    HW2 1195   4.246   3.318   5.658  0.7859  1.2187 -1.0342
  272SOL     OW 1196   2.511   0.004   2.692  0.3358  0.1184  0.2939
  272SOL    HW1 1197   2.509   0.058   2.613  0.4606  1.1408  0.9807
  272SOL    HW2 1198   2.562   0.055   2.755  0.5111 -0.8312  0.9355
  273SOL     OW 1199   1.270   3.885   6.086  0.4452 -0.2132  0.2025
  273SOL    HW1 1200   1.234   3.856   6.003 -0.7699  1.1935  0.2191
  273SOL    HW2 1201   1.215   3.843   6.152  1.0707 -0.8980  0.2934
  274SOL     OW 1202   6.019   4.390   1.560  0.2739 -0.8479  0.3354
  274SOL    HW1 1203   5.929   4.357   1.566  0.1079 -0.8711 -1.9772
  274SOL    HW2 1204   6.009   4.485   1.560  0.3900 -0.8172  1.6395
  275SOL     OW 1205   4.858   1.243   0.915  0.3357  0.3111  0.3000
  275SOL    HW1 1206   4.950   1.247   0.890  0.3967  1.2181  0.6370
  275SOL    HW2 1207   4.810   1.269   0.837  0.4071  0.7166  0.3914
  276SOL     OW 1208   1.870   1.817   0.896  0.2982  0.0928  0.4665
  276SOL    HW1 1209   1.818   1.743   0.927 -1.8389  1.9961  1.5343
  276SOL    HW2 1210   1.858   1.817   0.801 -1.6524  0.4644  0.6858
  277SOL     OW 1211   1.163   1.994   5.498  0.1709 -0.0488 -0.5148
  277SOL    HW1 1212   1.144   1.930   5.567 -0.3575  0.6932  0.0363
  277SOL    HW2 1213   1.079   2.005   5.452  0.0888  0.7216 -0.1966
  278SOL     OW 1214   2.520   1.418   2.302  0.2277  0.2188 -0.8209
  278SOL    HW1 1215   2.516   1.455   2.214  0.4866 -2.8586 -2.1904
  278SOL    HW2 1216   2.605   1.446   2.336  0.9050 -0.0698 -2.2520
  279SOL     OW 1217   5.055   4.850   1.141  0.1548  0.4533  0.5798
  279SOL    HW1 1218   5.002   4.920   1.102  1.8837 -0.0160 -2.8638
  279SOL    HW2 1219   5.103   4.813   1.067  1.9555 -2.0476  2.8977
  280SOL     OW 1220   2.664   1.750   5.567 -0.0055  0.4336  0.1628
  280SOL    HW1 1221   2.654   1.657   5.545  0.1074 -0.0237  1.9629
  280SOL    HW2 1222   2.735   1.781   5.510  1.1886 -1.0382  0.8147
  281SOL     OW 1223   0.407   4.508   3.279  0.4601  0.0234 -0.2667
  281SOL    HW1 1224   0.374   4.421   3.302  0.6731 -0.6778 -2.4327
  281SOL    HW2 1225   0.361   4.530   3.198 -0.8217  2.6856  1.1318
  282SOL     OW 1226   0.039   3.908   0.103 -0.2270  0.3313  0.3544
  282SOL    HW1 1227   0.063   3.980   0.045 -2.0625  0.7267  0.0484
  282SOL    HW2 1228   0.117   3.853   0.107 -0.0735  0.2263 -2.5969
  283SOL     OW 1229   2.197   1.122   2.963 -0.2032  0.8316  0.5708
  283SOL    HW1 1230   2.201   1.080   3.048  1.4342  2.3282  1.2634
  283SOL    HW2 1231   2.147   1.061   2.908 -1.4733 -0.0347  2.6335
  284SOL     OW 1232   2.040   5.255   1.215 -0.0521  0.6772  0.5002
  284SOL    HW1 1233   2.043   5.317   1.288  1.4470  0.9217  0.2629
  284SOL    HW2 1234   2.106   5.288   1.154  1.2074 -1.4661  0.6427
  285SOL     OW 1235   2.914   2.033   5.371 -0.5156  0.0125  0.2948
  285SOL    HW1 1236   2.875   2.040   5.284 -0.8086  0.7134  0.4797
  285SOL    HW2 1237   2.955   2.119   5.385 -0.5667 -0.0626  0.8975
  286SOL     OW 1238   2.536   5.182   2.513  0.3652  0.1545 -0.4198
  286SOL    HW1 1239   2.571   5.264   2.546  1.1154  0.0608 -0.9568
  286SOL    HW2 1240   2.610   5.121   2.518 -0.4195 -0.7175  0.7647
  287SOL     OW 1241   4.550   3.370   4.427  0.2070 -0.1410 -0.0803
  287SOL    HW1 1242   4.553   3.276   4.443  2.4325 -0.4032 -1.8115
  287SOL    HW2 1243   4.480   3.381   4.363  0.3677 -0.6962 -0.3528
  288SOL     OW 1244   3.419   3.189   5.726  0.3878  0.1417  0.1929
  288SOL    HW1 1245   3.391   3.123   5.789  0.1814  0.5635  0.5491
  288SOL    HW2 1246   3.472   3.142   5.663  0.6069 -0.2798  0.6949
  289SOL     OW 1247   3.201   0.131   2.453  0.1561  0.5694  0.1496
  289SOL    HW1 1248   3.203   0.040   2.423  0.2616  0.3439  0.8169
  289SOL    HW2 1249   3.134   0.173   2.400  0.9606  0.4023 -1.0146
  290SOL     OW 1250   2.138   2.781   2.457  0.4415  0.1313  0.0055
  290SOL    HW1 1251   2.221   2.789   2.503  0.3915  0.8451 -0.0236
  290SOL    HW2 1252   2.127   2.866   2.413 -1.4068  0.8844  1.8333
  291SOL     OW 1253   0.005   3.151   2.634  0.8402  0.4535  0.2160
  291SOL    HW1 1254   0.095   3.160   2.664  0.7504 -0.7702  0.8850
  291SOL    HW2 1255   0.002   3.066   2.590  0.0316  0.5173  0.1336
  292SOL     OW 1256   5.174   4.155   4.343 -0.5551 -0.2779 -0.2784
  292SOL    HW1 1257   5.140   4.149   4.432  1.5071 -1.2131  0.4836
  292SOL    HW2 1258   5.169   4.248   4.321  1.3270  0.3465  1.8154
  293SOL     OW 1259   2.215   3.611   2.931 -0.1269 -0.7015 -0.2858
  293SOL    HW1 1260   2.296   3.616   2.981 -1.6101 -1.0682  2.2832
  293SOL    HW2 1261   2.171   3.695   2.948 -2.1866 -2.1456  1.8546
  294SOL     OW 1262   3.185   1.954   4.630  0.1973  0.2682 -0.1594
  294SOL    HW1 1263   3.123   1.883   4.645 -1.4856  1.7172 -0.0810
  294SOL    HW2 1264   3.131   2.033   4.627  1.4643  1.1306 -4.4477
  295SOL     OW 1265   3.803   3.398   5.977 -0.4200 -0.0189 -0.3380
  295SOL    HW1 1266   3.819   3.304   5.987 -1.4247 -0.1281  0.3424
  295SOL    HW2 1267   3.890   3.438   5.977  0.0134 -0.9593 -0.7471
  296SOL     OW 1268   1.013   0.406   5.326  0.0541 -0.0547  0.1616
  296SOL    HW1 1269   1.003   0.316   5.357 -2.1334  0.1626  0.1432
  296SOL    HW2 1270   1.092   0.438   5.370  1.9333 -2.5556 -1.2523
  297SOL     OW 1271   6.049   1.989   4.435 -0.3493  0.4283 -0.3306
  297SOL    HW1 1272   6.057   1.934   4.357  2.2250  0.3437 -0.0580
  297SOL    HW2 1273   6.037   1.927   4.507 -2.9524  0.5168 -0.6576
  298SOL     OW 1274   2.693   6.040   1.328  0.8195 -0.2188 -0.2328
  298SOL    HW1 1275   2.644   5.960   1.311 -0.6364  0.1941  1.7467
  298SOL    HW2 1276   2.666   6.101   1.260 -0.2537 -0.4933 -0.0484
  299SOL     OW 1277   4.605   2.423   6.249  0.5624  0.4153 -0.1383
  299SOL    HW1 1278   4.516   2.457   6.247  0.0282 -0.8555  1.1298
  299SOL    HW2 1279   4.597   2.335   6.286  2.6161  1.2497  2.4778
  300SOL     OW 1280   5.697   4.577   2.868 -0.1803  0.0806 -0.2067
  300SOL    HW1 1281   5.604   4.586   2.847 -0.2637  0.0994  0.1574
  300SOL    HW2 1282   5.707   4.624   2.951  0.4509  1.3358 -0.9797
  301SOL     OW 1283   3.975   3.972   0.240  0.1075  0.4950 -0.3646
  301SOL    HW1 1284   3.986   4.058   0.199 -0.6390 -0.2204 -2.1466
  301SOL    HW2 1285   4.045   3.918   0.204 -1.7308 -0.6909 -2.3006
  302SOL     OW 1286   4.530   5.664   1.796  0.2964  0.5581  0.7264
  302SOL    HW1 1287   4.608   5.686   1.744 -1.2620  0.4010 -1.7636
  302SOL    HW2 1288   4.511   5.573   1.773 -1.4371  1.0347  0.2294
  303SOL     OW 1289   3.847   1.487   2.807 -0.1023 -0.1614  0.8433
  303SOL    HW1 1290   3.841   1.391   2.803  0.8780 -0.2316  1.0805
  303SOL    HW2 1291   3.841   1.515   2.716  1.4261 -0.5595  0.6141
  304SOL     OW 1292   2.837   4.842   0.817  0.1160  0.4670 -0.3095
  304SOL    HW1 1293   2.815   4.879   0.903 -1.8254  0.1593 -0.6481
  304SOL    HW2 1294   2.766   4.871   0.760  0.7508 -0.3620 -1.5344
  305SOL     OW 1295   1.643   1.132   0.918 -0.1213 -0.2620 -0.0262
  305SOL    HW1 1296   1.580   1.203   0.905  1.3812  1.0911 -0.0633
  305SOL    HW2 1297   1.655   1.128   1.012  1.9373  1.5029 -0.1576
  306SOL     OW 1298   0.379   1.372   1.631 -0.2952  0.0661  0.1566
  306SOL    HW1 1299   0.352   1.281   1.627 -1.2882  0.2929  1.2576
  306SOL    HW2 1300   0.360   1.407   1.544  0.4869 -0.8789 -0.3902
  307SOL     OW 1301   2.769   2.914   3.000 -0.3863 -0.3034 -0.8074
  307SOL    HW1 1302   2.809   2.997   3.025 -1.0328 -0.1637 -0.2171
  307SOL    HW2 1303   2.718   2.888   3.076 -0.5358 -1.0298 -1.1476
  308SOL     OW 1304   4.109   1.428   4.305  0.0270  0.3912  0.0218
  308SOL    HW1 1305   4.198   1.452   4.330 -0.8828  4.0043  0.0986
  308SOL    HW2 1306   4.088   1.352   4.360  2.5774  0.2750  0.8904
  309SOL     OW 1307   2.210   3.529   1.729  0.1540  0.0446  0.1545
  309SOL    HW1 1308   2.217   3.532   1.824  0.2651 -1.3601  0.1997
  309SOL    HW2 1309   2.257   3.607   1.699 -1.9883  1.8499  1.3423
  310SOL     OW 1310   0.431   5.646   1.051 -0.3789 -0.6169  0.2459
  310SOL    HW1 1311   0.519   5.617   1.075 -0.1585  0.1689  0.4168
  310SOL    HW2 1312   0.436   5.742   1.054 -0.4929 -0.4846 -2.4066
  311SOL     OW 1313   6.135   3.556   6.020  0.3118  0.6030  0.6938
  311SOL    HW1 1314   6.066   3.514   6.071 -0.7869  0.6712 -0.7029
  311SOL    HW2 1315   6.090   3.625   5.971  1.3056  0.4275 -0.4918
  312SOL     OW 1316   3.572   2.490   3.082 -0.0835  0.2596 -0.1187
  312SOL    HW1 1317   3.492   2.459   3.040  0.6471 -2.1819  0.2138
  312SOL    HW2 1318   3.624   2.527   3.011 -1.1809  1.2263 -0.4426
  313SOL     OW 1319   6.284   3.063   5.771 -0.1412  0.2994 -0.6103
  313SOL    HW1 1320   6.309   2.976   5.742 -2.2319 -0.3505 -0.5320
  313SOL    HW2 1321   6.315   3.068   5.862  0.5909 -0.0878 -0.8388
  314SOL     OW 1322   4.166   1.958   0.725 -0.4913  0.0102  0.1644
  314SOL    HW1 1323   4.249   1.963   0.774  0.1870 -4.4583 -0.3467
  314SOL    HW2 1324   4.108   1.908   0.781 -0.6177 -2.7450 -2.3072
  315SOL     OW 1325   0.882   0.475   1.567  0.1408  0.5812  0.1493
  315SOL    HW1 1326   0.834   0.547   1.606 -1.3710 -0.1887 -0.2543
  315SOL    HW2 1327   0.817   0.428   1.514  1.0337 -1.1849  0.5683
  316SOL     OW 1328   3.688   4.128   3.922  0.3168 -0.3339  0.5918
  316SOL    HW1 1329   3.593   4.118   3.925  0.1154  1.2330  0.2528
  316SOL    HW2 1330   3.707   4.192   3.991  0.7559  1.6020 -1.2528
  317SOL     OW 1331   6.146   0.274   0.518 -1.0577 -0.0612  0.2007
  317SOL    HW1 1332   6.142   0.199   0.458  1.1794  1.7297 -2.3107
  317SOL    HW2 1333   6.078   0.256   0.583 -2.0245 -3.2106 -1.5553
  318SOL     OW 1334   4.476   3.575   0.501 -0.3937 -0.1695 -0.4767
  318SOL    HW1 1335   4.399   3.602   0.552 -0.2219  0.1154 -0.3631
  318SOL    HW2 1336   4.550   3.599   0.557 -0.1638  1.2027 -1.3652
  319SOL     OW 1337   0.487   2.151   3.279  0.3798 -0.0557 -0.4584
  319SOL    HW1 1338   0.398   2.169   3.249  0.2240 -1.2621 -0.7461
  319SOL    HW2 1339   0.517   2.080   3.222  0.5901 -1.4266  1.3551
  320SOL     OW 1340   3.590   2.781   4.515 -0.0721  0.1454 -0.2471
  320SOL    HW1 1341   3.628   2.830   4.442  0.3008  0.1941 -0.0227
  320SOL    HW2 1342   3.653   2.792   4.586 -1.1615  1.3367  0.5533
  321SOL     OW 1343   1.385   0.107   1.516 -0.0885  0.5107 -0.2539
  321SOL    HW1 1344   1.296   0.137   1.498 -0.1156  0.4744 -0.1779
  321SOL    HW2 1345   1.418   0.167   1.583  0.4873  1.4880 -1.3881
  322SOL     OW 1346   3.577   2.832   4.013 -0.4093  0.2333 -0.1230
  322SOL    HW1 1347   3.550   2.776   4.086  0.3739  0.6382  0.4822
  322SOL    HW2 1348   3.567   2.776   3.935 -0.7463 -0.3647  0.3441
  323SOL     OW 1349   1.068   5.334   2.423 -0.1398 -0.2870  0.5298
  323SOL    HW1 1350   1.119   5.357   2.346 -1.3881  0.1145 -0.1880
  323SOL    HW2 1351   1.123   5.359   2.497  0.6807  0.1724 -0.2307
  324SOL     OW 1352   0.477   5.282   0.153  0.1264  0.3327 -0.2504
  324SOL    HW1 1353   0.567   5.247   0.152  0.0664  0.0746  1.6660
  324SOL    HW2 1354   0.424   5.210   0.118  0.6425  0.4152 -1.2169
  325SOL     OW 1355   3.425   4.137   2.246  0.2172 -0.0147 -0.7352
  325SOL    HW1 1356   3.340   4.178   2.263  0.3990  0.4264 -0.8730
  325SOL    HW2 1357   3.444   4.157   2.154  0.7024  0.3316 -0.5647
  326SOL     OW 1358   4.738   3.569   1.144 -0.3197  0.1957  0.1699
  326SOL    HW1 1359   4.717   3.624   1.220 -1.0141 -0.1848  0.2558
  326SOL    HW2 1360   4.695   3.612   1.070 -0.5952 -0.0576  0.1831
  327SOL     OW 1361   1.828   2.184   1.774 -0.2005 -0.5106 -0.4905
  327SOL    HW1 1362   1.742   2.196   1.815 -0.1977  1.3450 -0.9984
  327SOL    HW2 1363   1.810   2.125   1.701 -0.8691 -0.9032 -0.0208
  328SOL     OW 1364   1.526   2.890   3.028 -0.0448  0.6523  0.6944
  328SOL    HW1 1365   1.495   2.805   3.057  0.4325 -0.1699 -1.1298
  328SOL    HW2 1366   1.609   2.872   2.985 -0.8704  1.7537 -1.4550
  329SOL     OW 1367   3.388   5.583   1.135 -0.6023  0.1349  0.2805
  329SOL    HW1 1368   3.296   5.560   1.146 -0.9297  2.8749  4.0294
  329SOL    HW2 1369   3.395   5.614   1.045 -2.8398 -2.1674 -0.7165
  330SOL     OW 1370   1.716   1.667   5.444  0.2359  0.3460 -0.5122
  330SOL    HW1 1371   1.726   1.740   5.504 -0.3139 -0.2700  0.3316
  330SOL    HW2 1372   1.653   1.699   5.378  0.8551  1.0237 -0.7791
  331SOL     OW 1373   6.183   1.956   1.744 -0.1144 -0.6511 -0.2642
  331SOL    HW1 1374   6.095   1.944   1.780 -0.5631  0.1474 -1.0681
  331SOL    HW2 1375   6.241   1.948   1.819 -1.0925  1.9054  0.8088
  332SOL     OW 1376   0.708   4.789   2.922 -0.1638 -0.0412  0.4932
  332SOL    HW1 1377   0.746   4.720   2.869 -2.9229 -1.9371  0.8626
  332SOL    HW2 1378   0.647   4.833   2.863 -0.3599  0.3751  1.0014
  333SOL     OW 1379   4.779   5.927   3.917  0.4528  0.5123 -0.6279
  333SOL    HW1 1380   4.772   6.017   3.884 -1.5486  0.9839  0.9515
  333SOL    HW2 1381   4.873   5.912   3.926  0.8136  2.5191 -0.7423
  334SOL     OW 1382   3.272   5.758   0.229 -0.2228 -0.1478 -0.2014
  334SOL    HW1 1383   3.259   5.669   0.196  0.3803 -0.1037 -0.5555
  334SOL    HW2 1384   3.310   5.806   0.156  2.1238 -0.3136  0.8772
  335SOL     OW 1385   3.022   1.815   2.309 -0.5060  0.6951 -0.5936
  335SOL    HW1 1386   3.113   1.787   2.302 -1.3150 -1.7545 -2.0961
  335SOL    HW2 1387   3.006   1.868   2.231 -1.2069 -1.5939 -2.0759
  336SOL     OW 1388   3.931   5.446   4.730 -0.7154  0.2561  0.3991
  336SOL    HW1 1389   3.900   5.356   4.721  0.3649  0.0230 -1.1950
  336SOL    HW2 1390   4.023   5.437   4.753 -1.3948  0.9589  3.7264
  337SOL     OW 1391   2.177   0.587   1.244 -1.0784  0.4486  0.2400
  337SOL    HW1 1392   2.213   0.526   1.308  2.1194  1.2664 -0.6553
  337SOL    HW2 1393   2.189   0.542   1.160 -0.4602  1.4795 -0.2339
  338SOL     OW 1394   1.122   2.970   3.980  0.8424  0.0963  0.3497
  338SOL    HW1 1395   1.185   2.971   3.908  1.1416 -0.8961  0.5967
  338SOL    HW2 1396   1.075   3.053   3.971  2.9660  1.4033  0.8531
  339SOL     OW 1397   5.437   0.691   0.026 -0.4548 -0.1211  0.5820
  339SOL    HW1 1398   5.403   0.648  -0.053  0.6330 -0.8844  0.5199
  339SOL    HW2 1399   5.414   0.630   0.097 -0.9791  0.3219  0.7967
  340SOL     OW 1400   1.022   0.049   4.536  0.1030  0.1835 -0.5236
  340SOL    HW1 1401   1.050   0.071   4.625  1.3697  0.0157 -0.8614
  340SOL    HW2 1402   1.055  -0.040   4.523 -0.3521  0.0945 -1.0518
  341SOL     OW 1403   5.576   6.371   0.555  0.2716  0.2474 -0.1588
  341SOL    HW1 1404   5.549   6.376   0.647  0.1857 -0.8575 -0.1223
  341SOL    HW2 1405   5.671   6.361   0.559  0.9654  5.3123 -0.3060
  342SOL     OW 1406   2.420   2.643   0.206 -0.1439  0.1822  0.2864
  342SOL    HW1 1407   2.412   2.663   0.112 -0.5289 -0.6521  0.1396
  342SOL    HW2 1408   2.331   2.623   0.234 -0.5397  3.3585  1.5239
  343SOL     OW 1409   5.769   1.041   0.497  0.6694  0.5489  0.1456
  343SOL    HW1 1410   5.777   1.010   0.588 -0.6258 -0.7069 -0.1638
  343SOL    HW2 1411   5.709   1.115   0.503  2.2986  1.8775  0.6079
  344SOL     OW 1412   2.723   4.955   0.049  0.6701 -0.8497 -0.2856
  344SOL    HW1 1413   2.708   4.904   0.129 -2.4828  0.0811 -0.2056
  344SOL    HW2 1414   2.715   4.891  -0.022 -1.1845 -0.9150 -0.0621
  345SOL     OW 1415   2.779   5.176   1.244 -0.1500  0.1438 -0.5481
  345SOL    HW1 1416   2.800   5.262   1.208  2.4457 -0.7365 -1.2484
  345SOL    HW2 1417   2.863   5.132   1.252 -1.3381 -2.0016  0.7050
  346SOL     OW 1418   6.364   3.532   4.060 -0.5057  0.4184 -0.3000
  346SOL    HW1 1419   6.301   3.566   3.996 -0.0083  0.5903 -0.7028
  346SOL    HW2 1420   6.449   3.543   4.017 -0.3030 -0.9606 -0.2631
  347SOL     OW 1421   5.621   5.745   0.474  0.1404  0.1276 -0.2392
  347SOL    HW1 1422   5.689   5.715   0.533 -0.8839  1.5591  1.7250
  347SOL    HW2 1423   5.589   5.666   0.432  1.4726 -0.8086  0.4794
  348SOL     OW 1424   5.024   4.978   3.071 -0.4527 -0.1123  0.0532
  348SOL    HW1 1425   4.935   4.946   3.059  0.2136 -1.4032 -1.6704
  348SOL    HW2 1426   5.078   4.899   3.072  0.4880  0.5113  3.1278
  349SOL     OW 1427   3.502   5.442   1.807 -0.5687  0.1674 -0.3433
  349SOL    HW1 1428   3.546   5.432   1.722  0.5097 -0.0981  0.2306
  349SOL    HW2 1429   3.451   5.362   1.817  0.0779 -0.2449 -0.3067
  350SOL     OW 1430   4.532   5.462   3.110  0.5023 -0.4938  0.0720
  350SOL    HW1 1431   4.490   5.547   3.097  0.5429 -0.9231 -3.4068
  350SOL    HW2 1432   4.460   5.403   3.131 -0.7151 -1.0330 -4.9065
  351SOL     OW 1433   4.616   2.326   0.585 -0.7730 -0.0616  0.1176
  351SOL    HW1 1434   4.615   2.350   0.492 -1.2367  1.2730  0.4559
  351SOL    HW2 1435   4.561   2.248   0.590 -1.7613  0.5867 -0.5414
  352SOL     OW 1436   0.139   5.390   4.038  0.3141 -0.0515 -0.6713
  352SOL    HW1 1437   0.088   5.470   4.028  0.0751 -0.1565 -0.2971
  352SOL    HW2 1438   0.074   5.320   4.046  0.4815 -0.0182  1.3108
  353SOL     OW 1439   5.527   1.373   0.778 -0.5035 -0.1082  0.2242
  353SOL    HW1 1440   5.570   1.413   0.854 -1.2674  0.9712  0.1006
  353SOL    HW2 1441   5.450   1.329   0.815  0.3584 -1.5439  0.3662
  354SOL     OW 1442   4.710   6.292   0.690  0.4449 -0.5716 -0.0671
  354SOL    HW1 1443   4.786   6.334   0.729 -0.7909  0.3606  1.3808
  354SOL    HW2 1444   4.687   6.222   0.751 -0.5637 -0.0946  0.1078
  355SOL     OW 1445   4.195   4.477   2.440  0.4574 -0.0106  0.1431
  355SOL    HW1 1446   4.189   4.383   2.422 -0.7332 -0.3088  1.9947
  355SOL    HW2 1447   4.116   4.513   2.399 -0.2468 -0.1428  1.3725
  356SOL     OW 1448   2.647   3.633   4.992  0.2466  0.0662  0.3002
  356SOL    HW1 1449   2.588   3.557   4.992 -0.5693  0.6957  1.0891
  356SOL    HW2 1450   2.591   3.706   4.965  0.2602  0.9673  2.6402
  357SOL     OW 1451   5.951   2.523   1.894 -0.1026 -0.5304  0.9200
  357SOL    HW1 1452   6.045   2.524   1.874 -0.1290 -1.2151  0.7614
  357SOL    HW2 1453   5.910   2.486   1.817 -0.4541 -0.7160  1.1945
  358SOL     OW 1454   1.956   1.900   4.247  0.4271  0.8068 -0.0809
  358SOL    HW1 1455   1.946   1.813   4.285 -0.1580  0.9244  0.0549
  358SOL    HW2 1456   1.873   1.916   4.202  0.1823  1.6462  0.6380
  359SOL     OW 1457   3.628   0.824   1.020 -0.0774  0.1367 -0.2682
  359SOL    HW1 1458   3.712   0.781   1.036  0.1917  0.5230 -0.6546
  359SOL    HW2 1459   3.612   0.811   0.927 -1.4413 -1.7390  0.1789
  360SOL     OW 1460   4.933   3.131   3.742  0.1618 -0.4132 -0.3431
  360SOL    HW1 1461   4.912   3.038   3.751  1.0126 -0.5929 -0.0806
  360SOL    HW2 1462   4.953   3.159   3.832 -2.6108  0.6674 -0.0446
  361SOL     OW 1463   2.282   1.843   5.031 -0.1258 -0.0245  0.0942
  361SOL    HW1 1464   2.300   1.848   5.125 -0.9662 -0.3775  0.2737
  361SOL    HW2 1465   2.356   1.889   4.990 -0.0747  0.6721  0.9566
  362SOL     OW 1466   2.998   2.344   0.195  0.1458 -0.4480  0.3401
  362SOL    HW1 1467   2.928   2.321   0.257 -0.2057 -0.6422 -0.1219
  362SOL    HW2 1468   3.057   2.400   0.245  0.2784 -1.2352  1.0885
  363SOL     OW 1469   1.311   2.672   2.372  0.3148 -0.3375  0.0485
  363SOL    HW1 1470   1.293   2.749   2.319  0.1898 -0.1588  0.3501
  363SOL    HW2 1471   1.404   2.680   2.395  0.8702 -1.3968 -1.7254
  364SOL     OW 1472   5.781   6.235   3.764  0.4007 -0.1389 -0.2820
  364SOL    HW1 1473   5.814   6.188   3.687 -0.9100 -2.2557  0.4110
  364SOL    HW2 1474   5.859   6.270   3.807  1.4605 -2.2048 -0.4971
  365SOL     OW 1475   4.934   3.777   4.661 -0.6257 -0.3709 -0.2324
  365SOL    HW1 1476   4.914   3.856   4.611 -0.8969 -1.7363 -2.3776
  365SOL    HW2 1477   4.865   3.772   4.727 -1.1991  0.6503 -0.7405
  366SOL     OW 1478   1.280   3.878   1.428 -0.0612 -0.6129  0.1826
  366SOL    HW1 1479   1.315   3.836   1.507 -0.8293  0.3672  1.0613
  366SOL    HW2 1480   1.337   3.847   1.358 -0.0400 -2.3675  0.9406
  367SOL     OW 1481   5.600   1.290   0.515  0.1073  0.1258  0.4773
  367SOL    HW1 1482   5.567   1.311   0.603  0.7800 -2.3193  1.3427
  367SOL    HW2 1483   5.669   1.355   0.500 -0.6409  1.1532  1.3520
  368SOL     OW 1484   0.499   4.070   3.892  0.0494 -0.9894  0.2319
  368SOL    HW1 1485   0.436   4.087   3.822 -0.4244 -1.0378  0.6484
  368SOL    HW2 1486   0.580   4.046   3.846  0.2178  0.5887 -0.3380
  369SOL     OW 1487   6.163   2.047   5.092  0.1754  0.2959 -0.2370
  369SOL    HW1 1488   6.189   2.137   5.114 -1.6956  1.0285 -0.9024
  369SOL    HW2 1489   6.239   2.011   5.047  1.1713  1.3438  0.5584
  370SOL     OW 1490   1.692   1.111   2.178 -0.4895  0.1199 -0.1202
  370SOL    HW1 1491   1.755   1.132   2.247 -2.4382  0.6834  1.5458
  370SOL    HW2 1492   1.735   1.043   2.126  0.7220 -0.8814  2.1064
  371SOL     OW 1493   3.776   1.333   4.087 -0.0366 -0.0473 -0.3759
  371SOL    HW1 1494   3.739   1.371   4.008 -0.4207 -0.8904 -0.6097
  371SOL    HW2 1495   3.852   1.387   4.107 -1.4243  1.7413  0.1437
  372SOL     OW 1496   0.753   0.404   5.411 -0.1034 -0.4386 -0.0179
  372SOL    HW1 1497   0.691   0.444   5.351  0.0108  1.5554  1.1320
  372SOL    HW2 1498   0.836   0.404   5.364 -0.7056 -2.0336 -1.1134
  373SOL     OW 1499   3.514   6.167   1.757 -0.9082  0.2642  0.3324
  373SOL    HW1 1500   3.444   6.125   1.806  1.5894 -0.9491  2.9974
  373SOL    HW2 1501   3.552   6.230   1.818  2.3506 -1.3539  0.1060
  374SOL     OW 1502   0.396   3.473   3.192 -0.3652 -0.0551  0.4278
  374SOL    HW1 1503   0.396   3.545   3.128  1.7225  0.3207  0.7970
  374SOL    HW2 1504   0.439   3.510   3.269  0.9773 -1.7495  0.5246
  375SOL     OW 1505   5.878   1.860   3.587  0.1874  0.3170 -0.0096
  375SOL    HW1 1506   5.906   1.809   3.511 -1.5259 -0.3046 -0.2424
  375SOL    HW2 1507   5.785   1.874   3.573  0.2345  1.7831  1.0756
  376SOL     OW 1508   2.420   6.157   0.606 -0.2856  0.2940  0.3350
  376SOL    HW1 1509   2.413   6.156   0.701 -1.0045 -0.7670  0.2737
  376SOL    HW2 1510   2.371   6.234   0.579  0.8617  1.2365  0.8855
  377SOL     OW 1511   1.076   0.675   5.669 -0.3683 -0.0016 -0.0783
  377SOL    HW1 1512   1.129   0.634   5.600  0.3770 -0.1211  0.5527
  377SOL    HW2 1513   0.986   0.656   5.644 -0.0592 -1.3177 -0.2428
  378SOL     OW 1514   0.091   0.085   1.872  0.1270 -0.1426  0.1534
  378SOL    HW1 1515   0.144   0.110   1.797 -2.0149  0.7334 -1.1098
  378SOL    HW2 1516   0.086   0.165   1.925  1.8834 -0.8354  1.4451
  379SOL     OW 1517   6.366   4.767   5.094  0.0680 -0.1706 -0.2325
  379SOL    HW1 1518   6.449   4.719   5.096 -0.4628 -1.2169 -2.1174
  379SOL    HW2 1519   6.326   4.748   5.178  1.8893  0.6435  0.8557
  380SOL     OW 1520   0.814   4.053   0.999 -0.4800 -0.6431 -0.3883
  380SOL    HW1 1521   0.729   4.057   1.043 -1.2800 -1.5728 -1.7710
  380SOL    HW2 1522   0.871   4.109   1.050 -1.5571 -1.1439  1.4057
  381SOL     OW 1523   6.155   1.108   4.924 -0.7652  0.6585 -0.1596
  381SOL    HW1 1524   6.206   1.054   4.863 -0.5371  1.0396 -0.3053
  381SOL    HW2 1525   6.076   1.056   4.941  0.5262 -0.8185  1.5582
  382SOL     OW 1526   0.233   5.073   4.578 -0.6463 -0.4412  0.8004
  382SOL    HW1 1527   0.262   5.109   4.494  0.9264  0.6107  1.7714
  382SOL    HW2 1528   0.139   5.093   4.581 -0.3981  0.9050 -0.0131
  383SOL     OW 1529   2.961   5.601   5.029  0.2744 -0.2838 -0.0006
  383SOL    HW1 1530   2.965   5.667   5.098  1.6751  0.1494 -0.4884
  383SOL    HW2 1531   2.954   5.652   4.948 -0.1110 -0.7664 -0.2722
  384SOL     OW 1532   5.411   6.334   4.270  0.7567  0.9400  0.5378
  384SOL    HW1 1533   5.348   6.397   4.235 -1.9099 -1.1230  1.5003
  384SOL    HW2 1534   5.385   6.250   4.233  2.1919 -0.1552  1.9517
  385SOL     OW 1535   4.925   0.854   2.171 -0.4730  0.5037 -0.1786
  385SOL    HW1 1536   4.905   0.761   2.162 -0.9805  0.5043  0.8496
  385SOL    HW2 1537   4.852   0.898   2.127 -2.4702  0.4882  2.9500
  386SOL     OW 1538   5.582   5.699   5.064  0.2705  0.1400 -0.1198
  386SOL    HW1 1539   5.663   5.748   5.057  1.0789 -1.1515  0.0301
  386SOL    HW2 1540   5.607   5.618   5.108 -1.2505  0.0769  0.6507
  387SOL     OW 1541   5.371   4.768   3.702  0.1493 -0.1632  0.1760
  387SOL    HW1 1542   5.440   4.716   3.663 -0.0909  0.0029 -0.4740
  387SOL    HW2 1543   5.386   4.762   3.797 -0.3252 -2.0451  0.1522
  388SOL     OW 1544   4.054   4.793   1.071  0.3032 -0.4736  0.0395
  388SOL    HW1 1545   4.124   4.756   1.125 -0.9053 -3.0881 -0.1044
  388SOL    HW2 1546   3.974   4.775   1.121 -0.3646  1.7356 -0.1939
  389SOL     OW 1547   5.101   0.347   2.430  0.0913  0.4494 -0.1421
  389SOL    HW1 1548   5.167   0.297   2.383  1.1857  1.9793 -0.2540
  389SOL    HW2 1549   5.031   0.362   2.366 -1.1748 -2.5778  0.4291
  390SOL     OW 1550   6.122   2.620   5.600  0.2103 -0.2395  0.0299
  390SOL    HW1 1551   6.063   2.615   5.676 -0.2369  0.6128 -0.2558
  390SOL    HW2 1552   6.079   2.567   5.533  1.1129 -1.8508  0.6844
  391SOL     OW 1553   2.396   1.210   5.598  0.1429  0.3781 -0.3534
  391SOL    HW1 1554   2.340   1.277   5.558  0.1057  1.1024  0.8976
  391SOL    HW2 1555   2.358   1.196   5.685  0.5567 -0.7805 -0.3523
  392SOL     OW 1556   4.862   5.644   3.857 -0.3741 -0.8284  0.0136
  392SOL    HW1 1557   4.919   5.651   3.934 -0.5681 -0.4947  0.1274
  392SOL    HW2 1558   4.801   5.718   3.866  0.1876 -0.2389 -0.9386
  393SOL     OW 1559   2.125   2.681   4.665  0.1993  0.0799  0.2532
  393SOL    HW1 1560   2.123   2.764   4.712 -2.2907  0.8861 -1.1231
  393SOL    HW2 1561   2.142   2.706   4.574  0.3260 -0.9841 -0.0181
  394SOL     OW 1562   2.062   6.019   6.138  0.3436 -0.6775  0.0531
  394SOL    HW1 1563   2.135   6.018   6.076  0.4674 -0.4696  0.2000
  394SOL    HW2 1564   2.099   5.988   6.220  0.6101  0.9084  0.5288
  395SOL     OW 1565   4.308   1.382   0.026  0.2800  0.0975  0.2381
  395SOL    HW1 1566   4.283   1.370   0.117 -1.5239 -0.6126 -0.3284
  395SOL    HW2 1567   4.319   1.293  -0.008 -1.9000  0.2561 -0.9708
  396SOL     OW 1568   4.187   3.098   6.065 -0.1537  0.0194 -0.1470
  396SOL    HW1 1569   4.196   3.052   5.982  1.4611 -3.1247  1.6479
  396SOL    HW2 1570   4.095   3.088   6.089  0.6225 -4.5032  1.3321
  397SOL     OW 1571   2.432   3.033   1.945 -0.0537  0.0704  0.0642
  397SOL    HW1 1572   2.360   3.093   1.963  1.6779  2.0362  0.6961
  397SOL    HW2 1573   2.402   2.979   1.872 -2.3490  0.4623  0.6803
  398SOL     OW 1574   0.737   5.969   0.047  0.3347  0.1855 -0.3600
  398SOL    HW1 1575   0.762   5.962   0.139  1.0065  0.5318 -0.5160
  398SOL    HW2 1576   0.752   6.060   0.025 -2.3902  0.7361 -0.0758
  399SOL     OW 1577   5.216   2.496   0.805 -0.6437 -0.6146  0.4930
  399SOL    HW1 1578   5.223   2.400   0.799 -1.2542 -0.5696 -1.3586
  399SOL    HW2 1579   5.124   2.511   0.827 -0.5872 -0.4517  0.6121
  400SOL     OW 1580   3.757   0.899   0.698 -0.4568  0.1735  0.1190
  400SOL    HW1 1581   3.789   0.950   0.624  0.6377 -0.9376 -0.1922
  400SOL    HW2 1582   3.836   0.865   0.740 -1.1253 -0.4157  0.9333
  401SOL     OW 1583   0.715   3.526   5.983  0.1256  0.0902 -0.0357
  401SOL    HW1 1584   0.681   3.564   5.901  0.3769  1.5924  0.5450
  401SOL    HW2 1585   0.798   3.486   5.958 -1.0348 -1.8021 -1.0491
  402SOL     OW 1586   4.223   2.590   5.568 -0.0987  0.2267  0.0197
  402SOL    HW1 1587   4.160   2.534   5.522  0.0389 -0.0776  0.1964
  402SOL    HW2 1588   4.206   2.574   5.661 -0.6632  1.1702  0.0812
  403SOL     OW 1589   2.608   3.196   6.279  0.0286  0.1648  0.4754
  403SOL    HW1 1590   2.571   3.248   6.208  1.0691 -0.8681 -0.8601
  403SOL    HW2 1591   2.693   3.237   6.298 -0.4895  0.7823  1.5383
  404SOL     OW 1592   2.035   4.270   0.226  0.5190  0.5654  0.0265
  404SOL    HW1 1593   1.975   4.224   0.167  0.7846  1.3865 -0.9087
  404SOL    HW2 1594   2.122   4.251   0.191  0.7529  0.1146  0.8487
  405SOL     OW 1595   4.969   5.249   0.066  0.1902 -0.1963  0.1832
  405SOL    HW1 1596   4.935   5.221   0.151 -1.2774 -1.5301 -0.8316
  405SOL    HW2 1597   4.958   5.173   0.009  1.2062  0.6728 -1.1958
  406SOL     OW 1598   4.211   2.341   4.008  0.2229  0.5857  0.3603
  406SOL    HW1 1599   4.149   2.336   4.081 -0.9596 -1.0850 -0.7319
  406SOL    HW2 1600   4.262   2.261   4.015 -1.0458 -0.4335 -1.6322
  407SOL     OW 1601   0.469   1.542   1.855 -0.0199  0.0382  0.3400
  407SOL    HW1 1602   0.421   1.625   1.856 -1.3038 -0.6974  1.3793
  407SOL    HW2 1603   0.437   1.496   1.778 -1.2076 -0.5536  1.1621
  408SOL     OW 1604   3.401   6.078   4.319 -0.2704  0.0157 -0.5807
  408SOL    HW1 1605   3.403   5.989   4.285 -1.0723 -0.7362  1.2479
  408SOL    HW2 1606   3.436   6.070   4.408  0.3706  1.6591 -0.6711
  409SOL     OW 1607   0.846   4.581   0.908 -0.2992 -0.2317  0.2931
  409SOL    HW1 1608   0.810   4.668   0.893 -0.1288 -0.2945 -0.5161
  409SOL    HW2 1609   0.855   4.543   0.821  1.5798 -0.2699  0.4660
  410SOL     OW 1610   1.395   0.447   5.718  0.5532  0.5112 -0.0252
  410SOL    HW1 1611   1.380   0.499   5.797 -0.5812  2.0262 -1.2165
  410SOL    HW2 1612   1.455   0.501   5.666  4.1450 -2.0176  1.2736
  411SOL     OW 1613   5.154   2.718   2.807 -0.4661 -0.3831  0.2458
  411SOL    HW1 1614   5.102   2.673   2.873 -0.1697 -0.2825  0.5449
  411SOL    HW2 1615   5.090   2.764   2.753 -0.6496  0.1419  0.9156
  412SOL     OW 1616   4.304   6.176   1.869  0.1600  0.8474  0.5281
  412SOL    HW1 1617   4.380   6.220   1.908  0.1364  1.2006  0.1766
  412SOL    HW2 1618   4.342   6.107   1.815  0.1734 -0.1411  1.7548
  413SOL     OW 1619   1.642   3.813   5.785  0.9115 -0.4495 -0.0985
  413SOL    HW1 1620   1.606   3.890   5.829  2.1923  0.8732 -1.2858
  413SOL    HW2 1621   1.585   3.801   5.709  1.4592  0.1245 -0.6099
  414SOL     OW 1622   1.700   2.233   2.240 -0.1236  0.3145 -0.2398
  414SOL    HW1 1623   1.754   2.290   2.186  1.0214 -0.8649 -0.3663
  414SOL    HW2 1624   1.653   2.178   2.177  0.9812 -0.8522 -0.0666
  415SOL     OW 1625   3.086   0.776   6.212 -0.5621  0.3343 -0.4390
  415SOL    HW1 1626   3.155   0.781   6.278  0.0408  3.2113 -1.2083
  415SOL    HW2 1627   3.004   0.779   6.262 -0.1092  0.5990  0.2989
  416SOL     OW 1628   5.975   6.094   1.221 -0.1513  0.1215 -0.2139
  416SOL    HW1 1629   5.893   6.100   1.271 -0.7754 -0.6276 -1.1424
  416SOL    HW2 1630   5.948   6.080   1.131  0.9576  2.6221 -0.9792
  417SOL     OW 1631   3.527   1.931   4.798 -0.2481 -0.1176  0.0262
  417SOL    HW1 1632   3.538   1.930   4.893  0.1073  1.6114  0.0233
  417SOL    HW2 1633   3.540   1.840   4.771 -0.8299 -0.7051  1.6813
  418SOL     OW 1634   1.737   3.246   0.482  0.1468 -0.6697  1.0152
  418SOL    HW1 1635   1.792   3.297   0.423 -0.8101  1.3440  1.7863
  418SOL    HW2 1636   1.787   3.241   0.564  0.6410 -1.7944  0.6522
  419SOL     OW 1637   4.477   5.374   5.687  1.1964  0.0987 -0.2714
  419SOL    HW1 1638   4.385   5.396   5.700  0.9949  0.1316 -1.6167
  419SOL    HW2 1639   4.502   5.324   5.764 -0.0471 -0.1948 -0.0637
  420SOL     OW 1640   4.163   2.882   5.545  0.3739  1.0742  0.1136
  420SOL    HW1 1641   4.180   2.791   5.568  1.7783  1.1785 -0.4529
  420SOL    HW2 1642   4.201   2.892   5.457  0.0508  2.1447  0.0859
  421SOL     OW 1643   3.099   0.785   1.988 -0.2963  0.2599 -0.3628
  421SOL    HW1 1644   3.031   0.827   2.040 -1.2727  0.0971 -1.4849
  421SOL    HW2 1645   3.176   0.841   1.999 -1.2004  1.5864 -0.7419
  422SOL     OW 1646   4.617   0.323   4.767  0.0672  0.0106 -0.9603
  422SOL    HW1 1647   4.609   0.333   4.672  1.1829 -2.3394 -1.3456
  422SOL    HW2 1648   4.545   0.265   4.791 -0.3978  0.8477 -0.3109
  423SOL     OW 1649   3.244   3.097   0.485  0.5853 -0.0722  0.1631
  423SOL    HW1 1650   3.284   3.012   0.467  1.6043  0.0327  1.7804
  423SOL    HW2 1651   3.217   3.091   0.577 -2.4752  0.1311 -0.6870
  424SOL     OW 1652   4.070   2.251   0.469 -0.0582 -0.2890 -0.1850
  424SOL    HW1 1653   4.071   2.212   0.556  0.4746 -0.7144 -0.3831
  424SOL    HW2 1654   4.043   2.342   0.484 -0.8105 -0.5890  0.3289
  425SOL     OW 1655   6.341   4.521   0.891 -0.2736 -0.2682 -0.0749
  425SOL    HW1 1656   6.435   4.535   0.884 -0.4505  0.8951 -0.3108
  425SOL    HW2 1657   6.317   4.474   0.811  0.0773 -0.4006 -0.0996
  426SOL     OW 1658   5.149   3.025   2.870 -0.2290  0.0181  0.6905
  426SOL    HW1 1659   5.205   2.963   2.918 -0.3819 -1.0719 -0.5031
  426SOL    HW2 1660   5.194   3.038   2.787 -0.9716  0.3499  0.3396
  427SOL     OW 1661   1.450   3.663   0.067  0.3780 -0.1405 -0.4671
  427SOL    HW1 1662   1.436   3.568   0.072  0.0680 -0.1400 -1.2096
  427SOL    HW2 1663   1.497   3.685   0.147 -1.1290 -0.6549  0.5868
  428SOL     OW 1664   4.443   4.263   4.441 -0.1134 -0.2730  0.0019
  428SOL    HW1 1665   4.418   4.306   4.359  0.9145  0.9910  0.3412
  428SOL    HW2 1666   4.501   4.192   4.413 -0.9685 -0.7926 -0.4783
  429SOL     OW 1667   2.927   0.723   1.580  0.6793 -0.0749  0.1284
  429SOL    HW1 1668   3.009   0.707   1.627  0.7846  0.4019  0.1087
  429SOL    HW2 1669   2.951   0.785   1.511 -0.0797  1.6382  1.3496
  430SOL     OW 1670   1.522   4.564   4.685 -1.1140  0.1378 -0.1104
  430SOL    HW1 1671   1.584   4.627   4.722  0.1902 -0.0713 -1.8313
  430SOL    HW2 1672   1.541   4.482   4.730 -1.1254  0.4072  0.3894
  431SOL     OW 1673   4.581   2.028   5.667 -0.6213  0.2580  0.2828
  431SOL    HW1 1674   4.642   2.061   5.601 -1.1140  0.7656  0.0801
  431SOL    HW2 1675   4.502   2.081   5.656 -1.5559 -1.2240 -0.2863
  432SOL     OW 1676   5.452   2.831   0.505 -0.6402  0.7434 -0.2877
  432SOL    HW1 1677   5.379   2.850   0.563 -2.3199 -2.8831 -1.0884
  432SOL    HW2 1678   5.424   2.862   0.420 -1.1322 -0.3281 -0.5246
  433SOL     OW 1679   5.232   4.751   5.771 -0.6117 -0.2453 -0.2019
  433SOL    HW1 1680   5.299   4.696   5.811 -0.8519 -0.4637 -0.1006
  433SOL    HW2 1681   5.260   4.840   5.789 -1.1647 -0.3411  1.1864
  434SOL     OW 1682   2.041   5.723   4.992  0.1007  0.3585  0.0156
  434SOL    HW1 1683   2.125   5.735   4.948  0.3642  2.1670  0.9597
  434SOL    HW2 1684   1.977   5.722   4.920  0.7836  0.3994 -0.6055
  435SOL     OW 1685   0.504   2.403   5.495 -0.1333 -0.1499 -0.2992
  435SOL    HW1 1686   0.466   2.471   5.439  1.7531  0.2447 -1.1627
  435SOL    HW2 1687   0.532   2.449   5.574  0.0105 -0.1539 -0.3481
  436SOL     OW 1688   3.433   2.993   1.069 -0.0595  0.2115 -0.3985
  436SOL    HW1 1689   3.512   2.998   1.122 -0.2695  1.3307 -0.1713
  436SOL    HW2 1690   3.455   3.042   0.989 -0.8434  1.3800  0.0921
  437SOL     OW 1691   3.957   2.690   5.321  0.0088  0.2121  0.0687
  437SOL    HW1 1692   3.906   2.624   5.274 -1.1370  0.7007  0.6016
  437SOL    HW2 1693   4.046   2.678   5.290 -0.2105 -1.4999  0.0549
  438SOL     OW 1694   0.262   0.521   2.594  0.5398 -0.3002 -0.6498
  438SOL    HW1 1695   0.198   0.574   2.641  0.6578 -0.1194 -0.6944
  438SOL    HW2 1696   0.322   0.490   2.662  0.3135 -0.6055 -0.5830
  439SOL     OW 1697   0.065   0.236   3.922 -0.1882  0.4317 -0.1924
  439SOL    HW1 1698  -0.015   0.218   3.972  0.5978 -2.5478  0.1105
  439SOL    HW2 1699   0.131   0.255   3.989 -0.3404  1.6071 -0.3745
  440SOL     OW 1700   4.092   1.899   4.405 -0.4726  0.0973 -0.0768
  440SOL    HW1 1701   4.108   1.818   4.357 -1.1613 -0.8305  1.2088
  440SOL    HW2 1702   4.178   1.940   4.413 -0.1779 -0.3300 -1.0627
  441SOL     OW 1703   2.432   3.659   0.751  0.1460 -0.5643 -0.1275
  441SOL    HW1 1704   2.413   3.573   0.790 -0.8553 -0.7202 -0.9350
  441SOL    HW2 1705   2.467   3.639   0.664 -0.4526 -0.1513 -0.4662
  442SOL     OW 1706   1.694   3.820   1.449 -0.0717  0.3260 -0.3070
  442SOL    HW1 1707   1.689   3.772   1.366  0.1209 -0.7946  0.3130
  442SOL    HW2 1708   1.786   3.847   1.455  0.4393 -1.4764  0.5445
  443SOL     OW 1709   1.092   5.457   4.051 -0.3226 -0.6693  0.9014
  443SOL    HW1 1710   1.105   5.492   3.963 -0.4820 -0.1296  1.0886
  443SOL    HW2 1711   1.001   5.427   4.052  0.0010 -1.6722  0.5419
  444SOL     OW 1712   4.568   4.393   2.085  0.5774 -0.5371  0.2867
  444SOL    HW1 1713   4.597   4.352   2.167 -1.2771 -0.6209  0.9320
  444SOL    HW2 1714   4.602   4.482   2.090 -0.5558 -0.1601  1.7523
  445SOL     OW 1715   4.925   2.987   1.481  0.1835  0.0579  0.5647
  445SOL    HW1 1716   4.859   2.974   1.412  0.6216 -1.3673  0.3859
  445SOL    HW2 1717   4.874   2.993   1.562 -0.2049 -0.4799  0.3630
  446SOL     OW 1718   4.784   0.969   4.846  0.2066 -0.1196 -0.2687
  446SOL    HW1 1719   4.794   0.989   4.752  0.1127 -0.0388 -0.2614
  446SOL    HW2 1720   4.868   0.930   4.871  0.4815  0.5069 -0.2236
  447SOL     OW 1721   2.499   4.770   4.360 -0.2652  0.5706  0.3027
  447SOL    HW1 1722   2.441   4.801   4.430 -1.5904 -1.3672  0.1015
  447SOL    HW2 1723   2.519   4.680   4.384  0.6747  0.4330 -0.9390
  448SOL     OW 1724   4.981   1.389   6.203 -0.0975  0.7320 -0.3921
  448SOL    HW1 1725   5.020   1.475   6.218  1.1222  0.1307 -0.0181
  448SOL    HW2 1726   4.898   1.392   6.250 -0.2727  1.8494 -0.7494
  449SOL     OW 1727   2.205   2.824   2.922 -0.0977  0.1076  0.1154
  449SOL    HW1 1728   2.145   2.791   2.856 -0.7703  0.8297  0.3615
  449SOL    HW2 1729   2.292   2.818   2.881 -0.8410  3.7966 -2.1760
  450SOL     OW 1730   1.280   5.114   2.092  0.5502 -0.7218 -0.5908
  450SOL    HW1 1731   1.326   5.034   2.119  0.4672 -0.0501  1.6530
  450SOL    HW2 1732   1.350   5.173   2.063  0.9799 -0.3491  1.1310
  451SOL     OW 1733   2.436   1.692   0.938  0.3469 -0.3769 -0.5393
  451SOL    HW1 1734   2.484   1.766   0.974  1.0483 -0.7100 -0.7897
  451SOL    HW2 1735   2.346   1.723   0.931  0.6518  0.4730 -0.6962
  452SOL     OW 1736   0.258   5.357   0.845 -0.2325  0.5014  0.0046
  452SOL    HW1 1737   0.229   5.423   0.907 -0.3406  0.0284  0.4644
  452SOL    HW2 1738   0.295   5.407   0.772  1.0463  1.0590  1.0054
  453SOL     OW 1739   0.390   3.025   4.719 -0.5010 -0.6326 -0.0680
  453SOL    HW1 1740   0.476   3.002   4.685 -1.0268 -1.4218 -0.8832
  453SOL    HW2 1741   0.404   3.042   4.812  0.1111 -3.2057  0.3563
  454SOL     OW 1742   2.710   4.541   4.485  0.5986 -0.7693  0.3935
  454SOL    HW1 1743   2.766   4.616   4.506 -3.0319  2.0643  0.3888
  454SOL    HW2 1744   2.716   4.533   4.389  0.2645  0.1134  0.2971
  455SOL     OW 1745   4.974   5.655   5.653  0.8443  0.0983  0.5585
  455SOL    HW1 1746   4.991   5.563   5.633 -2.1076 -0.8031  1.7623
  455SOL    HW2 1747   4.996   5.702   5.573 -0.1734 -2.0105 -1.0204
  456SOL     OW 1748   5.288   1.820   2.073 -0.0779 -0.0990  1.1783
  456SOL    HW1 1749   5.375   1.854   2.054  0.7214 -2.4280  0.3878
  456SOL    HW2 1750   5.280   1.823   2.168 -0.3031  2.7797  1.1057
  457SOL     OW 1751   2.117   1.480   0.855  0.4721 -0.1319  0.1456
  457SOL    HW1 1752   2.149   1.485   0.765 -4.7418  0.8162 -1.8176
  457SOL    HW2 1753   2.048   1.413   0.853  0.6676 -0.5445  3.6033
  458SOL     OW 1754   4.655   0.025   1.730 -0.0842 -0.2576 -0.0988
  458SOL    HW1 1755   4.651  -0.029   1.809 -2.8747 -1.9734 -1.3059
  458SOL    HW2 1756   4.734  -0.003   1.685 -0.8039 -2.5074 -0.0598
  459SOL     OW 1757   3.283   0.367   2.352 -0.3366 -0.1809 -0.1918
  459SOL    HW1 1758   3.366   0.415   2.351 -1.1190  1.1966 -1.0500
  459SOL    HW2 1759   3.289   0.311   2.429  0.8478  0.8893  0.5268
  460SOL     OW 1760   5.633   5.493   5.234  0.4661  0.3172 -0.0493
  460SOL    HW1 1761   5.618   5.410   5.188 -1.3158  0.3545  0.4313
  460SOL    HW2 1762   5.725   5.490   5.261  0.3506 -1.5901  0.1631
  461SOL     OW 1763   2.556   5.613   1.332  0.8204 -0.0113  0.0325
  461SOL    HW1 1764   2.569   5.526   1.295  0.4981  0.0280 -0.1671
  461SOL    HW2 1765   2.484   5.603   1.394 -1.0069  0.6762 -1.9290
  462SOL     OW 1766   1.993   2.949   2.117  0.2932 -0.1986  0.3576
  462SOL    HW1 1767   1.918   2.899   2.150  1.8887 -2.4525  0.6656
  462SOL    HW2 1768   1.999   2.925   2.025 -1.1422  2.2878 -0.4284
  463SOL     OW 1769   4.842   1.481   2.147  0.6238 -0.4268  0.1016
  463SOL    HW1 1770   4.819   1.510   2.059  0.2113 -2.8849 -0.6398
  463SOL    HW2 1771   4.908   1.543   2.177 -0.8379  1.7534 -1.0559
  464SOL     OW 1772   2.284   5.659   3.797 -0.3587  0.3348  0.2831
  464SOL    HW1 1773   2.330   5.737   3.828  0.6435  0.6306 -1.9201
  464SOL    HW2 1774   2.193   5.674   3.823  0.0203  1.7003  0.8821
  465SOL     OW 1775   6.278   4.911   1.570 -0.1206 -0.0048 -0.1093
  465SOL    HW1 1776   6.276   4.977   1.500 -0.7038 -0.4445 -0.5179
  465SOL    HW2 1777   6.298   4.829   1.524 -0.8671 -0.3563  0.1808
  466SOL     OW 1778   5.452   0.673   2.547  0.0539 -0.5364  0.3779
  466SOL    HW1 1779   5.444   0.668   2.642 -1.2824 -0.5445  0.2762
  466SOL    HW2 1780   5.472   0.765   2.529 -1.0779 -0.2489  0.5767
  467SOL     OW 1781   2.374   0.346   4.570 -0.1257  0.4989  0.9102
  467SOL    HW1 1782   2.402   0.255   4.564  1.2523  1.0552 -2.0881
  467SOL    HW2 1783   2.286   0.342   4.607 -0.3421 -2.0999  0.1843
  468SOL     OW 1784   0.536   0.570   6.277  0.5521  0.3143 -0.3242
  468SOL    HW1 1785   0.601   0.595   6.212 -1.0716  1.6489 -1.4803
  468SOL    HW2 1786   0.577   0.590   6.361  1.6555  1.0185 -1.0214
  469SOL     OW 1787   3.382   4.894   6.164 -0.3899  0.4866 -0.0866
  469SOL    HW1 1788   3.470   4.932   6.161 -0.3912  0.4180 -0.9720
  469SOL    HW2 1789   3.396   4.805   6.195  0.0003  0.0519 -1.4706
  470SOL     OW 1790   6.025   5.415   1.843  0.1160 -0.5932 -0.6087
  470SOL    HW1 1791   6.112   5.404   1.881 -0.0561  0.0825 -0.0217
  470SOL    HW2 1792   5.967   5.363   1.899  0.1253 -0.9928 -0.9633
  471SOL     OW 1793   3.798   3.929   1.079  0.5531  0.2243  0.1227
  471SOL    HW1 1794   3.728   3.988   1.049 -0.7348 -1.7499 -0.8414
  471SOL    HW2 1795   3.792   3.932   1.175  0.4241  1.5618  0.0825
  472SOL     OW 1796   5.385   6.308   6.078 -0.2472  0.0334  0.5889
  472SOL    HW1 1797   5.317   6.360   6.036  1.0866  1.2675 -0.0729
  472SOL    HW2 1798   5.386   6.225   6.030 -0.6672  0.3481  0.0396
  473SOL     OW 1799   3.598   5.343   2.914 -0.2494 -0.2695 -0.0991
  473SOL    HW1 1800   3.597   5.272   2.978 -1.4204  0.6740  0.9665
  473SOL    HW2 1801   3.682   5.387   2.930 -0.2376 -0.4422  0.3296
  474SOL     OW 1802   4.863   4.176   1.168  0.1183 -0.0488 -0.4191
  474SOL    HW1 1803   4.908   4.099   1.203 -1.7718 -1.2798 -0.6261
  474SOL    HW2 1804   4.771   4.151   1.166 -0.3845  1.8015 -1.6276
  475SOL     OW 1805   3.396   3.150   3.348 -0.0745  0.0696 -0.1960
  475SOL    HW1 1806   3.327   3.216   3.340 -0.9044 -0.8155 -0.4264
  475SOL    HW2 1807   3.353   3.075   3.389  1.0422 -0.0715  0.7466
  476SOL     OW 1808   1.678   4.635   2.871  0.3464  1.0822  0.2666
  476SOL    HW1 1809   1.733   4.692   2.817 -0.0308 -0.2978 -1.6540
  476SOL    HW2 1810   1.601   4.688   2.891  1.2754  2.1951  0.8922
  477SOL     OW 1811   2.482   3.781   1.000  0.0633 -0.0613 -0.4831
  477SOL    HW1 1812   2.443   3.760   0.915  0.1492  0.2192 -0.5921
  477SOL    HW2 1813   2.419   3.747   1.064  0.7086 -1.6121 -0.6479
  478SOL     OW 1814   4.362   6.029   5.894 -0.1269  0.0570 -0.4121
  478SOL    HW1 1815   4.447   6.072   5.904 -0.4461 -0.0037  3.2112
  478SOL    HW2 1816   4.302   6.100   5.872  0.8903 -0.0017 -3.7646
  479SOL     OW 1817   3.899   5.228   3.936  0.3506 -0.1393 -0.2466
  479SOL    HW1 1818   3.962   5.271   3.877  0.7184 -1.6733 -0.9891
  479SOL    HW2 1819   3.933   5.245   4.024  1.3827 -0.3134 -0.6074
  480SOL     OW 1820   3.907   0.534   2.908 -0.1917 -0.0074 -0.1019
  480SOL    HW1 1821   3.845   0.588   2.957  0.3786  0.4955  0.0699
  480SOL    HW2 1822   3.860   0.509   2.829 -0.3650  0.9754 -0.3123
  481SOL     OW 1823   5.653   4.220   3.611  0.1986 -0.0719 -0.7209
  481SOL    HW1 1824   5.584   4.163   3.576  0.3358 -0.4629 -0.3525
  481SOL    HW2 1825   5.628   4.307   3.581 -0.6056 -0.1714 -0.3638
  482SOL     OW 1826   4.446   2.587   4.036  0.2081 -0.3715 -0.3567
  482SOL    HW1 1827   4.382   2.551   3.975 -0.1631 -0.1072 -0.1293
  482SOL    HW2 1828   4.500   2.513   4.062 -0.7765 -0.8465  0.3943
  483SOL     OW 1829   5.092   1.715   0.997  0.0012  0.4766  0.3785
  483SOL    HW1 1830   5.020   1.665   1.034 -0.4959 -0.6138 -2.0130
  483SOL    HW2 1831   5.171   1.674   1.033 -0.4394 -1.3463 -0.6779
  484SOL     OW 1832   4.627   6.126   5.809  0.2170 -0.0825 -0.0357
  484SOL    HW1 1833   4.651   6.216   5.789 -0.9490  0.7381  2.1653
  484SOL    HW2 1834   4.691   6.097   5.873 -1.5129  0.3933  1.9446
  485SOL     OW 1835   5.942   1.221   3.848  0.6645  0.5002 -0.5080
  485SOL    HW1 1836   5.939   1.194   3.940  1.0756 -0.2303 -0.7068
  485SOL    HW2 1837   5.851   1.224   3.821  0.5985 -0.2894 -0.3687
  486SOL     OW 1838   5.958   2.564   4.779 -0.2542  0.1448 -0.2847
  486SOL    HW1 1839   5.927   2.596   4.863  1.3682  0.3391  0.2494
  486SOL    HW2 1840   5.957   2.640   4.721 -1.1180  0.0678 -0.3694
  487SOL     OW 1841   0.993   5.933   3.654  0.7259 -0.8473 -0.0788
  487SOL    HW1 1842   0.954   5.876   3.588  2.2538 -0.8202 -1.0476
  487SOL    HW2 1843   1.081   5.950   3.621  0.6109  1.3224  0.6513
  488SOL     OW 1844   3.367   4.663   0.170  0.1176  0.4420  0.3756
  488SOL    HW1 1845   3.433   4.672   0.102 -3.0447  0.5875 -2.8086
  488SOL    HW2 1846   3.350   4.753   0.199 -0.2478  0.6072 -0.3485
  489SOL     OW 1847   0.052   0.939   5.631 -0.5487  0.4041  0.4101
  489SOL    HW1 1848   0.119   0.911   5.693  2.0970  0.9115 -2.1416
  489SOL    HW2 1849   0.030   1.028   5.659  0.6988  0.6688  0.5825
  490SOL     OW 1850   2.886   1.075   5.296  0.1096  0.4134  0.2394
  490SOL    HW1 1851   2.862   1.164   5.270  0.7887  0.1279 -1.4104
  490SOL    HW2 1852   2.901   1.029   5.213  0.8663 -0.9229  1.1029
  491SOL     OW 1853   3.832   0.691   6.127  0.1344 -0.4051  0.6654
  491SOL    HW1 1854   3.825   0.750   6.053  0.9194  0.3762  1.2040
  491SOL    HW2 1855   3.863   0.609   6.090  1.9277  0.4140  0.3244
  492SOL     OW 1856   5.566   4.949   5.709 -0.2224  0.8033 -0.5884
  492SOL    HW1 1857   5.563   4.953   5.614 -2.0653 -1.1721 -0.6472
  492SOL    HW2 1858   5.638   4.888   5.728 -1.5582 -0.8555 -0.7956
  493SOL     OW 1859   6.190   3.432   3.356 -0.5663  0.1516 -0.3595
  493SOL    HW1 1860   6.164   3.522   3.335 -1.3449  0.0905  0.3388
  493SOL    HW2 1861   6.189   3.428   3.451 -2.4348 -1.1306 -0.4021
  494SOL     OW 1862   0.327   3.538   2.714  0.1562 -0.4681 -0.4798
  494SOL    HW1 1863   0.309   3.492   2.795  1.2050 -1.6593 -0.9144
  494SOL    HW2 1864   0.249   3.592   2.699  0.0889  0.0017  1.4672
  495SOL     OW 1865   3.898   5.317   2.768  0.1968 -0.4665 -0.6334
  495SOL    HW1 1866   3.869   5.393   2.819  2.5446 -1.4930  2.3485
  495SOL    HW2 1867   3.878   5.242   2.824  2.6299 -1.6431 -1.2815
  496SOL     OW 1868   5.123   4.370   2.269  0.2787  0.2447  0.1819
  496SOL    HW1 1869   5.094   4.365   2.361 -1.0890 -0.4255 -0.2763
  496SOL    HW2 1870   5.181   4.446   2.267 -2.0048  2.0688  1.0019
  497SOL     OW 1871   5.708   5.881   5.612 -0.5600 -0.6918  0.3347
  497SOL    HW1 1872   5.738   5.971   5.597 -2.9017  0.1689  0.6188
  497SOL    HW2 1873   5.661   5.859   5.532 -3.3275 -0.2291  1.7826
  498SOL     OW 1874   1.517   4.420   0.038  0.2846 -0.1464  0.2561
  498SOL    HW1 1875   1.570   4.346   0.006 -0.5310 -0.3259 -0.7165
  498SOL    HW2 1876   1.516   4.409   0.133 -0.0984 -1.5898  0.1016
  499SOL     OW 1877   1.594   3.543   6.171 -0.0306 -0.0726  0.0464
  499SOL    HW1 1878   1.612   3.620   6.226  0.5288  0.6651 -1.1652
  499SOL    HW2 1879   1.629   3.566   6.085  0.4006 -1.8041 -0.2528
  500SOL     OW 1880   4.961   0.054   1.270 -0.3626 -0.5955  0.4961
  500SOL    HW1 1881   4.972   0.149   1.278 -0.5990 -0.5802  0.6337
  500SOL    HW2 1882   5.047   0.018   1.293  0.3618 -0.3142 -1.6252
  501SOL     OW 1883   1.941   3.811   4.352 -0.0398 -0.5778 -0.3435
  501SOL    HW1 1884   1.946   3.897   4.395 -0.5677 -0.7657  0.1068
  501SOL    HW2 1885   1.903   3.754   4.419  0.6671 -1.2469 -0.5241
  502SOL     OW 1886   1.864   5.233   2.929 -0.3221  0.1479  0.1214
  502SOL    HW1 1887   1.784   5.194   2.892 -0.9379 -0.7817  2.3767
  502SOL    HW2 1888   1.900   5.165   2.986  1.0970  1.2370  0.5452
  503SOL     OW 1889   0.477   0.298   0.956 -0.3516 -0.3045  0.3014
  503SOL    HW1 1890   0.485   0.256   0.871  0.7525 -0.3911  0.4489
  503SOL    HW2 1891   0.412   0.246   1.003 -0.3696 -0.7277 -0.1990
  504SOL     OW 1892   3.031   3.355   0.687 -0.1617  0.4490 -0.0738
  504SOL    HW1 1893   3.080   3.317   0.760  0.5181  1.7286  0.1353
  504SOL    HW2 1894   2.957   3.296   0.676 -0.0115 -0.0326  1.3350
  505SOL     OW 1895   0.264   5.414   5.285 -0.1626 -0.2331  0.0188
  505SOL    HW1 1896   0.205   5.411   5.210 -1.6957  0.1398  1.1860
  505SOL    HW2 1897   0.221   5.361   5.353  1.2212 -0.6143  0.6342
  506SOL     OW 1898   5.090   1.160   6.179 -0.2246 -0.2850  0.1049
  506SOL    HW1 1899   5.051   1.247   6.189  2.0984  0.5228  2.5570
  506SOL    HW2 1900   5.184   1.177   6.167  0.4135 -2.4624  1.6935
  507SOL     OW 1901   4.896   1.530   2.652 -0.3884  0.0184  0.0926
  507SOL    HW1 1902   4.846   1.549   2.572 -0.0814  1.2348  0.1823
  507SOL    HW2 1903   4.843   1.465   2.699 -0.7952 -0.3527 -0.8726
  508SOL     OW 1904   5.972   2.097   3.005 -0.1664  0.0817  0.0370
  508SOL    HW1 1905   5.985   2.181   3.049 -0.5660  1.2997 -2.1067
  508SOL    HW2 1906   6.053   2.049   3.020  0.0390  0.7982  1.3398
  509SOL     OW 1907   2.695   4.751   2.621 -0.1815 -0.5448  0.2668
  509SOL    HW1 1908   2.648   4.786   2.544 -2.0070  1.1190  2.0808
  509SOL    HW2 1909   2.646   4.673   2.645 -0.2617 -0.4610  0.3787
  510SOL     OW 1910   1.812   3.801   5.280  0.6819  0.1118 -0.5446
  510SOL    HW1 1911   1.793   3.855   5.357 -0.1054 -2.3259  1.0180
  510SOL    HW2 1912   1.873   3.735   5.312  3.0975  1.1225 -2.8843
  511SOL     OW 1913   1.208   3.738   6.333 -0.1871 -0.1945 -0.3641
  511SOL    HW1 1914   1.285   3.711   6.383  0.6563  2.1735 -0.3110
  511SOL    HW2 1915   1.139   3.749   6.399  0.1737  0.2582 -0.0557
  512SOL     OW 1916   0.963   1.492   2.002  0.8465 -0.3625 -0.0011
  512SOL    HW1 1917   0.964   1.415   2.060 -0.3990  0.4348  1.0946
  512SOL    HW2 1918   0.892   1.474   1.940 -0.7074  0.7413  1.4292
  513SOL     OW 1919   3.220   2.084   1.660 -0.5850  0.3096 -0.2734
  513SOL    HW1 1920   3.231   2.152   1.593 -0.8991 -1.2544 -1.9513
  513SOL    HW2 1921   3.245   2.127   1.742  0.0641  2.1874 -1.4207
  514SOL     OW 1922   2.715   3.110   5.946  0.3202 -0.1890  0.1157
  514SOL    HW1 1923   2.741   3.043   5.884 -0.8799 -1.9610  1.4745
  514SOL    HW2 1924   2.789   3.171   5.948  1.0380 -0.9486 -1.8185
  515SOL     OW 1925   2.004   4.097   1.517  0.4909 -0.2340 -0.3332
  515SOL    HW1 1926   2.058   4.114   1.440  1.6175  0.7000  0.6373
  515SOL    HW2 1927   1.926   4.151   1.504  0.8763  0.2636 -0.6266
  516SOL     OW 1928   0.006   2.400   1.528 -0.0132 -0.1733  0.4447
  516SOL    HW1 1929   0.038   2.480   1.569  0.1353  0.7376 -1.4442
  516SOL    HW2 1930  -0.039   2.429   1.449 -0.7751 -1.8785  0.2219
  517SOL     OW 1931   4.140   3.910   5.686  0.0793  0.3629 -0.2196
  517SOL    HW1 1932   4.106   3.954   5.763 -0.6162 -1.4059  0.5280
  517SOL    HW2 1933   4.181   3.830   5.720  0.4708 -0.0334 -1.5923
  518SOL     OW 1934   0.612   0.942   5.338  0.1461 -0.3969 -0.5192
  518SOL    HW1 1935   0.602   0.905   5.425  1.4221 -0.6595 -0.4680
  518SOL    HW2 1936   0.599   1.036   5.350 -1.0278 -0.5752 -0.2946
  519SOL     OW 1937   5.386   0.041   5.166 -0.7142 -0.1682  0.3915
  519SOL    HW1 1938   5.336  -0.019   5.111 -0.8013  0.8521 -0.6477
  519SOL    HW2 1939   5.320   0.096   5.208 -0.5471  0.1991  0.1712
  520SOL     OW 1940   1.654   2.152   0.899  0.2241 -0.8118 -0.4674
  520SOL    HW1 1941   1.628   2.068   0.863  0.4901 -0.1539 -2.2257
  520SOL    HW2 1942   1.722   2.184   0.840 -0.7862  1.2376 -0.5756
  521SOL     OW 1943   0.394   0.421   5.671  0.8871  0.2518 -0.2035
  521SOL    HW1 1944   0.299   0.432   5.664  1.0518  1.6373 -0.3879
  521SOL    HW2 1945   0.418   0.374   5.591  0.5703  1.3888 -0.9813
  522SOL     OW 1946   2.244   0.803   2.555 -0.2393  0.1163 -0.0056
  522SOL    HW1 1947   2.335   0.821   2.531 -0.3926 -0.5813 -1.1754
  522SOL    HW2 1948   2.241   0.708   2.568 -1.1542 -0.1257 -1.6801
  523SOL     OW 1949   3.125   4.677   4.397  0.0093  0.5905 -0.1480
  523SOL    HW1 1950   3.142   4.696   4.489 -0.4259  0.8250 -0.1175
  523SOL    HW2 1951   3.119   4.582   4.392 -0.4817  0.6059  0.1528
  524SOL     OW 1952   5.659   3.469   6.286  0.5289 -0.1344  0.1354
  524SOL    HW1 1953   5.583   3.497   6.236  1.2110  1.0819 -0.2395
  524SOL    HW2 1954   5.624   3.445   6.372 -0.3183  0.0794 -0.1451
  525SOL     OW 1955   2.304   0.565   3.930  0.2193 -0.7437  0.4146
  525SOL    HW1 1956   2.390   0.592   3.961  0.1304  0.6653 -0.5113
  525SOL    HW2 1957   2.264   0.521   4.004  1.2757 -0.3289  1.2394
  526SOL     OW 1958   3.028   1.537   6.236 -0.4225 -0.1353 -0.0511
  526SOL    HW1 1959   2.993   1.625   6.223  1.1816  0.7488  1.3862
  526SOL    HW2 1960   2.978   1.502   6.310  1.5204  1.0470  1.8642
  527SOL     OW 1961   2.614   0.105   1.848  0.1513  0.3269  0.7010
  527SOL    HW1 1962   2.673   0.064   1.911  1.5779  2.2485  0.6843
  527SOL    HW2 1963   2.585   0.185   1.891 -4.1289 -1.5618  1.5327
  528SOL     OW 1964   3.579   5.497   2.100  0.5231 -0.1114  0.5141
  528SOL    HW1 1965   3.673   5.498   2.083  0.6894 -1.2788  1.3127
  528SOL    HW2 1966   3.540   5.473   2.015  1.0375 -1.0698  0.5438
  529SOL     OW 1967   0.290   2.144   4.413 -0.0653 -0.1622  0.9606
  529SOL    HW1 1968   0.332   2.094   4.343  1.7996  0.8145  1.3463
  529SOL    HW2 1969   0.274   2.081   4.483  0.9788 -0.5001  0.8951
  530SOL     OW 1970   5.505   6.148   0.407 -0.3555 -0.0692 -0.1422
  530SOL    HW1 1971   5.514   6.175   0.316  2.1118 -1.3642 -0.3120
  530SOL    HW2 1972   5.540   6.222   0.457  1.2881 -0.6417 -0.4014
  531SOL     OW 1973   3.324   4.615   4.666  0.4538 -0.0294 -0.6395
  531SOL    HW1 1974   3.404   4.667   4.673  0.3188 -0.0934  1.8368
  531SOL    HW2 1975   3.349   4.527   4.692 -0.3266 -0.1530 -0.2751
  532SOL     OW 1976   1.716   1.398   5.497 -0.0409 -0.3947  0.1126
  532SOL    HW1 1977   1.812   1.402   5.494 -0.0499 -0.8435 -0.8204
  532SOL    HW2 1978   1.687   1.486   5.471  0.1121 -0.2062  0.5644
  533SOL     OW 1979   0.848   5.435   5.725  0.3970 -0.0089  0.7386
  533SOL    HW1 1980   0.778   5.500   5.724  0.7829  0.4148  1.1616
  533SOL    HW2 1981   0.869   5.423   5.817  0.6652 -0.3755  0.6336
  534SOL     OW 1982   2.702   0.903   6.273 -0.2626 -0.3842 -0.3037
  534SOL    HW1 1983   2.712   0.984   6.323 -1.7736 -0.5681  0.3425
  534SOL    HW2 1984   2.641   0.926   6.203  0.4083 -0.6001 -0.9600
  535SOL     OW 1985   3.034   6.165   3.845  0.0106 -0.0439 -0.4489
  535SOL    HW1 1986   3.066   6.186   3.933 -1.9960  0.8203  0.0961
  535SOL    HW2 1987   3.072   6.232   3.789  1.0327 -0.4024 -0.2019
  536SOL     OW 1988   0.269   4.437   6.157  1.1479  0.0891  0.0196
  536SOL    HW1 1989   0.253   4.518   6.204  2.0900 -0.4196  1.2369
  536SOL    HW2 1990   0.234   4.368   6.214  4.6240 -0.7501  1.2178
  537SOL     OW 1991   0.458   1.428   1.054 -0.2684  0.5736  0.1148
  537SOL    HW1 1992   0.393   1.381   1.002  0.9429 -1.4454  0.3424
  537SOL    HW2 1993   0.520   1.462   0.989  0.0431 -0.0582  0.0703
  538SOL     OW 1994   0.113   0.802   3.465 -0.1094 -0.6809  0.4280
  538SOL    HW1 1995   0.062   0.724   3.487  1.1015 -1.8561 -0.8435
  538SOL    HW2 1996   0.047   0.869   3.448 -1.1897 -1.6588  0.6628
  539SOL     OW 1997   5.299   4.331   3.706 -0.1276  0.5934 -0.1501
  539SOL    HW1 1998   5.288   4.346   3.612 -3.0130  1.3918  0.2784
  539SOL    HW2 1999   5.243   4.257   3.726 -0.0899  0.8850  1.0778
  540SOL     OW 2000   3.852   0.236   5.454  0.0796  0.4360  0.1680
  540SOL    HW1 2001   3.848   0.261   5.546  1.4605  0.1770  0.3175
  540SOL    HW2 2002   3.768   0.195   5.436 -0.6286  1.4884  1.0180
  541SOL     OW 2003   0.051   2.051   0.045 -0.3251 -0.4143  0.4134
  541SOL    HW1 2004  -0.005   2.081  -0.026  1.6983  0.6148 -0.7942
  541SOL    HW2 2005   0.026   2.106   0.120  0.0222  1.0044 -0.4847
  542SOL     OW 2006   1.916   4.056   3.766  0.5450  0.0335  0.0108
  542SOL    HW1 2007   2.009   4.067   3.784  0.5126 -0.1224  0.2735
  542SOL    HW2 2008   1.914   4.001   3.687  0.6679 -0.8045  0.5833
  543SOL     OW 2009   3.170   4.267   1.030 -0.9482  0.8098 -0.3481
  543SOL    HW1 2010   3.228   4.213   1.085 -0.2828  1.4839 -0.3728
  543SOL    HW2 2011   3.082   4.234   1.049 -0.5254 -0.5051 -0.6230
  544SOL     OW 2012   2.157   3.503   1.367 -0.5589  0.2111 -0.5515
  544SOL    HW1 2013   2.157   3.407   1.373 -1.4580  0.1927 -0.7209
  544SOL    HW2 2014   2.159   3.532   1.459  0.4576  0.0453 -0.5100
  545SOL     OW 2015   1.616   2.034   5.504 -0.0106  0.2904 -0.3896
  545SOL    HW1 2016   1.580   1.996   5.424  0.2074 -2.2659  0.6651
  545SOL    HW2 2017   1.569   2.117   5.515 -1.1697 -0.0986 -2.3065
  546SOL     OW 2018   3.133   4.683   5.663 -0.6558  0.4511 -0.1269
  546SOL    HW1 2019   3.085   4.677   5.746  0.6901  0.3379  0.6565
  546SOL    HW2 2020   3.119   4.598   5.622  0.2282 -0.1811  0.8552
  547SOL     OW 2021   6.282   3.532   1.295  0.0329 -0.5015 -0.0276
  547SOL    HW1 2022   6.201   3.566   1.259  0.8068  1.2873 -0.1049
  547SOL    HW2 2023   6.259   3.502   1.383 -0.5552  0.6669  0.2175
  548SOL     OW 2024   4.766   5.403   3.727 -0.3064 -0.1311  0.2434
  548SOL    HW1 2025   4.776   5.421   3.633 -0.5131  0.8875  0.4090
  548SOL    HW2 2026   4.796   5.483   3.770 -0.8528 -0.3390  1.0240
  549SOL     OW 2027   1.944   0.458   0.303  0.0223  0.2570 -0.2804
  549SOL    HW1 2028   1.860   0.419   0.279 -0.4059  1.4336 -0.7335
  549SOL    HW2 2029   1.977   0.402   0.373 -1.6155  0.3830  0.6229
  550SOL     OW 2030   0.641   2.237   6.134 -0.0978 -0.3045 -0.1206
  550SOL    HW1 2031   0.664   2.251   6.042  3.1232  0.4158  0.7286
  550SOL    HW2 2032   0.632   2.142   6.142 -1.4614 -0.3003 -1.3900
  551SOL     OW 2033   4.102   5.538   3.044 -0.1173  0.3709  0.1914
  551SOL    HW1 2034   4.161   5.496   2.982  0.1855 -1.9332  1.9608
  551SOL    HW2 2035   4.017   5.538   2.999  0.5347  0.7077 -1.0652
  552SOL     OW 2036   2.638   0.166   0.756 -0.5343  0.1767 -0.1314
  552SOL    HW1 2037   2.704   0.110   0.796 -0.1601  0.7990  0.1351
  552SOL    HW2 2038   2.573   0.179   0.825 -1.4107 -1.1690 -0.6731
  553SOL     OW 2039   5.080   0.876   0.234 -0.0924 -0.1412 -0.1533
  553SOL    HW1 2040   5.116   0.827   0.308  1.4540 -0.1576 -0.8799
  553SOL    HW2 2041   4.998   0.832   0.212  0.2748 -1.1510  0.4984
  554SOL     OW 2042   2.126   3.460   2.342  0.0649 -0.4888 -0.0151
  554SOL    HW1 2043   2.161   3.419   2.421 -0.4822 -0.3335  0.3045
  554SOL    HW2 2044   2.197   3.515   2.309  0.2023 -0.3615  0.5028
  555SOL     OW 2045   1.151   5.480   6.326  0.3948 -0.2378 -0.6760
  555SOL    HW1 2046   1.227   5.520   6.282  0.7263 -1.0586 -0.8865
  555SOL    HW2 2047   1.185   5.395   6.357 -0.0095  0.0817  0.6453
  556SOL     OW 2048   1.747   5.031   2.374  0.0127 -0.0116 -0.1187
  556SOL    HW1 2049   1.714   5.115   2.343  0.6048  0.2918  0.0766
  556SOL    HW2 2050   1.802   4.998   2.302 -1.7617 -1.1430 -1.0037
  557SOL     OW 2051   1.657   1.987   3.256  0.0068 -0.9229 -0.6508
  557SOL    HW1 2052   1.579   1.948   3.295 -0.3284  0.3161 -0.0307
  557SOL    HW2 2053   1.672   2.066   3.308 -0.4351  0.7691 -3.0032
  558SOL     OW 2054   3.107   5.273   0.171 -0.0193 -0.1037 -0.3146
  558SOL    HW1 2055   3.073   5.201   0.118 -0.2971  0.3303 -0.7371
  558SOL    HW2 2056   3.031   5.330   0.185  0.0583 -0.2173  0.5501
  559SOL     OW 2057   1.490   0.853   0.356  0.3846 -0.2093  0.1243
  559SOL    HW1 2058   1.469   0.934   0.310  0.3086  0.0290  0.5679
  559SOL    HW2 2059   1.520   0.793   0.288 -2.0998 -0.6881 -0.5969
  560SOL     OW 2060   3.745   0.395   5.951  0.1969 -0.3536  0.1352
  560SOL    HW1 2061   3.691   0.333   6.000  0.9511 -1.0425  0.1133
  560SOL    HW2 2062   3.683   0.452   5.907 -0.5028 -0.7892  0.5544
  561SOL     OW 2063   5.047   5.860   5.033 -0.2113  0.2826 -0.2846
  561SOL    HW1 2064   5.141   5.871   5.017  0.2325  2.2130  3.1197
  561SOL    HW2 2065   5.038   5.770   5.064  0.5415  0.1027 -0.5835
  562SOL     OW 2066   5.279   4.772   1.592  0.3367  0.0983 -0.1024
  562SOL    HW1 2067   5.251   4.813   1.510  0.9290 -0.3788 -0.5450
  562SOL    HW2 2068   5.374   4.781   1.593  0.3666 -0.2098  0.3663
  563SOL     OW 2069   1.720   1.085   4.440  0.4340  0.3858  0.9226
  563SOL    HW1 2070   1.731   1.154   4.374  1.2757  0.0134  0.6602
  563SOL    HW2 2071   1.805   1.040   4.441 -0.8043 -2.0953 -0.5660
  564SOL     OW 2072   4.289   4.196   5.639 -0.6416  0.0644 -0.0193
  564SOL    HW1 2073   4.338   4.149   5.707 -2.5157 -2.4499 -0.3279
  564SOL    HW2 2074   4.337   4.277   5.627  0.6632 -0.1461  3.1611
  565SOL     OW 2075   2.286   5.115   5.251 -0.2059  0.1877 -0.6079
  565SOL    HW1 2076   2.192   5.100   5.247  0.1001 -1.9259 -0.5069
  565SOL    HW2 2077   2.323   5.031   5.278  1.8001  0.6509 -1.7583
  566SOL     OW 2078   3.479   4.379   5.387  0.1937 -0.0362 -0.3101
  566SOL    HW1 2079   3.531   4.444   5.433  0.7853  0.5164 -1.7541
  566SOL    HW2 2080   3.397   4.424   5.365  0.6633  0.2673 -1.4406
  567SOL     OW 2081   1.366   2.085   3.886 -0.0777  0.8497  0.1582
  567SOL    HW1 2082   1.330   2.114   3.802  1.1741  1.5463 -0.1464
  567SOL    HW2 2083   1.372   1.990   3.878 -0.4757  0.8639 -0.3329
  568SOL     OW 2084   5.605   3.585   1.506 -0.4130 -0.0606 -0.7458
  568SOL    HW1 2085   5.548   3.573   1.582 -0.8457 -0.5132 -1.1327
  568SOL    HW2 2086   5.576   3.667   1.466  1.1339  1.2049  0.6999
  569SOL     OW 2087   0.382   1.431   5.962 -0.6437  0.0652 -1.3053
  569SOL    HW1 2088   0.367   1.429   6.056 -0.0194 -0.0805 -1.2063
  569SOL    HW2 2089   0.311   1.379   5.925 -2.4897  2.3808 -1.1407
  570SOL     OW 2090   5.604   0.106   6.162  0.1994  0.4431  0.0004
  570SOL    HW1 2091   5.514   0.072   6.164  0.0127  0.9547  0.2632
  570SOL    HW2 2092   5.643   0.062   6.086 -0.7286  1.3560 -1.0334
  571SOL     OW 2093   3.819   2.308   3.224  0.2018  0.7138  0.2471
  571SOL    HW1 2094   3.726   2.289   3.232  0.9943 -3.4632  0.7970
  571SOL    HW2 2095   3.853   2.300   3.313  1.3534  0.3160 -0.2155
  572SOL     OW 2096   4.117   2.446   1.635  0.5318  0.4109  0.2861
  572SOL    HW1 2097   4.144   2.374   1.693  1.0383  0.8640  0.6261
  572SOL    HW2 2098   4.041   2.485   1.679  2.4304  2.3446  1.9862
  573SOL     OW 2099   4.529   2.565   0.122 -0.3690 -0.4101 -0.1506
  573SOL    HW1 2100   4.523   2.659   0.140  0.9852 -0.4081  0.3720
  573SOL    HW2 2101   4.538   2.559   0.027 -0.0969  0.0233 -0.1566
  574SOL     OW 2102   5.249   5.554   1.921  0.5939  0.2094  0.2980
  574SOL    HW1 2103   5.306   5.603   1.862 -0.7288  1.1776 -0.2141
  574SOL    HW2 2104   5.171   5.536   1.870 -0.0505 -0.0671  1.3575
  575SOL     OW 2105   3.989   2.014   5.661  0.2729  0.2072  0.0398
  575SOL    HW1 2106   3.983   2.015   5.757  2.9122 -0.5393  0.2460
  575SOL    HW2 2107   3.961   1.925   5.637  0.1089  0.2256  0.1576
  576SOL     OW 2108   4.899   0.359   2.246 -0.5316  0.3953  0.6564
  576SOL    HW1 2109   4.826   0.322   2.296 -2.3512  2.9690 -0.0284
  576SOL    HW2 2110   4.903   0.305   2.167 -2.3265  0.8352  0.2483
  577SOL     OW 2111   3.264   2.462   0.679 -0.1543  0.0859 -0.3546
  577SOL    HW1 2112   3.302   2.374   0.690 -0.4137 -0.1483 -1.2383
  577SOL    HW2 2113   3.337   2.516   0.649  0.1842  0.3604  0.9229
  578SOL     OW 2114   3.075   4.221   4.871  0.2807  0.5182  0.5752
  578SOL    HW1 2115   3.062   4.276   4.793  0.3079 -0.1653  0.0817
  578SOL    HW2 2116   3.100   4.136   4.836  2.6209  0.8429  1.4119
  579SOL     OW 2117   0.819   2.526   4.887  0.5980  0.2237 -0.2236
  579SOL    HW1 2118   0.775   2.611   4.893 -0.9092 -0.7066  3.6397
  579SOL    HW2 2119   0.900   2.545   4.840  0.0348  3.7203  0.0470
  580SOL     OW 2120   1.101   1.895   1.130 -0.0790  0.2723 -0.4483
  580SOL    HW1 2121   1.105   1.838   1.052  1.9113  0.9413 -0.8786
  580SOL    HW2 2122   1.038   1.962   1.107 -0.5580 -0.3323 -0.9308
  581SOL     OW 2123   2.032   3.140   5.156 -0.4132  0.0835 -0.5176
  581SOL    HW1 2124   2.119   3.116   5.188 -0.0576  1.7653 -0.1555
  581SOL    HW2 2125   2.049   3.200   5.084 -1.2696  0.2486 -0.5857
  582SOL     OW 2126   0.220   2.504   4.574  0.0472  0.3158  0.1947
  582SOL    HW1 2127   0.212   2.539   4.486 -2.9215  1.4750  0.8579
  582SOL    HW2 2128   0.137   2.526   4.616 -0.0200 -3.3986  2.1659
  583SOL     OW 2129   4.509   4.941   4.477  0.4904 -0.0398  0.3848
  583SOL    HW1 2130   4.535   4.990   4.556  0.9775  0.4665 -0.0830
  583SOL    HW2 2131   4.591   4.904   4.444  0.3942  0.3004 -0.2522
  584SOL     OW 2132   4.737   5.004   5.579 -0.6089  0.8652 -0.4041
  584SOL    HW1 2133   4.796   5.025   5.651  0.5188 -1.5365 -0.5756
  584SOL    HW2 2134   4.697   4.921   5.603 -0.2808  0.0613 -2.4902
  585SOL     OW 2135   2.232   2.962   4.251 -0.2550 -0.1951 -0.2243
  585SOL    HW1 2136   2.317   3.006   4.248 -0.0434 -0.6195 -0.5321
  585SOL    HW2 2137   2.169   3.033   4.261  0.0828  0.1816 -0.7016
  586SOL     OW 2138   0.527   6.266   5.216 -0.6776 -0.3052 -0.4702
  586SOL    HW1 2139   0.575   6.344   5.245 -0.6584 -0.4122 -0.2175
  586SOL    HW2 2140   0.492   6.291   5.131 -0.3899 -0.1355 -0.5406
  587SOL     OW 2141   6.186   5.222   0.393  0.0178  0.0315  0.2565
  587SOL    HW1 2142   6.133   5.230   0.314  1.0271 -0.2975 -0.4525
  587SOL    HW2 2143   6.180   5.129   0.416  1.0175 -0.1814 -0.3339
  588SOL     OW 2144   1.982   1.218   5.402  0.4198 -0.3820 -0.1757
  588SOL    HW1 2145   2.012   1.180   5.484 -0.5517 -1.2582 -0.2076
  588SOL    HW2 2146   2.043   1.290   5.384  2.1954 -1.7933  0.0039
  589SOL     OW 2147   5.816   0.332   5.304 -0.1434  0.6652  0.4270
  589SOL    HW1 2148   5.856   0.285   5.230 -0.5006  1.3218 -0.1907
  589SOL    HW2 2149   5.726   0.348   5.275 -0.2924  0.8937  1.0280
  590SOL     OW 2150   0.408   3.483   1.009  0.3450 -0.5123 -0.2280
  590SOL    HW1 2151   0.445   3.411   0.959 -0.6506 -1.0455 -0.2080
  590SOL    HW2 2152   0.399   3.449   1.098 -1.0779 -0.7363 -0.4312
  591SOL     OW 2153   0.270   4.607   1.288 -0.7236  0.0846 -0.4729
  591SOL    HW1 2154   0.351   4.629   1.334  0.4080 -1.3191 -1.7387
  591SOL    HW2 2155   0.282   4.516   1.260 -3.5266 -0.7884  0.9853
  592SOL     OW 2156   5.411   4.505   3.349 -0.1382  0.3307  0.0468
  592SOL    HW1 2157   5.468   4.532   3.422 -0.0558 -0.3874  0.2554
  592SOL    HW2 2158   5.391   4.586   3.303 -0.1533  0.7874  0.8450
  593SOL     OW 2159   0.312   5.128   2.447 -0.3166 -0.2455  0.3890
  593SOL    HW1 2160   0.397   5.115   2.407 -1.0739  1.5553 -1.9072
  593SOL    HW2 2161   0.253   5.069   2.400 -0.1789 -2.3119  2.7103
  594SOL     OW 2162   5.526   2.500   1.318  0.1516 -0.0335 -0.1616
  594SOL    HW1 2163   5.549   2.407   1.310 -1.8556 -0.4881 -0.8359
  594SOL    HW2 2164   5.554   2.524   1.406 -0.7398 -1.6827  0.5923
  595SOL     OW 2165   1.461   0.232   5.017 -0.2070  0.0906 -0.2109
  595SOL    HW1 2166   1.537   0.291   5.024  0.8255 -1.5205  3.6507
  595SOL    HW2 2167   1.386   0.291   5.013  0.9198  1.7314  1.6791
  596SOL     OW 2168   1.382   4.660   6.335 -0.6014  0.0686 -0.4501
  596SOL    HW1 2169   1.428   4.589   6.381 -0.9732 -0.0102 -0.2029
  596SOL    HW2 2170   1.321   4.615   6.276  1.8651  0.0807 -3.1480
  597SOL     OW 2171   3.005   6.081   6.029  0.1478  0.1045  0.5711
  597SOL    HW1 2172   3.060   6.063   6.105  1.1021 -2.7808 -0.7394
  597SOL    HW2 2173   3.067   6.106   5.960 -0.7364  3.0719  0.7897
  598SOL     OW 2174   4.550   0.956   0.460 -0.4070  0.1932 -0.2458
  598SOL    HW1 2175   4.544   0.926   0.370 -2.6363 -1.0528  0.2818
  598SOL    HW2 2176   4.563   0.877   0.512 -0.0223  0.8065  0.6144
  599SOL     OW 2177   0.095   1.742   2.715  0.3339  0.1943 -0.4062
  599SOL    HW1 2178   0.131   1.802   2.650  0.6433 -1.6391 -1.9753
  599SOL    HW2 2179   0.004   1.769   2.726  0.4073  0.8031 -1.2569
  600SOL     OW 2180   4.676   4.634   2.112  0.5125  0.1694 -0.3638
  600SOL    HW1 2181   4.623   4.713   2.122  0.9586  0.2513  1.6603
  600SOL    HW2 2182   4.762   4.667   2.084  0.8484  0.4729  0.9781
  601SOL     OW 2183   4.796   1.851   0.991 -0.2081 -0.5357 -0.4539
  601SOL    HW1 2184   4.871   1.884   1.041 -0.2737 -0.6235 -0.2970
  601SOL    HW2 2185   4.730   1.920   0.998 -0.4887 -0.8667  0.2004
  602SOL     OW 2186   3.682   0.597   3.059 -0.2820  0.3668  0.1149
  602SOL    HW1 2187   3.682   0.679   3.109 -0.6901  1.6495 -1.9468
  602SOL    HW2 2188   3.622   0.612   2.987  0.4788 -1.3703 -0.9338
  603SOL     OW 2189   4.415   2.562   2.389  0.6630  0.1277  0.1543
  603SOL    HW1 2190   4.488   2.501   2.404 -0.2937 -1.1590 -0.3071
  603SOL    HW2 2191   4.338   2.505   2.382 -0.3146  1.4390  0.1400
  604SOL     OW 2192   4.760   1.256   2.865 -0.5698 -0.0918  0.0186
  604SOL    HW1 2193   4.696   1.281   2.931  1.3306  1.4204  1.3520
  604SOL    HW2 2194   4.712   1.263   2.782 -2.3809  0.0740  1.0478
  605SOL     OW 2195   1.612   4.762   2.195  0.1247  0.1201 -0.2097
  605SOL    HW1 2196   1.664   4.727   2.122  1.0568 -2.1501  1.4945
  605SOL    HW2 2197   1.672   4.819   2.243  0.3305 -0.5552  0.3438
  606SOL     OW 2198   3.419   1.711   3.070 -0.1176 -0.5706 -0.3494
  606SOL    HW1 2199   3.343   1.739   3.121  0.4815  0.0118  0.2489
  606SOL    HW2 2200   3.397   1.734   2.979 -0.2607  0.4776 -0.0546
  607SOL     OW 2201   3.637   1.503   6.159 -0.2001 -0.3317  0.2968
  607SOL    HW1 2202   3.716   1.554   6.176 -0.1987 -0.5047  0.8030
  607SOL    HW2 2203   3.652   1.420   6.204 -0.1494 -0.8239 -0.6151
  608SOL     OW 2204   1.727   4.183   1.134  1.1027 -0.2332 -0.3639
  608SOL    HW1 2205   1.814   4.150   1.111  1.2385  0.7683 -1.2961
  608SOL    HW2 2206   1.705   4.245   1.065 -0.6531 -0.9789 -0.5101
  609SOL     OW 2207   2.936   5.461   0.821 -0.3334  0.3633 -0.2563
  609SOL    HW1 2208   2.896   5.393   0.767 -0.9487 -0.9479  1.7887
  609SOL    HW2 2209   2.997   5.506   0.762 -1.4667 -0.5882 -2.1933
  610SOL     OW 2210   0.343   1.317   6.242 -0.6977  0.1224  0.2253
  610SOL    HW1 2211   0.426   1.363   6.244 -0.8235  0.4735 -1.5089
  610SOL    HW2 2212   0.283   1.372   6.292 -0.4736  1.1190 -0.5753
  611SOL     OW 2213   5.464   2.911   4.108  0.2717  0.0450 -0.8632
  611SOL    HW1 2214   5.528   2.982   4.113  1.0614 -0.6361 -1.3072
  611SOL    HW2 2215   5.379   2.956   4.114  0.7327  1.1055 -1.9707
  612SOL     OW 2216   1.717   6.280   5.096 -0.4919  0.3065  0.2377
  612SOL    HW1 2217   1.764   6.356   5.132 -1.9856  1.2741  0.2081
  612SOL    HW2 2218   1.768   6.256   5.019 -0.6668  2.0783 -0.4700
  613SOL     OW 2219   2.521   3.031   5.119 -0.2122  0.0311  0.0286
  613SOL    HW1 2220   2.478   2.948   5.096  1.6748 -1.1635  0.6183
  613SOL    HW2 2221   2.534   3.075   5.035 -0.4460 -0.6942 -0.3967
  614SOL     OW 2222   0.049   0.710   2.665 -0.2451  0.2781 -0.2104
  614SOL    HW1 2223  -0.016   0.671   2.607  1.1076 -1.5798 -0.5078
  614SOL    HW2 2224   0.098   0.771   2.610 -0.4294  0.1958 -0.4646
  615SOL     OW 2225   2.277   1.352   2.823 -0.4804 -0.3745  0.2326
  615SOL    HW1 2226   2.241   1.287   2.884 -1.3352 -2.4501 -2.3331
  615SOL    HW2 2227   2.324   1.299   2.758  0.0816  1.7080 -1.0998
  616SOL     OW 2228   0.190   1.534   6.336 -0.6210  0.3034 -0.1762
  616SOL    HW1 2229   0.117   1.509   6.279 -0.7714  1.4933 -0.5280
  616SOL    HW2 2230   0.174   1.627   6.355 -0.7405 -0.1519  2.0635
  617SOL     OW 2231   3.047   3.730   3.103 -0.2397  0.3910  0.1610
  617SOL    HW1 2232   3.034   3.822   3.080 -1.3352  0.2392  0.1485
  617SOL    HW2 2233   2.960   3.700   3.131  0.0556 -0.6988 -0.0759
  618SOL     OW 2234   3.338   3.139   5.318 -0.1242  0.9191  0.9366
  618SOL    HW1 2235   3.383   3.155   5.235  0.8711 -0.3804  1.2052
  618SOL    HW2 2236   3.341   3.222   5.365  1.7123  0.9263  0.8068
  619SOL     OW 2237   0.495   1.495   2.660 -0.7624 -0.1365 -0.1567
  619SOL    HW1 2238   0.445   1.413   2.655 -1.6749  0.3984  0.1030
  619SOL    HW2 2239   0.432   1.560   2.691  0.1347  0.5212  0.3032
  620SOL     OW 2240   4.495   6.363   3.570  0.0597  0.3185  0.5735
  620SOL    HW1 2241   4.542   6.281   3.560  0.2790  0.3733  1.1283
  620SOL    HW2 2242   4.550   6.415   3.628  0.4583  1.2757 -0.6286
  621SOL     OW 2243   6.145   2.954   3.566  0.4162  0.1239 -0.8568
  621SOL    HW1 2244   6.177   2.864   3.569  0.2562  0.0552 -1.1511
  621SOL    HW2 2245   6.215   3.004   3.524 -0.0385 -0.1074 -1.9072
  622SOL     OW 2246   1.059   2.347   3.668 -0.0661 -0.4805 -0.2153
  622SOL    HW1 2247   0.964   2.358   3.667 -0.2188 -1.7019  0.4953
  622SOL    HW2 2248   1.084   2.365   3.758  0.2251 -1.4303 -0.1061
  623SOL     OW 2249   1.016   2.076   4.207 -0.8135 -0.2992 -1.1069
  623SOL    HW1 2250   1.041   2.020   4.281  0.4933  0.3685 -1.0460
  623SOL    HW2 2251   1.097   2.094   4.161 -0.9348  2.9446 -0.1719
  624SOL     OW 2252   2.709   2.905   6.135  0.1775 -0.2925 -0.1501
  624SOL    HW1 2253   2.740   2.853   6.060 -0.3033  1.0877 -1.3197
  624SOL    HW2 2254   2.691   2.991   6.099 -3.1252 -0.4639  0.8860
  625SOL     OW 2255   3.277   3.800   2.510 -0.6970  0.4979  0.1720
  625SOL    HW1 2256   3.242   3.756   2.432 -2.0033  1.1923  0.3512
  625SOL    HW2 2257   3.369   3.815   2.490 -0.8372 -0.0427 -0.9186
  626SOL     OW 2258   2.503   2.434   2.336  0.5735 -0.2734 -0.4427
  626SOL    HW1 2259   2.573   2.499   2.331  0.9544 -0.5420  1.0537
  626SOL    HW2 2260   2.424   2.481   2.312  1.1493  0.2437 -1.3352
  627SOL     OW 2261   2.209   2.624   4.339 -0.0995  0.1106 -0.4501
  627SOL    HW1 2262   2.146   2.574   4.390  1.1927  0.0684  1.1442
  627SOL    HW2 2263   2.206   2.585   4.252 -0.7253 -1.2715  0.1847
  628SOL     OW 2264   5.870   4.701   2.715  0.2386  0.0825 -0.1956
  628SOL    HW1 2265   5.813   4.642   2.764  0.7298 -0.6540 -0.5022
  628SOL    HW2 2266   5.933   4.643   2.672  1.1186  0.8820  0.0118
  629SOL     OW 2267   4.699   4.223   3.114 -0.4542  0.3573 -0.2380
  629SOL    HW1 2268   4.650   4.168   3.174  2.4865 -2.4977 -0.2985
  629SOL    HW2 2269   4.733   4.163   3.048  0.3117  2.7260 -2.0814
  630SOL     OW 2270   5.433   0.975   3.341 -0.2236 -0.6380  0.8770
  630SOL    HW1 2271   5.471   1.063   3.333 -2.9997  0.5519  0.3252
  630SOL    HW2 2272   5.480   0.922   3.276 -1.1686  1.3880 -1.5384
  631SOL     OW 2273   3.479   5.048   3.799 -0.1858  0.5081 -0.7525
  631SOL    HW1 2274   3.569   5.081   3.794 -0.6715  1.9968 -0.0981
  631SOL    HW2 2275   3.478   4.993   3.878 -0.4471  2.4783  0.6561
  632SOL     OW 2276   4.855   0.676   2.445 -0.6413 -0.3533 -0.4458
  632SOL    HW1 2277   4.888   0.636   2.526 -2.0126  1.0009  0.8221
  632SOL    HW2 2278   4.930   0.675   2.386 -0.1197 -3.0738  0.1701
  633SOL     OW 2279   6.028   2.971   4.416  0.2198 -0.1920 -0.1392
  633SOL    HW1 2280   5.963   3.000   4.351 -3.0588 -3.2772  1.5864
  633SOL    HW2 2281   6.053   2.884   4.388  1.2356 -0.2607  0.9579
  634SOL     OW 2282   1.789   1.975   0.247 -0.3962 -1.0328  0.4475
  634SOL    HW1 2283   1.699   1.945   0.260 -1.5323 -0.5493 -5.1691
  634SOL    HW2 2284   1.782   2.070   0.241  0.6530 -0.9226  0.7803
  635SOL     OW 2285   1.378   2.999   0.199 -0.1337  0.2839  0.2501
  635SOL    HW1 2286   1.464   3.024   0.233 -0.3669 -1.2602  2.0454
  635SOL    HW2 2287   1.384   2.904   0.185 -1.4859  0.1882  0.2475
  636SOL     OW 2288   4.818   5.646   6.309 -0.6973 -0.4713  0.1398
  636SOL    HW1 2289   4.872   5.577   6.271  0.7898  0.3403  0.7431
  636SOL    HW2 2290   4.808   5.621   6.401  1.0967  0.8725  0.7120
  637SOL     OW 2291   5.187   2.089   1.380  0.2003  0.1930  0.5938
  637SOL    HW1 2292   5.264   2.142   1.358  0.5184  0.2625  1.8427
  637SOL    HW2 2293   5.134   2.144   1.437 -0.6101  0.0097  0.0327
  638SOL     OW 2294   4.937   0.181   2.747  0.2054  0.4809  0.1018
  638SOL    HW1 2295   4.959   0.100   2.701  0.7654  0.2304  0.7901
  638SOL    HW2 2296   4.865   0.219   2.697  0.5700  0.0335 -0.7645
  639SOL     OW 2297   4.759   5.121   3.656 -0.0199  0.4960  0.1932
  639SOL    HW1 2298   4.668   5.101   3.634 -0.0152  1.5804 -0.8964
  639SOL    HW2 2299   4.757   5.212   3.687  0.6448  0.4378  0.4293
  640SOL     OW 2300   0.869   0.228   6.200  0.1586  0.4048  0.6483
  640SOL    HW1 2301   0.807   0.285   6.154 -0.3186  1.4194  2.5045
  640SOL    HW2 2302   0.943   0.285   6.219 -0.1594  0.3111  2.1809
  641SOL     OW 2303   3.714   3.663   4.734 -0.0331 -0.1606 -0.4061
  641SOL    HW1 2304   3.735   3.642   4.643 -1.7757  0.4985 -0.9818
  641SOL    HW2 2305   3.774   3.733   4.757 -0.1053  0.1960 -1.3005
  642SOL     OW 2306   6.129   4.624   2.648 -0.1960  0.0928 -0.7468
  642SOL    HW1 2307   6.185   4.684   2.697 -1.1839 -0.2160  0.7646
  642SOL    HW2 2308   6.152   4.641   2.556  2.2347  0.0943 -0.1806
  643SOL     OW 2309   3.820   3.880   2.667 -0.1434 -0.6963 -0.5097
  643SOL    HW1 2310   3.780   3.959   2.631 -0.9049 -1.0063 -0.3532
  643SOL    HW2 2311   3.787   3.875   2.757  0.0627 -1.0798 -0.4519
  644SOL     OW 2312   3.351   5.693   1.576  0.0775  0.8988  0.1535
  644SOL    HW1 2313   3.410   5.621   1.600 -1.0551 -0.2553 -0.4817
  644SOL    HW2 2314   3.391   5.731   1.497  0.8515  1.1882  0.6802
  645SOL     OW 2315   2.940   4.003   1.494 -0.8385 -0.0174  0.1306
  645SOL    HW1 2316   2.851   3.974   1.473 -1.0246  1.6339 -1.4484
  645SOL    HW2 2317   2.996   3.953   1.435 -0.7101 -0.9214  0.9977
  646SOL     OW 2318   0.123   0.036   2.428 -0.2971 -0.1009  0.4533
  646SOL    HW1 2319   0.079  -0.040   2.466 -1.5879 -0.2422 -1.2830
  646SOL    HW2 2320   0.059   0.073   2.368  2.2320 -0.8837 -2.8891
  647SOL     OW 2321   4.767   2.001   4.312 -0.8667 -0.1086 -0.1995
  647SOL    HW1 2322   4.738   2.089   4.334  0.2640  0.6932 -1.8405
  647SOL    HW2 2323   4.847   2.014   4.261 -1.3580 -2.0392 -1.5178
  648SOL     OW 2324   4.017   4.864   1.542 -0.1413  0.0657 -0.4595
  648SOL    HW1 2325   4.041   4.771   1.544  1.2237  0.4322  1.9850
  648SOL    HW2 2326   4.078   4.903   1.479 -0.0358 -0.5169 -0.7206
  649SOL     OW 2327   2.235   2.173   2.428 -0.1623  0.4406  0.1100
  649SOL    HW1 2328   2.253   2.083   2.400  2.2208  0.6401  0.9417
  649SOL    HW2 2329   2.141   2.185   2.409  0.1725 -1.1250 -2.9800
  650SOL     OW 2330   0.016   1.164   3.862  0.2889 -0.4679 -0.1326
  650SOL    HW1 2331  -0.018   1.145   3.949 -0.3385 -0.5125 -0.3851
  650SOL    HW2 2332   0.110   1.145   3.868 -0.1182 -2.6525 -0.0662
  651SOL     OW 2333   3.384   4.102   4.733  0.0889 -0.0749 -0.1909
  651SOL    HW1 2334   3.360   4.010   4.722  0.6669 -0.0422 -1.9366
  651SOL    HW2 2335   3.479   4.101   4.743  0.1606  0.3671 -0.7787
  652SOL     OW 2336   2.119   0.342   0.479  0.2634  0.1271  0.5574
  652SOL    HW1 2337   2.152   0.314   0.394 -0.5874  0.4843  0.0972
  652SOL    HW2 2338   2.195   0.378   0.524  1.1021 -1.7651  0.6687
  653SOL     OW 2339   2.394   5.628   2.388  0.4566 -0.1286  0.5961
  653SOL    HW1 2340   2.300   5.641   2.400  0.6136  0.3753  1.2973
  653SOL    HW2 2341   2.405   5.623   2.293  0.0496  2.3532  0.3693
  654SOL     OW 2342   1.154   3.945   0.299 -0.0586  0.3489 -0.1653
  654SOL    HW1 2343   1.180   3.972   0.387  1.2665  1.5305 -0.8987
  654SOL    HW2 2344   1.228   3.971   0.243  0.1642 -2.5066 -1.2854
  655SOL     OW 2345   2.771   3.843   0.352  0.6640 -0.2165 -0.8358
  655SOL    HW1 2346   2.786   3.766   0.408  0.0356  0.0552 -0.2810
  655SOL    HW2 2347   2.723   3.809   0.277  2.9149 -0.8690 -2.0195
  656SOL     OW 2348   3.337   4.707   3.271 -0.6007 -0.1850  0.4311
  656SOL    HW1 2349   3.407   4.771   3.259 -0.1782 -0.3281  2.0014
  656SOL    HW2 2350   3.259   4.760   3.286 -0.2188 -0.0104  1.9080
  657SOL     OW 2351   0.141   0.602   3.062  0.2258 -0.4904  0.1738
  657SOL    HW1 2352   0.060   0.645   3.090  1.4192  2.1296 -0.2565
  657SOL    HW2 2353   0.114   0.546   2.989 -1.3718 -0.4591  0.7105
  658SOL     OW 2354   3.248   2.401   5.958 -0.5686  0.4706  0.3181
  658SOL    HW1 2355   3.323   2.454   5.931 -0.8391  0.0395 -1.3159
  658SOL    HW2 2356   3.282   2.343   6.026  0.2223  1.2922  0.6230
  659SOL     OW 2357   5.201   4.527   0.773 -0.2813 -0.0549 -0.4449
  659SOL    HW1 2358   5.169   4.538   0.684 -0.7902 -1.1042 -0.4018
  659SOL    HW2 2359   5.160   4.446   0.803  2.4976 -1.4873 -0.4115
  660SOL     OW 2360   4.282   2.837   4.498  0.1747 -0.6444  0.1826
  660SOL    HW1 2361   4.271   2.767   4.434 -0.2428  1.8550 -2.5453
  660SOL    HW2 2362   4.371   2.869   4.484  0.4759 -0.8007  1.6276
  661SOL     OW 2363   1.656   1.965   1.245  0.0104  0.4469 -0.1031
  661SOL    HW1 2364   1.607   2.047   1.236 -1.4933 -0.3879  0.2882
  661SOL    HW2 2365   1.727   1.973   1.182 -0.4178  1.8510 -0.4306
  662SOL     OW 2366   3.929   5.959   6.065 -0.2980  0.0660 -0.4247
  662SOL    HW1 2367   3.925   5.995   5.977 -0.2480 -0.5361 -0.6736
  662SOL    HW2 2368   3.860   5.894   6.068  0.0416 -0.2874 -0.1844
  663SOL     OW 2369   3.171   0.841   5.185 -0.5517  0.0130  0.3470
  663SOL    HW1 2370   3.120   0.760   5.175 -2.7828  1.6799 -2.6700
  663SOL    HW2 2371   3.243   0.816   5.242 -1.8024 -3.8204  0.4606
  664SOL     OW 2372   0.007   4.743   0.680  0.1550 -0.0186  0.1546
  664SOL    HW1 2373  -0.042   4.725   0.760 -0.9817  0.7027 -0.3614
  664SOL    HW2 2374   0.023   4.837   0.682  0.2549 -0.0212 -0.3814
  665SOL     OW 2375   5.932   3.903   2.891  0.1371 -0.5647 -0.2613
  665SOL    HW1 2376   6.002   3.954   2.850 -0.1538  0.8705  0.9831
  665SOL    HW2 2377   5.884   3.865   2.818  0.8355  0.3115 -1.1917
  666SOL     OW 2378   0.910   5.525   5.156 -0.1413  0.1825  0.1974
  666SOL    HW1 2379   0.979   5.484   5.208 -1.6173  0.2738  2.2885
  666SOL    HW2 2380   0.840   5.459   5.154 -0.7240  0.8132 -0.3085
  667SOL     OW 2381   5.607   0.769   0.425 -0.3996 -0.2646  0.1314
  667SOL    HW1 2382   5.657   0.748   0.505  0.5219  0.0323 -0.3552
  667SOL    HW2 2383   5.630   0.698   0.365 -0.8837 -0.3420  0.0420
  668SOL     OW 2384   0.049   5.291   0.417 -0.2608 -0.1820 -0.3989
  668SOL    HW1 2385   0.098   5.256   0.342 -0.7348 -0.3170 -0.6501
  668SOL    HW2 2386  -0.040   5.261   0.403 -1.1145  2.7955 -1.7133
  669SOL     OW 2387   5.153   1.265   5.225 -0.2288  0.4197  0.2671
  669SOL    HW1 2388   5.072   1.213   5.220 -0.6187  1.0282  0.1592
  669SOL    HW2 2389   5.125   1.347   5.265 -0.0145  1.3460 -1.4752
  670SOL     OW 2390   2.869   5.367   4.940  0.2773 -0.3459 -0.6357
  670SOL    HW1 2391   2.896   5.443   4.992  2.2087 -1.1997 -0.3331
  670SOL    HW2 2392   2.872   5.398   4.850  1.4685 -0.1651 -0.5430
  671SOL     OW 2393   2.253   3.117   3.572  0.5558 -0.3842  0.1993
  671SOL    HW1 2394   2.176   3.165   3.605  0.0294 -1.1685  0.1291
  671SOL    HW2 2395   2.227   3.025   3.576  1.1927 -0.6011 -0.6067
  672SOL     OW 2396   6.219   1.552   5.075 -0.0811  0.2248 -0.1949
  672SOL    HW1 2397   6.250   1.462   5.080 -0.8332 -0.0944 -1.0612
  672SOL    HW2 2398   6.217   1.571   4.981  0.0964  1.1474 -0.0099
  673SOL     OW 2399   2.121   0.190   4.316 -0.2615 -0.2891  0.7509
  673SOL    HW1 2400   2.208   0.151   4.303 -0.0468  0.5361 -0.4969
  673SOL    HW2 2401   2.124   0.225   4.405  1.1068  0.6730  0.3646
  674SOL     OW 2402   5.646   6.163   3.235 -0.4342 -0.1696  0.2267
  674SOL    HW1 2403   5.697   6.208   3.168 -1.1531 -0.6432 -0.6574
  674SOL    HW2 2404   5.710   6.132   3.299  0.1370  1.4671  0.4658
  675SOL     OW 2405   6.261   3.976   3.478  0.3241 -0.7362 -0.2759
  675SOL    HW1 2406   6.288   3.885   3.494  1.0630 -0.4812 -0.0723
  675SOL    HW2 2407   6.229   3.975   3.388 -0.1438 -1.3121 -0.1041
  676SOL     OW 2408   3.869   4.872   1.296  0.3185 -0.2405 -0.5789
  676SOL    HW1 2409   3.880   4.784   1.332 -0.7036  0.4594  1.5091
  676SOL    HW2 2410   3.909   4.930   1.361 -0.8710  0.9860 -0.9264
  677SOL     OW 2411   6.221   4.309   2.395  0.0466  0.5883  0.1090
  677SOL    HW1 2412   6.248   4.249   2.325  0.5511  0.4741  0.3927
  677SOL    HW2 2413   6.201   4.391   2.350 -0.1488  0.3560 -0.2284
  678SOL     OW 2414   2.801   6.295   0.144 -0.0283 -0.2789 -0.4478
  678SOL    HW1 2415   2.884   6.328   0.180 -0.1020  0.6642 -1.1217
  678SOL    HW2 2416   2.747   6.279   0.221 -0.2523  1.9063 -0.1172
  679SOL     OW 2417   3.666   3.100   3.311  0.1696  0.3199 -0.0858
  679SOL    HW1 2418   3.704   3.150   3.384 -0.9544 -1.7633  2.0144
  679SOL    HW2 2419   3.575   3.130   3.307 -0.3529 -1.1044  0.8155
  680SOL     OW 2420   0.336   2.673   5.614  0.3596 -0.2661  0.4705
  680SOL    HW1 2421   0.248   2.710   5.607  1.6069  2.7407 -0.1664
  680SOL    HW2 2422   0.350   2.661   5.708 -0.0492  1.0262  0.7052
  681SOL     OW 2423   5.212   1.175   0.186  0.1412  0.1470  0.0954
  681SOL    HW1 2424   5.147   1.110   0.213 -0.9747  0.8184 -0.9302
  681SOL    HW2 2425   5.274   1.126   0.132 -0.4979 -0.1512 -0.3812
  682SOL     OW 2426   2.495   2.756   5.605 -0.2783 -0.1650 -0.0181
  682SOL    HW1 2427   2.553   2.725   5.674 -0.3651 -1.2174 -0.4143
  682SOL    HW2 2428   2.458   2.677   5.567 -2.8293  0.5094  0.9510
  683SOL     OW 2429   0.211   3.325   1.975  0.6906 -0.1686  0.7595
  683SOL    HW1 2430   0.127   3.283   1.955  0.1548  1.6536 -0.9206
  683SOL    HW2 2431   0.269   3.299   1.904  0.9853  0.1888  0.8657
  684SOL     OW 2432   4.585   2.327   0.309 -0.0303  0.2124 -0.1292
  684SOL    HW1 2433   4.593   2.410   0.261 -2.3165  1.0557  0.8792
  684SOL    HW2 2434   4.496   2.297   0.290 -0.5236 -0.0957  2.5332
  685SOL     OW 2435   1.558   3.102   2.777  0.0485  0.0916 -0.3229
  685SOL    HW1 2436   1.566   3.149   2.860  0.8642 -0.7568  0.0985
  685SOL    HW2 2437   1.560   3.009   2.802 -1.4362 -0.1827 -1.1425
  686SOL     OW 2438   4.111   3.071   4.471 -0.1057 -0.1345 -0.4847
  686SOL    HW1 2439   4.045   3.021   4.423  0.5683 -1.1770 -0.3444
  686SOL    HW2 2440   4.178   3.007   4.494  0.1906  0.5950  0.7595
  687SOL     OW 2441   0.523   3.877   0.855 -0.4504 -0.4951 -0.4841
  687SOL    HW1 2442   0.512   3.890   0.760 -1.0478 -0.1885 -0.3716
  687SOL    HW2 2443   0.516   3.965   0.892  0.0612 -0.5791 -0.1743
  688SOL     OW 2444   3.540   3.586   3.302 -0.0151  0.1429  0.0109
  688SOL    HW1 2445   3.482   3.512   3.319 -0.1333  0.6042  1.7176
  688SOL    HW2 2446   3.562   3.579   3.209 -0.3602 -1.7857  0.0681
  689SOL     OW 2447   5.784   3.532   3.146  0.1715  0.2871 -0.2580
  689SOL    HW1 2448   5.878   3.519   3.153  0.1768  0.1087 -0.6554
  689SOL    HW2 2449   5.748   3.486   3.222  0.3791  0.0508 -0.3012
  690SOL     OW 2450   0.124   2.644   0.282  0.2054  0.0606 -0.9570
  690SOL    HW1 2451   0.037   2.613   0.309  0.1762 -0.6189 -1.8113
  690SOL    HW2 2452   0.144   2.592   0.204  1.2435  0.4437 -0.9415
  691SOL     OW 2453   0.949   6.266   5.754 -0.3158 -0.3642 -0.0719
  691SOL    HW1 2454   1.000   6.314   5.689  0.5912  3.4196  3.2587
  691SOL    HW2 2455   0.976   6.175   5.743  4.4400  1.0252 -0.9269
  692SOL     OW 2456   1.847   5.508   3.622 -0.5454  0.1268  0.1181
  692SOL    HW1 2457   1.934   5.519   3.583 -0.0080 -0.4503  1.1384
  692SOL    HW2 2458   1.862   5.511   3.716 -1.6807  0.3629  0.3021
  693SOL     OW 2459   3.114   0.487   0.903 -0.1424  0.0774 -0.7940
  693SOL    HW1 2460   3.123   0.465   0.995 -0.5249 -2.0241 -1.2217
  693SOL    HW2 2461   3.177   0.557   0.888  0.1185  0.2351  0.9974
  694SOL     OW 2462   1.994   1.044   4.384  0.1395 -0.0856  0.6238
  694SOL    HW1 2463   1.984   0.978   4.314 -2.0299  1.0638 -0.1857
  694SOL    HW2 2464   2.038   1.117   4.341  1.4216 -0.5088  1.2088
  695SOL     OW 2465   3.233   1.420   2.039 -0.3065  0.0390  0.5994
  695SOL    HW1 2466   3.155   1.475   2.051  0.1350  0.3326  2.2844
  695SOL    HW2 2467   3.204   1.350   1.981 -1.5736  0.6747  0.4416
  696SOL     OW 2468   5.817   1.668   3.060  0.0087 -0.2326 -0.3707
  696SOL    HW1 2469   5.818   1.737   3.127  0.2131 -0.2328 -0.3718
  696SOL    HW2 2470   5.728   1.668   3.027  0.4233  1.1290 -1.5219
  697SOL     OW 2471   0.684   5.902   2.206 -0.0191 -0.0252 -0.5434
  697SOL    HW1 2472   0.595   5.933   2.221 -0.1486 -0.1060 -1.1069
  697SOL    HW2 2473   0.690   5.893   2.111  0.8645  0.7830 -0.5758
  698SOL     OW 2474   6.146   3.969   5.852  0.2819 -0.2986 -0.5655
  698SOL    HW1 2475   6.233   3.930   5.858  0.5671  0.6089  1.6268
  698SOL    HW2 2476   6.128   3.974   5.758  2.5569 -0.5513 -1.0367
  699SOL     OW 2477   5.605   4.393   0.001  0.1646  0.6095 -0.5027
  699SOL    HW1 2478   5.632   4.469  -0.049 -2.5030  2.3161  0.5638
  699SOL    HW2 2479   5.549   4.428   0.070 -1.4567 -2.3568 -0.2406
  700SOL     OW 2480   1.296   2.696   3.316  0.2431 -0.1465  0.6559
  700SOL    HW1 2481   1.244   2.669   3.392 -2.5603 -1.2612 -1.5745
  700SOL    HW2 2482   1.325   2.784   3.337 -1.1160 -0.1571  2.7130
  701SOL     OW 2483   5.885   0.644   0.505  0.4523  0.5929  0.0419
  701SOL    HW1 2484   5.830   0.569   0.483 -1.8410  2.3880 -0.4860
  701SOL    HW2 2485   5.886   0.646   0.601 -0.4282  0.5735  0.0521
  702SOL     OW 2486   2.663   2.301   5.102  0.0797  0.5276 -0.4736
  702SOL    HW1 2487   2.609   2.331   5.029 -0.5986 -1.4585 -0.8033
  702SOL    HW2 2488   2.690   2.213   5.078  1.7903  0.7292  0.6273
  703SOL     OW 2489   2.907   5.118   3.399  0.0376 -0.1952  0.4351
  703SOL    HW1 2490   2.814   5.119   3.420 -0.0509 -0.8114  0.1046
  703SOL    HW2 2491   2.915   5.167   3.317 -0.1967 -1.3114 -0.2731
  704SOL     OW 2492   2.254   2.623   6.326  0.1457 -0.0041  0.5873
  704SOL    HW1 2493   2.290   2.609   6.238  0.6601 -0.2716  0.8363
  704SOL    HW2 2494   2.261   2.717   6.340 -2.2259  0.3833 -0.6303
  705SOL     OW 2495   5.038   1.110   3.998  0.0686  0.0820  0.5455
  705SOL    HW1 2496   5.050   1.050   3.925  0.9483  1.1150 -0.1832
  705SOL    HW2 2497   5.125   1.116   4.038 -0.2286  0.1378  1.1859
  706SOL     OW 2498   0.799   5.406   3.377  0.0640  1.0264 -0.0338
  706SOL    HW1 2499   0.742   5.376   3.307  1.0496  2.0980 -1.3278
  706SOL    HW2 2500   0.880   5.431   3.332  0.7427  1.6208  1.4991
  707SOL     OW 2501   3.803   4.905   5.007  0.0329 -0.1090  0.2577
  707SOL    HW1 2502   3.743   4.873   5.074  0.5952  0.4482  1.0347
  707SOL    HW2 2503   3.747   4.944   4.940 -0.4958 -0.0831  0.7168
  708SOL     OW 2504   2.770   4.594   0.608 -0.1053 -0.5596  0.0334
  708SOL    HW1 2505   2.676   4.591   0.623  0.2642 -1.9534  2.2647
  708SOL    HW2 2506   2.795   4.685   0.624 -1.0919 -0.1441 -0.7693
  709SOL     OW 2507   5.675   4.855   3.910  0.0258 -0.1967 -0.0042
  709SOL    HW1 2508   5.598   4.906   3.884  1.1585  1.8834  0.6481
  709SOL    HW2 2509   5.638   4.772   3.942 -1.8610  0.3137 -0.7396
  710SOL     OW 2510   0.248   0.765   6.195 -0.2860  0.3492 -0.5799
  710SOL    HW1 2511   0.228   0.723   6.279 -1.9139  0.6316 -0.8243
  710SOL    HW2 2512   0.260   0.692   6.134 -1.1463  0.1900 -0.5595
  711SOL     OW 2513   1.925   3.453   1.664  0.4041  0.2487 -0.3912
  711SOL    HW1 2514   2.017   3.480   1.663  0.6556 -0.5499  0.5018
  711SOL    HW2 2515   1.892   3.480   1.750 -0.0566  0.0629 -0.5058
  712SOL     OW 2516   3.033   1.682   1.835 -0.1884 -0.0573  0.5241
  712SOL    HW1 2517   3.088   1.725   1.900  0.2067 -0.1187  0.2304
  712SOL    HW2 2518   3.082   1.690   1.753 -0.0622 -1.1830  0.4927
  713SOL     OW 2519   3.697   1.269   1.700 -0.0861 -0.6341 -0.1689
  713SOL    HW1 2520   3.606   1.300   1.696  0.8383  2.2958  0.4783
  713SOL    HW2 2521   3.722   1.258   1.609 -0.8471 -0.6720 -0.3774
  714SOL     OW 2522   2.405   2.805   6.099  0.2646 -0.2882 -0.2924
  714SOL    HW1 2523   2.359   2.721   6.103 -0.1673 -0.0247  0.3565
  714SOL    HW2 2524   2.476   2.797   6.163  0.2657 -0.1788 -0.2795
  715SOL     OW 2525   4.425   5.667   3.723  0.7522 -0.1050 -0.1426
  715SOL    HW1 2526   4.504   5.718   3.705  0.8283  0.2496  1.1496
  715SOL    HW2 2527   4.454   5.597   3.782 -0.1272  0.8307  1.4522
  716SOL     OW 2528   0.413   4.819   0.789 -0.0214  1.1858  0.4949
  716SOL    HW1 2529   0.411   4.808   0.694  2.2047  0.9870  0.4310
  716SOL    HW2 2530   0.347   4.758   0.822  0.2627  0.1321 -0.8319
  717SOL     OW 2531   4.435   5.089   1.965  0.2021 -0.1779 -0.6287
  717SOL    HW1 2532   4.362   5.093   1.903 -0.8874  1.4090  0.7183
  717SOL    HW2 2533   4.507   5.054   1.914 -0.8263  0.5679 -2.6548
  718SOL     OW 2534   0.145   4.043   2.862 -0.6977 -0.0906  0.7203
  718SOL    HW1 2535   0.221   3.986   2.848 -0.6396 -0.3405  2.0687
  718SOL    HW2 2536   0.091   3.997   2.925  0.1825  2.0898  3.1715
  719SOL     OW 2537   5.702   4.948   2.394 -0.2061 -0.5578 -0.8263
  719SOL    HW1 2538   5.684   5.035   2.428 -0.7915 -0.6162 -0.9895
  719SOL    HW2 2539   5.785   4.923   2.435  0.7873  0.7333 -2.0196
  720SOL     OW 2540   1.677   1.861   5.152 -0.1534 -0.0125  0.3792
  720SOL    HW1 2541   1.738   1.933   5.169 -0.2474 -0.1430  1.2555
  720SOL    HW2 2542   1.591   1.896   5.174 -0.4444  0.2524 -1.0874
  721SOL     OW 2543   5.817   1.122   3.336  0.5226  0.1085 -0.0860
  721SOL    HW1 2544   5.872   1.070   3.277  0.6153  0.8306 -0.6441
  721SOL    HW2 2545   5.833   1.085   3.422 -0.4875 -1.7120 -0.6598
  722SOL     OW 2546   0.784   4.148   0.729  0.0887 -0.0488 -0.3169
  722SOL    HW1 2547   0.795   4.104   0.813  0.8994  0.2128 -0.2798
  722SOL    HW2 2548   0.739   4.084   0.674  1.0036 -0.8305 -0.1727
  723SOL     OW 2549   3.298   0.091   5.975 -0.1142 -0.1616 -0.3470
  723SOL    HW1 2550   3.314  -0.001   5.952 -1.5168 -0.6676  0.6425
  723SOL    HW2 2551   3.246   0.087   6.055  0.4445  1.5189  0.1085
  724SOL     OW 2552   6.374   5.162   4.524 -0.3388 -0.2691 -0.1291
  724SOL    HW1 2553   6.389   5.251   4.493  0.0251 -0.4179 -0.3860
  724SOL    HW2 2554   6.320   5.172   4.602  1.1181  0.2777  0.8263
  725SOL     OW 2555   0.113   4.841   4.129  0.2778 -0.0657  0.4437
  725SOL    HW1 2556   0.072   4.906   4.187  0.9198  0.0966  0.7276
  725SOL    HW2 2557   0.183   4.803   4.182  0.9099  0.1221 -0.2430
  726SOL     OW 2558   2.589   3.660   4.172 -0.0334  0.5988 -0.2608
  726SOL    HW1 2559   2.506   3.622   4.200  0.2006 -0.2561 -0.7068
  726SOL    HW2 2560   2.653   3.590   4.187  0.7387  1.5074  0.8057
  727SOL     OW 2561   3.597   4.475   2.549  0.2562  0.5282  0.0474
  727SOL    HW1 2562   3.632   4.486   2.461  0.7204  0.2656  0.1996
  727SOL    HW2 2563   3.628   4.552   2.598 -0.5251  0.9993 -0.1826
  728SOL     OW 2564   1.902   0.697   0.137 -0.1228 -0.1137  0.0820
  728SOL    HW1 2565   1.895   0.751   0.216 -0.2933 -0.1740  0.1071
  728SOL    HW2 2566   1.929   0.611   0.170  0.1134 -0.0558  0.0450
  729SOL     OW 2567   5.763   2.477   1.046  0.4937  0.2071  0.4298
  729SOL    HW1 2568   5.759   2.564   1.006 -0.7326 -0.6208 -1.3114
  729SOL    HW2 2569   5.829   2.430   0.996  0.0906 -0.3269  0.3942
  730SOL     OW 2570   0.953   4.051   4.187 -0.9179  0.0159  0.0157
  730SOL    HW1 2571   0.899   3.978   4.217  1.2922 -1.4441  0.5700
  730SOL    HW2 2572   1.009   4.071   4.261  0.5713  0.2560 -1.1582
  731SOL     OW 2573   0.065   4.132   5.550  0.5247 -0.7076  0.2052
  731SOL    HW1 2574   0.004   4.119   5.623 -0.0210 -2.6553 -0.5485
  731SOL    HW2 2575   0.150   4.145   5.592  0.3231 -2.4121  1.2197
  732SOL     OW 2576   2.789   0.105   0.438 -0.1828  0.3837  0.3099
  732SOL    HW1 2577   2.804   0.176   0.500  0.7672  1.0809 -0.7054
  732SOL    HW2 2578   2.875   0.084   0.403 -0.6578 -0.2509 -0.5171
  733SOL     OW 2579   5.394   3.463   0.364 -0.3066 -0.0301  0.4345
  733SOL    HW1 2580   5.398   3.368   0.361 -0.1171  0.0313 -1.7402
  733SOL    HW2 2581   5.304   3.485   0.342  0.3953  0.3726 -2.2015
  734SOL     OW 2582   3.233   0.119   2.164 -0.2728  0.0436 -0.6405
  734SOL    HW1 2583   3.324   0.139   2.144 -0.1960 -0.5603 -0.9203
  734SOL    HW2 2584   3.235   0.073   2.248 -0.4441  1.1593 -0.0205
  735SOL     OW 2585   1.997   1.176   0.670  0.1197 -0.6439 -0.6737
  735SOL    HW1 2586   2.021   1.214   0.585  1.5796 -1.2291 -0.5403
  735SOL    HW2 2587   2.080   1.148   0.708 -0.5472 -0.5536  0.8792
  736SOL     OW 2588   2.875   1.229   2.116  0.7424 -0.2041 -0.2451
  736SOL    HW1 2589   2.850   1.298   2.178 -1.1863 -0.2482 -0.9694
  736SOL    HW2 2590   2.853   1.264   2.030  0.8110 -1.2744 -0.7053
  737SOL     OW 2591   1.246   2.741   0.992 -0.6507  0.5107  0.3405
  737SOL    HW1 2592   1.170   2.787   0.956 -1.4771 -1.5513 -0.6247
  737SOL    HW2 2593   1.315   2.754   0.927 -0.6602  0.9796  0.4218
  738SOL     OW 2594   1.872   3.708   2.736 -0.2766 -0.1405 -0.0315
  738SOL    HW1 2595   1.830   3.629   2.772 -0.7131 -0.2391 -0.7427
  738SOL    HW2 2596   1.799   3.769   2.722  0.1447  0.6641  1.1868
  739SOL     OW 2597   4.358   3.740   0.303  0.6338 -0.0171  0.3562
  739SOL    HW1 2598   4.414   3.818   0.298  1.8248 -0.8312  0.8794
  739SOL    HW2 2599   4.399   3.685   0.369 -1.5845 -0.0141  1.8231
  740SOL     OW 2600   2.100   2.387   0.044 -0.2639 -0.4613  0.5540
  740SOL    HW1 2601   2.015   2.364   0.007 -0.7843  1.0076  0.7791
  740SOL    HW2 2602   2.136   2.453  -0.015  1.5344 -2.3285 -0.5015
  741SOL     OW 2603   1.314   5.784   0.373 -0.2532  0.1801 -0.1556
  741SOL    HW1 2604   1.336   5.805   0.463 -1.4910  1.1957 -0.0690
  741SOL    HW2 2605   1.368   5.844   0.321  1.1885 -1.0835 -0.1308
  742SOL     OW 2606   4.276   3.364   3.515 -0.2028  0.0748 -0.0395
  742SOL    HW1 2607   4.254   3.270   3.516 -1.8971  0.4597 -0.4375
  742SOL    HW2 2608   4.364   3.367   3.479  0.5965 -1.5208  1.6769
  743SOL     OW 2609   3.295   1.364   4.267  0.0195  0.7138 -0.1049
  743SOL    HW1 2610   3.238   1.388   4.340 -0.0726  0.6096 -0.1412
  743SOL    HW2 2611   3.378   1.406   4.286  0.3009 -0.1368  0.5649
  744SOL     OW 2612   3.447   3.381   1.113 -0.1703  0.1848 -0.6606
  744SOL    HW1 2613   3.358   3.385   1.148  0.0785  1.9791 -0.1549
  744SOL    HW2 2614   3.437   3.344   1.026 -1.5126  0.9860 -0.8679
  745SOL     OW 2615   4.347   4.491   3.682 -0.3280 -0.9987 -0.3499
  745SOL    HW1 2616   4.258   4.464   3.705 -0.7872  0.8445  0.1570
  745SOL    HW2 2617   4.403   4.423   3.718 -1.5376 -2.2352 -0.7483
  746SOL     OW 2618   0.428   4.681   0.540  0.2761  0.3434 -0.1263
  746SOL    HW1 2619   0.479   4.621   0.596 -1.2160  0.4412  1.3757
  746SOL    HW2 2620   0.472   4.677   0.455  0.9978 -1.8760  0.3088
  747SOL     OW 2621   4.266   4.375   5.081  0.4261  0.4271  0.1233
  747SOL    HW1 2622   4.339   4.334   5.127  1.2705 -0.6947 -2.1799
  747SOL    HW2 2623   4.189   4.352   5.134  1.5807  0.6779  1.9435
  748SOL     OW 2624   1.304   3.142   2.290  0.0728 -0.8284 -0.5495
  748SOL    HW1 2625   1.355   3.200   2.233  0.0190 -0.6931 -0.4601
  748SOL    HW2 2626   1.364   3.119   2.361  0.1514 -1.0267 -0.6794
  749SOL     OW 2627   1.562   2.001   0.594  0.0864  0.3857  0.1617
  749SOL    HW1 2628   1.505   2.031   0.665 -0.9862  0.5326 -0.7453
  749SOL    HW2 2629   1.507   2.005   0.516  1.3696  0.5728 -0.7437
  750SOL     OW 2630   5.594   0.314   3.076  0.8000 -0.2175 -0.1857
  750SOL    HW1 2631   5.657   0.354   3.017  0.5168  1.1649  0.4144
  750SOL    HW2 2632   5.646   0.254   3.130  1.7200  1.3047  0.6700
  751SOL     OW 2633   3.789   3.399   0.375  0.0358  0.1674 -0.0699
  751SOL    HW1 2634   3.849   3.439   0.313  1.1068 -1.0170  0.1976
  751SOL    HW2 2635   3.779   3.463   0.444 -0.4982  1.1427 -1.0287
  752SOL     OW 2636   1.098   0.092   3.364 -0.2016  0.6128 -0.2921
  752SOL    HW1 2637   1.015   0.043   3.364  0.7428 -1.0519 -1.0638
  752SOL    HW2 2638   1.103   0.130   3.451 -1.1770 -0.3313  0.1912
  753SOL     OW 2639   0.771   3.200   4.613  0.2213  0.0644  0.0721
  753SOL    HW1 2640   0.814   3.116   4.623 -0.8230 -0.4401  0.4297
  753SOL    HW2 2641   0.755   3.208   4.519 -0.7812 -0.7075  0.1692
  754SOL     OW 2642   5.898   0.420   4.514  0.2822 -0.2708 -0.8177
  754SOL    HW1 2643   5.960   0.369   4.566  0.9834 -0.1058 -1.4995
  754SOL    HW2 2644   5.950   0.490   4.475 -0.8116  1.4416  0.7124
  755SOL     OW 2645   3.861   1.396   5.794 -1.0484  0.0122  0.0648
  755SOL    HW1 2646   3.891   1.321   5.846 -0.3278 -0.0572 -0.4524
  755SOL    HW2 2647   3.801   1.357   5.730 -0.5297 -0.1475 -0.3245
  756SOL     OW 2648   5.096   0.104   1.597  0.2060  0.2115  0.5526
  756SOL    HW1 2649   5.180   0.135   1.564 -1.0290 -0.3779 -3.4301
  756SOL    HW2 2650   5.035   0.175   1.577 -1.1107 -1.3403 -1.1846
  757SOL     OW 2651   6.035   3.175   6.271 -0.3063  0.0070  0.0017
  757SOL    HW1 2652   5.972   3.109   6.242  0.0550 -1.1296  1.7282
  757SOL    HW2 2653   6.100   3.126   6.322  0.0859  1.6669  1.1395
  758SOL     OW 2654   4.549   1.465   5.002  0.0900 -0.3052 -0.3071
  758SOL    HW1 2655   4.592   1.384   4.972  0.2225 -0.2990 -0.1361
  758SOL    HW2 2656   4.526   1.447   5.093  1.0758  0.2353  0.0539
  759SOL     OW 2657   2.172   0.063   2.412 -0.0843 -0.4703 -0.6653
  759SOL    HW1 2658   2.082   0.041   2.386  0.7605 -0.1249 -4.1476
  759SOL    HW2 2659   2.165   0.150   2.451 -1.5025 -1.1944  0.7652
  760SOL     OW 2660   4.736   4.491   5.440  0.0092  0.1195 -0.1899
  760SOL    HW1 2661   4.694   4.572   5.411 -1.2444 -0.3922  0.1709
  760SOL    HW2 2662   4.755   4.506   5.533  2.0821  0.9421 -0.7083
  761SOL     OW 2663   0.103   5.991   0.796 -0.6015  0.4692 -0.4729
  761SOL    HW1 2664   0.061   5.907   0.778 -2.4321  1.2131  0.1327
  761SOL    HW2 2665   0.142   6.017   0.713  0.0879 -1.0271 -0.6275
  762SOL     OW 2666   2.922   3.840   2.461 -0.2774  0.8288  0.3257
  762SOL    HW1 2667   2.892   3.925   2.495 -0.2540  0.6094  0.9074
  762SOL    HW2 2668   3.011   3.831   2.496 -1.0336 -0.3849  2.0106
  763SOL     OW 2669   3.342   2.841   5.687  0.0846  0.4394  0.0096
  763SOL    HW1 2670   3.384   2.850   5.602  0.7607  1.9956  0.4945
  763SOL    HW2 2671   3.415   2.843   5.750 -0.3638 -1.1904  0.6054
  764SOL     OW 2672   4.085   2.213   1.236  0.8769  0.3294  0.3638
  764SOL    HW1 2673   4.167   2.166   1.227  2.2510  2.4505  1.4820
  764SOL    HW2 2674   4.110   2.300   1.267 -1.7751  1.0394  0.6424
  765SOL     OW 2675   4.663   4.444   0.169  0.2742  0.1107  0.4508
  765SOL    HW1 2676   4.644   4.518   0.227  0.6251  0.5172  0.0544
  765SOL    HW2 2677   4.739   4.401   0.208  0.1793  0.0654  0.5855
  766SOL     OW 2678   4.500   5.266   0.863  0.1868  0.6249  0.4576
  766SOL    HW1 2679   4.552   5.311   0.930 -0.5352 -0.6099  1.8995
  766SOL    HW2 2680   4.437   5.331   0.833  0.6799  1.2668  0.8019
  767SOL     OW 2681   5.233   6.375   1.303 -0.5382 -0.3332  0.4856
  767SOL    HW1 2682   5.277   6.436   1.362 -3.2342  0.1100  2.1112
  767SOL    HW2 2683   5.285   6.295   1.308 -0.3482 -0.0774  2.9397
  768SOL     OW 2684   3.058   6.089   3.429 -0.3614 -0.0118 -0.1986
  768SOL    HW1 2685   3.015   6.068   3.512 -0.3467  0.9453  0.0625
  768SOL    HW2 2686   3.126   6.022   3.419 -0.4204 -0.1834  0.5180
  769SOL     OW 2687   3.891   3.821   4.959  0.3926  0.1586  0.5734
  769SOL    HW1 2688   3.865   3.905   4.920 -1.4666 -1.0619 -0.8984
  769SOL    HW2 2689   3.829   3.808   5.031  0.8309  0.1308  0.9525
  770SOL     OW 2690   0.807   1.528   5.138  0.5288  0.0431  0.4791
  770SOL    HW1 2691   0.716   1.558   5.133  0.2600 -1.0386 -1.3678
  770SOL    HW2 2692   0.858   1.601   5.102  0.1807 -0.2484 -0.6333
  771SOL     OW 2693   4.207   3.686   2.541 -0.0224  0.5326 -0.2674
  771SOL    HW1 2694   4.183   3.611   2.597  0.8870  0.0092 -0.5768
  771SOL    HW2 2695   4.123   3.727   2.521 -0.2223  1.9510  3.1519
  772SOL     OW 2696   5.452   2.479   3.313 -0.0677 -0.5064 -0.0761
  772SOL    HW1 2697   5.432   2.562   3.357 -0.3882 -0.5651 -0.1072
  772SOL    HW2 2698   5.463   2.503   3.221  0.4210 -0.4115  0.0072
  773SOL     OW 2699   0.904   2.620   2.483 -0.2107  0.0577 -0.1971
  773SOL    HW1 2700   0.912   2.698   2.538 -0.1956 -0.3579  0.3915
  773SOL    HW2 2701   0.819   2.629   2.440  0.0147  0.6530 -0.5314
  774SOL     OW 2702   2.485   0.901   2.546  0.6990  0.1734  0.4006
  774SOL    HW1 2703   2.542   0.900   2.468  0.1034 -0.7182 -0.0342
  774SOL    HW2 2704   2.533   0.848   2.610  0.4926 -0.3437  0.1301
  775SOL     OW 2705   5.530   2.471   4.354  0.3088  0.2687 -0.0328
  775SOL    HW1 2706   5.453   2.518   4.322  0.2253  0.2149  0.0873
  775SOL    HW2 2707   5.507   2.444   4.443 -0.0788 -0.9599 -0.4901
  776SOL     OW 2708   1.473   3.917   5.001 -0.2797  0.1358 -0.0782
  776SOL    HW1 2709   1.437   3.830   4.983 -0.4792  0.4232 -1.0821
  776SOL    HW2 2710   1.567   3.902   5.014 -0.4867 -0.3818  0.9182
  777SOL     OW 2711   6.125   3.228   1.341  0.5643  0.0489 -0.1365
  777SOL    HW1 2712   6.137   3.235   1.246  1.7929 -1.1355 -0.0987
  777SOL    HW2 2713   6.157   3.140   1.362 -1.2111 -0.3215  1.1573
  778SOL     OW 2714   3.853   4.479   5.927 -0.1167 -0.0033 -0.4419
  778SOL    HW1 2715   3.814   4.437   6.003  0.1259  1.7668  0.6630
  778SOL    HW2 2716   3.897   4.407   5.880 -1.3131 -1.3027  0.4020
  779SOL     OW 2717   3.330   1.099   3.397 -0.0177  0.1229 -0.6051
  779SOL    HW1 2718   3.306   1.134   3.483 -0.0229 -2.0003  0.2957
  779SOL    HW2 2719   3.398   1.033   3.416 -0.0233 -0.3775 -2.2165
  780SOL     OW 2720   4.303   0.168   1.091  0.1954  1.0042  0.0036
  780SOL    HW1 2721   4.367   0.136   1.027 -1.2401  1.7213 -1.8338
  780SOL    HW2 2722   4.271   0.250   1.053 -0.6716  1.4628  1.6729
  781SOL     OW 2723   4.647   5.623   0.513 -0.2381 -0.4076  0.0269
  781SOL    HW1 2724   4.656   5.638   0.607 -0.7797  0.5306 -0.0556
  781SOL    HW2 2725   4.601   5.539   0.506 -1.4983  0.2129  0.6406
  782SOL     OW 2726   3.679   2.946   4.321  0.2214 -0.5248  0.0019
  782SOL    HW1 2727   3.628   3.010   4.272 -0.8222  0.3122  2.1010
  782SOL    HW2 2728   3.770   2.967   4.301 -0.1404  0.8471 -0.2607
  783SOL     OW 2729   5.735   5.702   3.257 -0.7315  0.5379  0.6254
  783SOL    HW1 2730   5.747   5.616   3.216 -0.8863  0.4044  0.8591
  783SOL    HW2 2731   5.809   5.755   3.226  0.3534 -0.2084  1.9031
  784SOL     OW 2732   6.253   0.572   2.100 -0.1157 -0.1426  0.5948
  784SOL    HW1 2733   6.219   0.635   2.037  0.0528 -0.6085  0.0323
  784SOL    HW2 2734   6.245   0.616   2.185 -0.8068  0.2911  0.3060
  785SOL     OW 2735   1.952   0.273   6.327 -0.1680 -0.0218  0.3807
  785SOL    HW1 2736   1.909   0.294   6.410 -0.1994  0.4628  0.2409
  785SOL    HW2 2737   1.928   0.345   6.268 -0.1114 -0.3418 -0.0368
  786SOL     OW 2738   1.499   0.921   2.451  0.4134 -0.3433 -0.2429
  786SOL    HW1 2739   1.587   0.937   2.418  0.2994  0.5317 -0.1317
  786SOL    HW2 2740   1.447   0.899   2.374  0.6130 -0.3722 -0.3685
  787SOL     OW 2741   5.524   0.829   5.959 -0.1641 -0.6359  0.2729
  787SOL    HW1 2742   5.496   0.785   5.878  0.0669  0.8444 -0.6369
  787SOL    HW2 2743   5.618   0.840   5.949 -0.2536  0.2753  0.3697
  788SOL     OW 2744   0.401   4.992   2.071 -0.1734  0.1914  0.0207
  788SOL    HW1 2745   0.427   5.055   2.139  1.8919  0.9701 -1.4249
  788SOL    HW2 2746   0.410   4.907   2.113  1.8673  0.6163  0.5134
  789SOL     OW 2747   2.476   5.990   4.981  0.1840  0.0298  0.2342
  789SOL    HW1 2748   2.541   6.032   4.924 -0.1272  0.4868  0.2086
  789SOL    HW2 2749   2.497   6.022   5.069 -0.5007  0.8181  0.1187
  790SOL     OW 2750   3.104   5.341   6.068  0.3564 -0.8233 -0.0078
  790SOL    HW1 2751   3.115   5.434   6.049  0.8496 -0.8857 -0.0193
  790SOL    HW2 2752   3.192   5.305   6.066  0.1524 -1.3201 -0.1397
  791SOL     OW 2753   0.511   4.658   2.571  0.4270 -0.1486 -0.3929
  791SOL    HW1 2754   0.445   4.612   2.623 -0.3273  0.8905 -0.4101
  791SOL    HW2 2755   0.544   4.727   2.629  0.6491  0.0774 -0.7853
  792SOL     OW 2756   0.376   6.285   6.138 -0.3937 -0.1944  0.2470
  792SOL    HW1 2757   0.305   6.292   6.202 -0.9051  1.4013 -0.4478
  792SOL    HW2 2758   0.411   6.197   6.149  0.9037  0.7535  4.1479
  793SOL     OW 2759   0.849   3.782   6.346  0.1346 -0.2992 -0.2696
  793SOL    HW1 2760   0.839   3.692   6.317 -0.6414 -0.2665 -0.1144
  793SOL    HW2 2761   0.919   3.778   6.411  0.9233 -0.5898 -1.1196
  794SOL     OW 2762   3.534   0.511   1.278  0.2155  0.1452 -0.1485
  794SOL    HW1 2763   3.625   0.542   1.275 -0.0744  0.9098 -1.7940
  794SOL    HW2 2764   3.491   0.569   1.342  0.5273  0.7997 -0.5216
  795SOL     OW 2765   1.395   4.164   6.152 -0.2151 -0.5710  0.0462
  795SOL    HW1 2766   1.330   4.099   6.126  1.1762 -2.1400  0.3522
  795SOL    HW2 2767   1.365   4.196   6.237  0.3032 -2.5639  1.0047
  796SOL     OW 2768   0.992   0.432   0.016  0.0038  0.4151  0.0161
  796SOL    HW1 2769   0.926   0.410   0.082 -0.5382 -4.1142 -1.9430
  796SOL    HW2 2770   1.074   0.398   0.052  0.1341  0.0749 -0.6107
  797SOL     OW 2771   4.215   5.806   3.616  0.0879  0.1842  0.2107
  797SOL    HW1 2772   4.249   5.873   3.556 -1.2398  1.0050  0.3435
  797SOL    HW2 2773   4.291   5.751   3.636  1.5533  2.4841  1.2266
  798SOL     OW 2774   0.395   5.416   4.485  0.1430  0.2565  0.4926
  798SOL    HW1 2775   0.486   5.409   4.511 -0.0735 -0.5044  1.0565
  798SOL    HW2 2776   0.345   5.403   4.566 -0.5007 -0.7790 -0.0654
  799SOL     OW 2777   3.762   2.457   0.517  0.2200  1.0716  0.1632
  799SOL    HW1 2778   3.686   2.514   0.518 -1.0643 -0.5963  0.3142
  799SOL    HW2 2779   3.751   2.403   0.438  0.0759 -0.6789  1.3495
  800SOL     OW 2780   0.475   5.631   4.727 -0.0019  0.0352 -0.0797
  800SOL    HW1 2781   0.540   5.619   4.795  0.6711 -2.1344 -1.0885
  800SOL    HW2 2782   0.412   5.560   4.740 -0.7229  0.5369 -0.7425
  801SOL     OW 2783   6.318   6.142   6.188 -0.9301 -0.6804  0.3259
  801SOL    HW1 2784   6.265   6.217   6.161 -0.9632 -1.3352 -1.5069
  801SOL    HW2 2785   6.408   6.175   6.186 -0.9694 -0.5868 -0.1846
  802SOL     OW 2786   2.106   1.786   4.809 -0.2524  0.1854 -0.1827
  802SOL    HW1 2787   2.170   1.744   4.866 -0.6423  0.2650  0.3161
  802SOL    HW2 2788   2.026   1.791   4.861 -0.4285  0.8563 -0.4997
  803SOL     OW 2789   5.753   5.468   5.794  0.2955  0.1202  0.0928
  803SOL    HW1 2790   5.743   5.385   5.842  0.0741 -1.0716 -1.9427
  803SOL    HW2 2791   5.821   5.449   5.729 -0.3638  1.2814 -0.9540
  804SOL     OW 2792   3.934   2.634   1.225 -0.3628  0.5550  0.5706
  804SOL    HW1 2793   3.862   2.674   1.275  0.3098  0.3707  1.7119
  804SOL    HW2 2794   3.891   2.573   1.165 -1.1501  0.3194  1.3649
  805SOL     OW 2795   2.215   3.880   2.632  0.5305  0.0287  0.1720
  805SOL    HW1 2796   2.300   3.924   2.625  1.0520 -1.3006 -2.5796
  805SOL    HW2 2797   2.165   3.912   2.557 -0.2545 -1.6346 -0.0229
  806SOL     OW 2798   1.669   3.707   1.199  0.4755  0.1730 -0.2430
  806SOL    HW1 2799   1.734   3.644   1.168  1.3867  0.3999  1.1566
  806SOL    HW2 2800   1.585   3.672   1.169  0.9715 -1.6934  0.4726
  807SOL     OW 2801   2.997   4.854   5.251  0.0386 -0.4456  0.4157
  807SOL    HW1 2802   2.907   4.884   5.232  0.4150  1.2504  1.1947
  807SOL    HW2 2803   3.051   4.905   5.191  0.6586  0.0803  1.4206
  808SOL     OW 2804   1.164   5.652   4.555 -0.6571 -0.1197 -0.2913
  808SOL    HW1 2805   1.175   5.651   4.650 -0.5279  1.7725 -0.2621
  808SOL    HW2 2806   1.073   5.681   4.543 -0.1060  1.4643 -0.7493
  809SOL     OW 2807   4.827   5.092   5.051  1.0227  0.3924  0.6861
  809SOL    HW1 2808   4.849   5.048   4.969 -0.2043  0.9176  0.0494
  809SOL    HW2 2809   4.897   5.157   5.062  0.4312  1.3173 -0.7329
  810SOL     OW 2810   3.618   5.270   3.934  0.2235 -0.1195  0.0145
  810SOL    HW1 2811   3.544   5.232   3.982  0.1215  0.1183  0.0451
  810SOL    HW2 2812   3.693   5.216   3.959  0.0182 -0.4995 -0.1894
  811SOL     OW 2813   4.633   0.756   5.646  0.0817 -0.1286  0.1618
  811SOL    HW1 2814   4.686   0.676   5.653  0.9095  0.5903  2.8167
  811SOL    HW2 2815   4.673   0.816   5.709 -3.7554  0.4918  2.1732
  812SOL     OW 2816   5.458   0.207   4.927 -0.4662  0.6425  0.1225
  812SOL    HW1 2817   5.500   0.133   4.883  2.0167  1.3167  1.2964
  812SOL    HW2 2818   5.431   0.172   5.012  1.2468  1.2349  0.9140
  813SOL     OW 2819   5.710   5.355   4.664 -0.0213  0.3481 -0.0701
  813SOL    HW1 2820   5.754   5.320   4.742  0.0970  1.9141  0.6001
  813SOL    HW2 2821   5.782   5.385   4.608 -0.1545  0.5491 -0.1331
  814SOL     OW 2822   3.068   3.702   5.699 -0.2574 -0.5715 -0.2864
  814SOL    HW1 2823   3.150   3.719   5.746  1.3123 -1.8390 -2.4952
  814SOL    HW2 2824   3.078   3.614   5.664 -1.5054  0.2212 -2.7434
  815SOL     OW 2825   4.758   2.552   3.342 -0.1021 -0.1011  0.5096
  815SOL    HW1 2826   4.726   2.528   3.254  0.7546  1.4201 -0.2345
  815SOL    HW2 2827   4.705   2.500   3.402  0.0256 -1.9861 -0.9589
  816SOL     OW 2828   1.169   0.317   5.672 -0.1022 -1.0654 -0.2273
  816SOL    HW1 2829   1.245   0.370   5.694 -0.3228 -1.5292  1.7523
  816SOL    HW2 2830   1.169   0.313   5.577  1.2917  0.4683 -0.3128
  817SOL     OW 2831   1.119   4.068   5.037 -0.1893 -0.2167 -0.0035
  817SOL    HW1 2832   1.093   4.160   5.039 -0.1588 -0.2095  0.0729
  817SOL    HW2 2833   1.154   4.051   5.125  0.3069 -0.1557 -0.1846
  818SOL     OW 2834   0.179   3.849   3.198  0.2148  0.1813 -0.0107
  818SOL    HW1 2835   0.117   3.910   3.160  0.6856  0.5745 -0.1592
  818SOL    HW2 2836   0.176   3.772   3.141 -1.0246 -0.2919  0.6785
  819SOL     OW 2837   1.905   2.053   1.060  0.1207  0.5465  0.4600
  819SOL    HW1 2838   1.903   1.974   1.005  0.9232  0.7560  0.1152
  819SOL    HW2 2839   1.852   2.116   1.011  1.7529  1.0865 -0.6525
  820SOL     OW 2840   0.937   5.500   1.294  0.5644 -0.1250  0.3799
  820SOL    HW1 2841   0.989   5.425   1.324 -0.5487 -0.6629  0.9996
  820SOL    HW2 2842   0.966   5.516   1.204  1.9314 -0.2948  0.7803
  821SOL     OW 2843   3.889   5.231   4.421  0.2918  0.5767  0.0701
  821SOL    HW1 2844   3.864   5.227   4.513  0.7321  1.1346  0.2158
  821SOL    HW2 2845   3.806   5.222   4.373  0.3737 -2.6474  0.4636
  822SOL     OW 2846   5.217   5.337   3.413 -0.0377  0.3025 -0.2044
  822SOL    HW1 2847   5.286   5.271   3.416  0.5153  0.8577 -0.6930
  822SOL    HW2 2848   5.148   5.297   3.360  1.2697  1.0332 -2.5084
  823SOL     OW 2849   5.586   4.820   2.683 -0.1027  0.1160 -0.3367
  823SOL    HW1 2850   5.599   4.914   2.684  0.3179  0.0700 -1.5228
  823SOL    HW2 2851   5.673   4.783   2.667 -0.3542 -0.4598 -0.4108
  824SOL     OW 2852   5.985   3.808   0.492 -0.8677  0.3247 -0.0141
  824SOL    HW1 2853   6.051   3.743   0.469 -0.5502 -0.0418  1.8436
  824SOL    HW2 2854   5.901   3.762   0.483 -0.6205 -0.4970  1.7224
  825SOL     OW 2855   2.288   6.026   2.920 -0.3478  0.3676 -0.6330
  825SOL    HW1 2856   2.226   6.025   2.993  0.2914 -1.7151 -0.0699
  825SOL    HW2 2857   2.283   6.114   2.885 -0.6947  1.4142  1.9453
  826SOL     OW 2858   6.322   3.858   0.928  0.4161  0.1734 -0.4467
  826SOL    HW1 2859   6.400   3.855   0.872 -0.0594 -0.5064 -1.0901
  826SOL    HW2 2860   6.260   3.799   0.885 -0.9270  1.7032 -0.6653
  827SOL     OW 2861   5.172   0.276   4.772  0.4279  0.5891  0.4936
  827SOL    HW1 2862   5.183   0.311   4.861 -0.1791 -0.9392  1.1985
  827SOL    HW2 2863   5.165   0.181   4.785  0.5062  0.3394 -1.2104
  828SOL     OW 2864   0.804   3.096   0.530  0.7389 -0.3504 -0.6844
  828SOL    HW1 2865   0.857   3.100   0.451  0.7625  0.0628 -0.6498
  828SOL    HW2 2866   0.716   3.118   0.501  0.4072 -1.8996 -0.8976
  829SOL     OW 2867   6.187   4.206   2.994 -0.7605 -0.2189  0.0808
  829SOL    HW1 2868   6.237   4.287   3.007 -0.6956 -0.0772 -1.0158
  829SOL    HW2 2869   6.112   4.214   3.054  0.4017 -0.3442  1.5874
  830SOL     OW 2870   3.583   5.880   4.779 -0.2175  0.3462  0.0315
  830SOL    HW1 2871   3.669   5.911   4.807 -0.7346  1.4725  0.4014
  830SOL    HW2 2872   3.536   5.863   4.861 -0.9058  1.3381 -0.1418
  831SOL     OW 2873   1.855   2.417   3.401  0.3541 -0.5570 -0.4267
  831SOL    HW1 2874   1.924   2.455   3.346  0.5860 -0.8241 -0.3212
  831SOL    HW2 2875   1.892   2.416   3.489 -0.4156  0.8789 -0.0609
  832SOL     OW 2876   0.791   0.220   5.631 -0.0938 -0.3412 -0.5059
  832SOL    HW1 2877   0.758   0.242   5.544  0.9020 -0.3002 -0.8853
  832SOL    HW2 2878   0.789   0.124   5.634  1.0407 -0.3916 -1.0526
  833SOL     OW 2879   3.161   0.518   4.040  0.1402 -0.0621 -0.3632
  833SOL    HW1 2880   3.187   0.506   3.948 -0.5955 -0.1455 -0.5648
  833SOL    HW2 2881   3.121   0.605   4.042  2.3662  0.9733  0.3875
  834SOL     OW 2882   1.021   0.592   1.342  0.2293 -0.0551 -0.0617
  834SOL    HW1 2883   1.086   0.646   1.387 -0.5318  1.4709 -0.7472
  834SOL    HW2 2884   0.980   0.540   1.411  0.3438  0.9071  0.7376
  835SOL     OW 2885   0.338   5.457   0.315 -0.1306  0.1223  0.1090
  835SOL    HW1 2886   0.371   5.388   0.257  1.4383  0.6783  0.3079
  835SOL    HW2 2887   0.416   5.507   0.340 -0.9477  0.6402  1.7221
  836SOL     OW 2888   5.402   2.726   1.996 -0.1737  0.4310  0.3422
  836SOL    HW1 2889   5.452   2.688   1.924 -0.0765 -0.4840  0.8850
  836SOL    HW2 2890   5.340   2.786   1.953  1.0324  1.1828 -0.3594
  837SOL     OW 2891   6.144   3.237   3.154 -0.0810 -0.0282 -0.2779
  837SOL    HW1 2892   6.153   3.280   3.239  0.0711  0.0648 -0.3416
  837SOL    HW2 2893   6.205   3.283   3.097 -0.9581  0.6127 -0.7075
  838SOL     OW 2894   0.097   4.607   4.458  0.2248 -0.1714 -0.2273
  838SOL    HW1 2895   0.159   4.660   4.407  1.1622 -1.3126 -0.2754
  838SOL    HW2 2896   0.137   4.521   4.463 -1.4663 -0.9997 -0.4504
  839SOL     OW 2897   3.494   2.482   6.121 -0.4662 -0.3464 -0.3512
  839SOL    HW1 2898   3.468   2.509   6.033 -0.0866  1.7276  0.1503
  839SOL    HW2 2899   3.590   2.481   6.119 -0.4486  0.1797  0.1776
  840SOL     OW 2900   1.448   1.548   3.325 -0.2318  0.2740 -0.3101
  840SOL    HW1 2901   1.422   1.515   3.238 -2.8708 -1.5228  1.0773
  840SOL    HW2 2902   1.444   1.643   3.316 -0.8375  0.1187 -2.0545
  841SOL     OW 2903   5.387   2.630   6.005 -0.2326  0.5062  0.0214
  841SOL    HW1 2904   5.377   2.560   5.941 -1.1031  0.7140 -0.0841
  841SOL    HW2 2905   5.350   2.707   5.962  0.4954  0.9765  0.2299
  842SOL     OW 2906   0.642   5.524   0.899 -0.2549 -0.3308 -0.4366
  842SOL    HW1 2907   0.608   5.572   0.824 -1.7273 -0.1260  0.3287
  842SOL    HW2 2908   0.603   5.437   0.891 -0.4876 -0.2835  0.1136
  843SOL     OW 2909   1.869   4.046   0.753  0.0060 -0.3933  0.2630
  843SOL    HW1 2910   1.965   4.051   0.757 -0.0272  0.1157  0.4108
  843SOL    HW2 2911   1.852   3.974   0.693  0.4565  1.3804 -2.0250
  844SOL     OW 2912   3.350   1.193   2.914 -0.1205 -0.3593 -0.1550
  844SOL    HW1 2913   3.259   1.166   2.901 -0.4427  0.7114 -0.1467
  844SOL    HW2 2914   3.357   1.277   2.869  0.3322  0.5281  1.5178
  845SOL     OW 2915   2.278   1.487   0.505  0.1835  0.1901  0.3693
  845SOL    HW1 2916   2.324   1.559   0.547  0.2472  0.6538 -0.5003
  845SOL    HW2 2917   2.347   1.422   0.488  0.5986  1.0352 -1.2652
  846SOL     OW 2918   0.423   1.181   2.635  0.3772 -0.0293  0.1925
  846SOL    HW1 2919   0.388   1.100   2.673 -1.9407  1.5552  1.5720
  846SOL    HW2 2920   0.500   1.201   2.688  1.9903 -2.2040 -1.2444
  847SOL     OW 2921   3.095   3.985   0.782 -0.0641  0.0974 -0.2466
  847SOL    HW1 2922   3.058   3.938   0.707 -0.7249 -0.8820  0.6898
  847SOL    HW2 2923   3.026   4.047   0.807 -0.1149 -0.0549 -0.0118
  848SOL     OW 2924   3.530   1.459   4.358 -0.2942  0.4292 -0.3296
  848SOL    HW1 2925   3.624   1.449   4.343  0.3245  2.2891  2.0264
  848SOL    HW2 2926   3.521   1.460   4.453 -2.5529  1.6425 -0.5253
  849SOL     OW 2927   1.195   5.199   3.795  0.4781 -0.1486 -0.1141
  849SOL    HW1 2928   1.247   5.216   3.717  1.6481 -2.2934  0.1381
  849SOL    HW2 2929   1.241   5.246   3.865 -0.2772  1.3451 -0.6103
  850SOL     OW 2930   4.853   5.015   5.832  0.3856 -0.2049 -0.6955
  850SOL    HW1 2931   4.888   4.936   5.874  0.5612 -0.2083 -0.8490
  850SOL    HW2 2932   4.874   5.086   5.893 -2.3569 -0.6499  0.8838
  851SOL     OW 2933   4.573   4.976   0.694 -0.2385  0.0577  0.2853
  851SOL    HW1 2934   4.517   4.987   0.771 -0.3037  1.1522  0.0972
  851SOL    HW2 2935   4.531   5.029   0.626  1.2753  1.2948  0.2881
  852SOL     OW 2936   3.479   3.040   4.154 -0.3312 -0.6404  0.2308
  852SOL    HW1 2937   3.392   3.004   4.170 -0.3781 -0.5600  0.1621
  852SOL    HW2 2938   3.517   2.982   4.088 -0.6050 -0.2658 -0.2630
  853SOL     OW 2939   0.270   1.829   3.482  0.8555 -0.2280 -0.5876
  853SOL    HW1 2940   0.331   1.902   3.478 -0.1802  0.7120  0.4463
  853SOL    HW2 2941   0.292   1.782   3.562 -0.1629  0.4690  0.1100
  854SOL     OW 2942   6.280   4.170   0.154  0.2901 -0.2450 -0.4552
  854SOL    HW1 2943   6.352   4.214   0.198 -0.1797  0.1167 -0.0438
  854SOL    HW2 2944   6.272   4.216   0.070 -0.0702  0.3246 -0.1095
  855SOL     OW 2945   0.232   1.637   2.246  0.5707  0.5413  0.3189
  855SOL    HW1 2946   0.291   1.711   2.258  1.6009 -0.1629 -0.2651
  855SOL    HW2 2947   0.151   1.663   2.290  1.1059  1.7730  0.6040
  856SOL     OW 2948   4.951   6.371   0.790 -0.1062 -0.3333 -0.3466
  856SOL    HW1 2949   4.939   6.336   0.878  2.3710 -0.0752  0.1411
  856SOL    HW2 2950   5.020   6.317   0.752 -0.7693 -0.0874 -1.9306
  857SOL     OW 2951   6.286   2.475   0.109  0.4923 -0.0152  0.3419
  857SOL    HW1 2952   6.197   2.505   0.128  0.5123 -0.0599  0.4991
  857SOL    HW2 2953   6.288   2.384   0.140  0.8809  0.2784  1.1861
  858SOL     OW 2954   1.039   5.001   3.458 -0.0426 -0.8696 -0.2879
  858SOL    HW1 2955   1.120   5.032   3.417 -0.3606 -1.1640 -1.1463
  858SOL    HW2 2956   0.974   5.005   3.389 -0.8215 -0.4210  0.4599
  859SOL     OW 2957   4.212   3.133   0.445  0.4681  0.0286 -0.0647
  859SOL    HW1 2958   4.264   3.213   0.437  0.8915  0.0021  2.2024
  859SOL    HW2 2959   4.128   3.155   0.404  1.2609  0.9709 -1.2217
  860SOL     OW 2960   2.224   6.019   3.812 -0.0197  0.3819  0.4745
  860SOL    HW1 2961   2.151   5.956   3.812 -0.7448  1.1783 -0.8524
  860SOL    HW2 2962   2.297   5.972   3.851 -0.3702 -1.5339 -1.0860
  861SOL     OW 2963   5.443   5.661   4.423 -0.4042  0.8515 -0.4032
  861SOL    HW1 2964   5.538   5.672   4.431 -0.3669  0.8113 -0.8032
  861SOL    HW2 2965   5.417   5.617   4.504 -0.2681  2.0615  0.3107
  862SOL     OW 2966   3.839   3.985   6.164 -0.0348  0.5809 -0.0699
  862SOL    HW1 2967   3.851   4.066   6.213  0.3267  1.3247 -1.3474
  862SOL    HW2 2968   3.767   3.940   6.208  0.3847  1.1585  1.2037
  863SOL     OW 2969   3.022   0.849   5.671 -0.1157  0.0796 -0.5373
  863SOL    HW1 2970   2.930   0.826   5.660  0.2551 -1.2871 -0.9093
  863SOL    HW2 2971   3.042   0.907   5.598  0.0271 -1.8650 -2.0969
  864SOL     OW 2972   6.167   5.962   2.313  0.0948 -0.5903 -0.1979
  864SOL    HW1 2973   6.256   5.987   2.338  0.3875 -1.2057 -0.6402
  864SOL    HW2 2974   6.171   5.949   2.219 -0.7080  0.3951 -0.3849
  865SOL     OW 2975   2.491   2.261   5.704  0.2096  0.0774  0.2124
  865SOL    HW1 2976   2.545   2.300   5.635 -2.9460  0.6568 -2.0158
  865SOL    HW2 2977   2.490   2.327   5.774  3.2334 -0.4110  0.8070
  866SOL     OW 2978   1.639   1.639   4.461  0.0527 -0.0492 -0.2162
  866SOL    HW1 2979   1.703   1.571   4.482  1.5678  1.4797  0.2024
  866SOL    HW2 2980   1.684   1.722   4.480 -1.7613  1.0812 -0.6980
  867SOL     OW 2981   3.157   4.401   5.646 -0.0119  0.1751  0.7699
  867SOL    HW1 2982   3.252   4.414   5.648  0.1711 -0.8848  0.0060
  867SOL    HW2 2983   3.132   4.390   5.737  0.5005  1.1447  1.0298
  868SOL     OW 2984   3.222   3.594   3.251 -0.1550  0.2092  0.6543
  868SOL    HW1 2985   3.157   3.640   3.198  0.2708 -0.8992 -0.8723
  868SOL    HW2 2986   3.278   3.663   3.286 -0.1364  0.9187 -0.7677
  869SOL     OW 2987   4.573   5.245   4.105 -0.0091 -0.0530  0.1787
  869SOL    HW1 2988   4.579   5.340   4.095 -0.7649  0.2768  2.4791
  869SOL    HW2 2989   4.663   5.217   4.121  0.0678  0.4298  0.6029
  870SOL     OW 2990   3.643   3.996   5.902 -0.4804 -0.1473 -0.2243
  870SOL    HW1 2991   3.692   3.962   5.827  1.5914 -1.6160  1.7322
  870SOL    HW2 2992   3.658   3.932   5.971 -1.6100  1.6349  1.7169
  871SOL     OW 2993   5.545   2.601   5.152 -0.5199 -0.2820 -0.4526
  871SOL    HW1 2994   5.566   2.672   5.213  2.4401 -1.4818 -0.0101
  871SOL    HW2 2995   5.450   2.607   5.141 -1.0195  0.6175  3.4710
  872SOL     OW 2996   3.454   3.306   2.881  0.4323  0.7312  0.6001
  872SOL    HW1 2997   3.478   3.295   2.789 -0.3036 -0.5836  0.5604
  872SOL    HW2 2998   3.537   3.298   2.928  0.8198  1.4530  0.0605
  873SOL     OW 2999   1.711   3.024   6.028  0.2924 -0.2097 -0.8213
  873SOL    HW1 3000   1.622   3.049   6.053  0.5363 -0.8438  0.7155
  873SOL    HW2 3001   1.735   3.087   5.959 -0.4275  1.4938  0.4601
  874SOL     OW 3002   2.886   1.215   0.270 -0.0639 -0.2161  0.5018
  874SOL    HW1 3003   2.904   1.239   0.361  1.5464 -0.1625  0.1943
  874SOL    HW2 3004   2.936   1.135   0.256 -0.9039 -0.6388 -0.1246
  875SOL     OW 3005   3.463   0.934   1.195  0.0933 -0.3416 -0.8136
  875SOL    HW1 3006   3.518   0.874   1.146  1.3444 -0.5534  0.8127
  875SOL    HW2 3007   3.378   0.889   1.202  0.4968 -1.1433 -1.0898
  876SOL     OW 3008   6.028   5.977   3.838  0.6315  0.2434 -0.1145
  876SOL    HW1 3009   6.059   6.067   3.838  0.8708  0.1649 -0.9299
  876SOL    HW2 3010   6.012   5.957   3.930 -0.6458  1.5439 -0.0362
  877SOL     OW 3011   0.926   3.058   2.021 -0.4948  0.5671  0.2665
  877SOL    HW1 3012   0.858   3.107   2.068 -0.1865  0.4222  0.8685
  877SOL    HW2 3013   0.983   3.126   1.984 -0.6414  0.6817  0.2530
  878SOL     OW 3014   2.259   1.582   5.674 -0.0217  0.1938  0.4527
  878SOL    HW1 3015   2.223   1.544   5.754 -1.2344 -0.3984 -0.3567
  878SOL    HW2 3016   2.191   1.643   5.644  0.2641  0.1408 -0.3223
  879SOL     OW 3017   0.358   0.233   1.927 -0.1076 -0.2420  0.3149
  879SOL    HW1 3018   0.351   0.152   1.877 -2.0054  0.4738 -0.6488
  879SOL    HW2 3019   0.437   0.275   1.893 -0.3230 -0.6686 -0.7415
  880SOL     OW 3020   6.054   1.337   0.374  0.7189 -0.2047  0.1847
  880SOL    HW1 3021   6.047   1.285   0.454  0.4632 -1.1392 -0.4251
  880SOL    HW2 3022   6.012   1.420   0.394  0.9390 -0.3175  1.1141
  881SOL     OW 3023   3.605   2.207   1.527 -0.1376  0.0097  0.6086
  881SOL    HW1 3024   3.546   2.133   1.511  0.2989 -0.5798  1.6605
  881SOL    HW2 3025   3.656   2.180   1.603  1.3542  0.5947 -0.1735
  882SOL     OW 3026   5.442   2.044   1.687  0.0516 -0.7284 -0.6629
  882SOL    HW1 3027   5.486   2.099   1.622  1.5161 -1.1292 -0.0309
  882SOL    HW2 3028   5.348   2.054   1.668  0.2919  2.0212 -0.4975
  883SOL     OW 3029   5.702   2.299   3.242 -0.2728  0.2229  0.0489
  883SOL    HW1 3030   5.610   2.301   3.216 -0.3142  0.5145  0.2170
  883SOL    HW2 3031   5.711   2.369   3.306 -0.0391 -0.1125  0.3866
  884SOL     OW 3032   6.066   2.010   0.659 -0.3400  0.4971 -0.5873
  884SOL    HW1 3033   6.010   2.005   0.736 -0.0315 -1.2106 -0.4534
  884SOL    HW2 3034   6.004   2.020   0.586 -0.7994 -0.5797 -0.3639
  885SOL     OW 3035   1.493   6.072   3.335 -0.1609 -0.6561 -0.1022
  885SOL    HW1 3036   1.588   6.067   3.343 -0.1796  0.9521  1.7648
  885SOL    HW2 3037   1.477   6.149   3.280 -0.3810 -1.6989 -1.5284
  886SOL     OW 3038   4.026   4.132   5.519  0.5181  0.4761 -0.3130
  886SOL    HW1 3039   4.089   4.112   5.588 -0.8099  0.3691  0.8849
  886SOL    HW2 3040   4.074   4.190   5.459  2.4979 -1.4529 -0.6799
  887SOL     OW 3041   2.935   2.130   5.645  0.9150 -0.1433  0.4405
  887SOL    HW1 3042   3.029   2.119   5.663  1.0636  2.0073  1.1313
  887SOL    HW2 3043   2.924   2.094   5.557  2.6370  0.6735 -0.1312
  888SOL     OW 3044   5.530   2.744   2.893 -0.0828 -0.1530  0.3497
  888SOL    HW1 3045   5.600   2.806   2.874  0.7546 -0.6037  1.8356
  888SOL    HW2 3046   5.473   2.747   2.816  1.6593  0.0946 -0.9513
  889SOL     OW 3047   3.470   5.674   5.643 -0.1199 -0.2895 -0.4559
  889SOL    HW1 3048   3.430   5.590   5.622 -0.6571 -0.5820  1.5627
  889SOL    HW2 3049   3.470   5.723   5.561 -3.7900 -0.6459 -0.7470
  890SOL     OW 3050   4.877   3.607   5.014  0.1373 -0.0983  0.1632
  890SOL    HW1 3051   4.954   3.635   5.064 -0.5919 -2.5544  2.7644
  890SOL    HW2 3052   4.808   3.594   5.079 -1.0442 -2.7342 -1.4934
  891SOL     OW 3053   3.316   0.525   2.597 -0.0496  0.3044 -0.2697
  891SOL    HW1 3054   3.240   0.486   2.641 -0.0443  2.0386  1.3327
  891SOL    HW2 3055   3.391   0.484   2.639 -0.0817  0.1539 -0.3600
  892SOL     OW 3056   6.252   1.290   5.115 -0.2528  0.4266 -0.1796
  892SOL    HW1 3057   6.192   1.228   5.074 -1.0612  1.0120  0.1134
  892SOL    HW2 3058   6.256   1.263   5.207  0.6763 -0.1875 -0.3864
  893SOL     OW 3059   5.763   0.131   2.533  0.1953  0.5045 -0.1587
  893SOL    HW1 3060   5.771   0.215   2.578  1.3834  0.6308 -0.5716
  893SOL    HW2 3061   5.797   0.148   2.444  1.3920 -0.6329  0.0553
  894SOL     OW 3062   1.957   1.039   0.038 -0.7050  0.4245  0.0527
  894SOL    HW1 3063   1.864   1.061   0.042 -0.7352  0.1027  1.5049
  894SOL    HW2 3064   1.959   0.954  -0.007 -1.1889  0.0486  0.7249
  895SOL     OW 3065   1.413   3.036   4.401 -0.1805 -0.2478  0.4658
  895SOL    HW1 3066   1.424   2.991   4.317 -0.8617 -1.5472  1.0633
  895SOL    HW2 3067   1.473   3.111   4.396  0.3701 -0.7647 -0.8563
  896SOL     OW 3068   1.125   3.790   3.708 -0.4220  0.2289  0.3226
  896SOL    HW1 3069   1.127   3.886   3.712 -0.6701  0.2207  0.6473
  896SOL    HW2 3070   1.093   3.763   3.794 -0.4017 -0.1455  0.2130
  897SOL     OW 3071   2.974   4.730   4.951 -0.2568 -0.3128 -0.1290
  897SOL    HW1 3072   2.908   4.748   5.018  0.3043 -2.1895  0.9755
  897SOL    HW2 3073   3.003   4.817   4.922  0.3883  0.5784  2.9815
  898SOL     OW 3074   2.119   5.437   4.448 -0.1894  0.2792 -0.4197
  898SOL    HW1 3075   2.053   5.371   4.469  0.5737 -0.2727  0.2719
  898SOL    HW2 3076   2.069   5.511   4.414 -1.0939 -0.4443 -0.6794
  899SOL     OW 3077   1.561   5.979   5.689  0.1144 -0.3332  0.1518
  899SOL    HW1 3078   1.515   5.895   5.692  0.6098 -0.6021  0.3453
  899SOL    HW2 3079   1.574   6.002   5.781  0.3723 -0.2636  0.0979
  900SOL     OW 3080   2.471   1.797   6.292  0.3195 -0.1027 -0.2443
  900SOL    HW1 3081   2.529   1.721   6.298  0.7985  0.2544 -0.3207
  900SOL    HW2 3082   2.517   1.866   6.339  0.0316  0.2353 -0.4550
  901SOL     OW 3083   5.892   2.809   4.045  0.3510 -0.4309 -0.0924
  901SOL    HW1 3084   5.816   2.751   4.043  1.1894 -1.5001 -1.4851
  901SOL    HW2 3085   5.955   2.769   3.985  0.1281  3.0844 -2.8499
  902SOL     OW 3086   3.066   0.360   4.254  0.5898  0.4892 -0.0110
  902SOL    HW1 3087   3.085   0.413   4.177 -1.6103  1.0109 -0.2455
  902SOL    HW2 3088   3.065   0.422   4.326  2.4491  0.0327  0.4172
  903SOL     OW 3089   0.633   5.786   0.650  0.1862  0.2182  0.0138
  903SOL    HW1 3090   0.680   5.820   0.726  2.1061 -0.0775 -1.0152
  903SOL    HW2 3091   0.544   5.773   0.681  0.9392  0.1180  2.2079
  904SOL     OW 3092   3.341   1.826   2.848  0.3514  0.1851 -0.3247
  904SOL    HW1 3093   3.293   1.899   2.889 -1.5981 -0.6776 -0.9805
  904SOL    HW2 3094   3.306   1.823   2.758 -0.5035 -2.3159  0.0604
  905SOL     OW 3095   4.083   6.276   2.589 -0.2375  0.3785  0.5116
  905SOL    HW1 3096   4.094   6.288   2.495  0.8288  0.7251  0.6705
  905SOL    HW2 3097   4.002   6.226   2.598  0.9451 -1.7979 -0.6926
  906SOL     OW 3098   4.900   4.954   6.342 -0.3431 -0.7468  0.3946
  906SOL    HW1 3099   4.974   4.996   6.299 -2.1505  1.3002 -0.8276
  906SOL    HW2 3100   4.936   4.875   6.381  2.6558  0.6382  0.5520
  907SOL     OW 3101   1.614   4.274   3.940  0.1825  0.5466  0.3367
  907SOL    HW1 3102   1.655   4.360   3.940  0.1831  0.5510 -1.0807
  907SOL    HW2 3103   1.631   4.239   3.853 -1.8673  0.0950  0.0924
  908SOL     OW 3104   0.351   5.334   6.192  0.0464  0.0122 -0.0912
  908SOL    HW1 3105   0.311   5.268   6.248 -0.2507  0.9772  0.8618
  908SOL    HW2 3106   0.445   5.326   6.208  0.0758 -0.7843 -0.6656
  909SOL     OW 3107   4.518   5.634   4.663  0.0257 -0.2109 -0.4152
  909SOL    HW1 3108   4.423   5.628   4.670  0.1258 -0.2767  1.0365
  909SOL    HW2 3109   4.541   5.714   4.711  0.5971  0.4789 -1.8102
  910SOL     OW 3110   3.985   3.944   5.944 -0.1785 -0.6510  0.0033
  910SOL    HW1 3111   3.949   3.953   6.032 -1.1799 -3.0901 -0.1362
  910SOL    HW2 3112   3.918   3.979   5.886  0.2291  0.3869  0.1376
  911SOL     OW 3113   1.029   3.136   2.352 -0.0754  0.6957 -0.1253
  911SOL    HW1 3114   0.990   3.173   2.273  1.9190 -1.1202 -2.0012
  911SOL    HW2 3115   1.123   3.137   2.336  0.2774 -1.0758  1.5981
  912SOL     OW 3116   4.052   1.133   4.288 -0.5251 -0.1262 -1.0155
  912SOL    HW1 3117   4.102   1.167   4.213  1.3448  0.8916  0.6324
  912SOL    HW2 3118   4.107   1.063   4.323 -0.6737  0.3856  0.2672
  913SOL     OW 3119   2.048   2.030   5.744 -0.6383  0.1669 -0.1647
  913SOL    HW1 3120   2.112   2.049   5.676 -0.8807 -0.4610 -0.5743
  913SOL    HW2 3121   2.100   1.994   5.816 -0.4747  0.0946 -0.3187
  914SOL     OW 3122   5.293   5.629   3.363  0.0738  0.3174 -0.2131
  914SOL    HW1 3123   5.278   5.535   3.376 -1.5699  0.6711  0.5044
  914SOL    HW2 3124   5.213   5.671   3.393  0.2741  1.8796 -1.7886
  915SOL     OW 3125   4.026   2.352   1.940 -0.1569 -0.3694  0.2414
  915SOL    HW1 3126   4.053   2.338   2.031 -0.9201 -0.0338  0.5225
  915SOL    HW2 3127   4.070   2.282   1.891 -0.1024 -0.8244  0.9301
  916SOL     OW 3128   4.747   4.558   6.250 -0.3155 -0.0012  0.0850
  916SOL    HW1 3129   4.778   4.477   6.291  0.3831  0.2369  0.0346
  916SOL    HW2 3130   4.824   4.615   6.247 -1.0378  1.0418  1.0362
  917SOL     OW 3131   6.275   1.822   5.683  0.8116  0.3202  0.5887
  917SOL    HW1 3132   6.192   1.775   5.691  0.5884  0.1318 -2.1754
  917SOL    HW2 3133   6.251   1.915   5.691  0.2702  0.2800 -0.4825
  918SOL     OW 3134   5.770   2.733   3.767 -0.2646 -0.5995 -0.6944
  918SOL    HW1 3135   5.713   2.698   3.835 -0.7644  0.0678 -0.7639
  918SOL    HW2 3136   5.846   2.675   3.767 -0.8564 -1.3788 -0.4746
  919SOL     OW 3137   4.858   4.235   3.704  0.0741 -0.3553 -0.1702
  919SOL    HW1 3138   4.795   4.171   3.672 -0.1917 -0.5496  0.7244
  919SOL    HW2 3139   4.805   4.305   3.742  0.3402  0.9016 -2.0431
  920SOL     OW 3140   2.471   3.360   3.485 -0.1506 -1.1584  0.5867
  920SOL    HW1 3141   2.506   3.390   3.569  1.5291 -0.5892 -0.2860
  920SOL    HW2 3142   2.513   3.275   3.470 -0.2931 -1.1666  0.2368
  921SOL     OW 3143   5.114   4.152   3.778 -0.2876 -0.4228  0.3335
  921SOL    HW1 3144   5.032   4.194   3.750  0.1530  0.6311  0.6040
  921SOL    HW2 3145   5.086   4.090   3.846 -0.7704  0.5608  1.0546
  922SOL     OW 3146   4.595   2.376   4.100  0.2916  0.1566 -0.2110
  922SOL    HW1 3147   4.647   2.434   4.156  0.2467  0.5419 -0.5667
  922SOL    HW2 3148   4.658   2.344   4.035  0.1168  0.5281 -0.5676
  923SOL     OW 3149   3.740   3.211   0.165  0.7474 -0.1077  0.2922
  923SOL    HW1 3150   3.736   3.121   0.198 -0.6868  0.3168  1.3647
  923SOL    HW2 3151   3.723   3.265   0.242 -0.8900  0.9926 -0.8090
  924SOL     OW 3152   3.424   4.235   4.406 -0.7519 -0.6267  0.0510
  924SOL    HW1 3153   3.479   4.276   4.473  1.0284 -1.6864 -0.7106
  924SOL    HW2 3154   3.378   4.165   4.452 -1.6133  0.3751  0.7343
  925SOL     OW 3155   0.121   4.288   2.085 -0.6978 -0.4148  0.1988
  925SOL    HW1 3156   0.178   4.243   2.146  0.4068 -0.3368 -0.7603
  925SOL    HW2 3157   0.041   4.235   2.084 -0.4540 -0.8123  1.1552
  926SOL     OW 3158   2.689   4.184   5.679  0.5976  0.0771 -0.0194
  926SOL    HW1 3159   2.598   4.153   5.675  0.3614  0.6752  0.5906
  926SOL    HW2 3160   2.736   4.114   5.724  0.4906 -0.3501 -0.5675
  927SOL     OW 3161   2.116   4.963   0.362  0.2735 -0.0009  0.5297
  927SOL    HW1 3162   2.026   4.939   0.385  1.3320 -1.5284  3.3263
  927SOL    HW2 3163   2.149   4.888   0.312 -0.4173  1.1431 -1.6696
  928SOL     OW 3164   2.754   0.876   2.838 -0.2827 -0.5056  0.1111
  928SOL    HW1 3165   2.812   0.923   2.898 -0.4694 -0.9265  0.6357
  928SOL    HW2 3166   2.670   0.871   2.885 -0.2971 -1.2530  0.0209
  929SOL     OW 3167   5.960   1.993   5.447 -0.4870  0.0949 -1.3434
  929SOL    HW1 3168   5.972   2.055   5.519 -0.7120  0.1753 -1.3719
  929SOL    HW2 3169   6.046   1.953   5.434 -0.9313 -1.5675  0.4843
  930SOL     OW 3170   4.204   0.512   3.781 -0.1988  0.7592 -0.3142
  930SOL    HW1 3171   4.225   0.447   3.713  1.3013 -0.3450  1.1590
  930SOL    HW2 3172   4.123   0.479   3.821  0.9961 -0.6843  0.9704
  931SOL     OW 3173   3.136   0.037   4.948 -0.0716  0.2639 -0.7588
  931SOL    HW1 3174   3.101   0.030   4.860  0.2216  2.4333 -1.0745
  931SOL    HW2 3175   3.222   0.076   4.937  0.7261 -1.1212  0.3603
  932SOL     OW 3176   3.647   4.751   3.009 -0.2011  0.1541 -0.4352
  932SOL    HW1 3177   3.619   4.790   3.092  1.0079  2.5702 -1.1022
  932SOL    HW2 3178   3.586   4.679   2.994 -2.1156  1.3809  1.2176
  933SOL     OW 3179   4.550   1.727   0.325 -0.8837  0.3173  0.4400
  933SOL    HW1 3180   4.640   1.731   0.358 -0.4481  0.3937 -0.7331
  933SOL    HW2 3181   4.496   1.755   0.399  0.1001  0.8580  0.9597
  934SOL     OW 3182   5.489   2.799   2.338  0.1664  0.3360  0.1697
  934SOL    HW1 3183   5.570   2.773   2.296  0.2798  1.3487 -0.2327
  934SOL    HW2 3184   5.430   2.724   2.324  0.2712  0.5835 -1.5860
  935SOL     OW 3185   5.827   3.984   6.250 -0.2833  0.1085 -0.0686
  935SOL    HW1 3186   5.845   4.008   6.159 -1.7776  0.1293 -0.3640
  935SOL    HW2 3187   5.831   3.888   6.251  2.5854  0.1853  0.4662
  936SOL     OW 3188   4.869   1.938   3.950 -0.2056 -0.1852 -0.7211
  936SOL    HW1 3189   4.947   1.932   4.006 -1.1602  0.2782  0.6890
  936SOL    HW2 3190   4.884   1.874   3.881  0.0656 -2.3274  1.2595
  937SOL     OW 3191   4.365   4.219   0.955  0.7674  0.4056  0.2837
  937SOL    HW1 3192   4.409   4.291   0.910  0.3432  0.5244  0.0568
  937SOL    HW2 3193   4.347   4.155   0.885 -0.5686  0.9186  0.1549
  938SOL     OW 3194   1.159   3.505   5.807 -0.0191  0.4290  0.2685
  938SOL    HW1 3195   1.172   3.481   5.715  0.5361 -0.2720  0.5249
  938SOL    HW2 3196   1.236   3.469   5.852 -1.6395 -1.6620  1.4425
  939SOL     OW 3197   3.040   1.701   3.474 -0.0091  0.4537  0.2561
  939SOL    HW1 3198   3.060   1.644   3.549 -0.7210  0.0495  0.1385
  939SOL    HW2 3199   2.959   1.666   3.438  0.5128  0.4445 -0.9177
  940SOL     OW 3200   0.649   1.642   2.038 -0.3867 -0.3022  0.2645
  940SOL    HW1 3201   0.621   1.730   2.016 -2.7278 -1.2704 -0.7703
  940SOL    HW2 3202   0.623   1.589   1.963 -0.7104 -2.1904  1.6767
  941SOL     OW 3203   0.795   4.526   4.930  0.0678 -0.0718  0.2217
  941SOL    HW1 3204   0.757   4.605   4.891 -1.0506 -0.2308  0.9624
  941SOL    HW2 3205   0.722   4.464   4.934  1.1711 -1.5412 -1.3464
  942SOL     OW 3206   2.930   6.182   4.659 -0.0881  0.2417  0.3105
  942SOL    HW1 3207   2.964   6.096   4.686  1.2012  0.0373 -1.8415
  942SOL    HW2 3208   2.996   6.244   4.688 -0.9607  0.4963  1.7547
  943SOL     OW 3209   2.923   3.761   2.191 -0.3258 -0.3314 -0.3004
  943SOL    HW1 3210   2.945   3.847   2.157  1.5864 -0.9409 -0.7165
  943SOL    HW2 3211   2.912   3.774   2.285  0.3908  0.3101 -0.2995
  944SOL     OW 3212   2.061   1.292   5.649  0.0970  0.5875 -0.0170
  944SOL    HW1 3213   2.133   1.254   5.699 -0.0629  1.3002  0.7612
  944SOL    HW2 3214   1.988   1.299   5.711 -1.1161 -1.4663 -1.1699
  945SOL     OW 3215   2.622   0.596   4.927  0.1003 -0.0729  0.3801
  945SOL    HW1 3216   2.551   0.540   4.959  1.5952 -2.6584 -0.6509
  945SOL    HW2 3217   2.699   0.566   4.975  0.8351  1.4975  0.1996
  946SOL     OW 3218   0.957   3.910   4.891 -0.0277  0.0308  0.6036
  946SOL    HW1 3219   1.019   3.973   4.928 -0.7791  1.3931 -0.4541
  946SOL    HW2 3220   0.897   3.962   4.839 -0.0097 -1.6827 -1.1868
  947SOL     OW 3221   5.358   5.560   5.539 -1.0144 -0.0682  0.2918
  947SOL    HW1 3222   5.434   5.611   5.569 -1.0720 -0.3131  0.8682
  947SOL    HW2 3223   5.377   5.540   5.448 -1.1984  1.3691 -0.0634
  948SOL     OW 3224   1.456   1.052   1.915  0.3259 -0.0892  0.2373
  948SOL    HW1 3225   1.423   0.979   1.864  0.1136 -1.2385  1.9531
  948SOL    HW2 3226   1.518   1.097   1.857 -0.3864 -0.9564 -1.2129
  949SOL     OW 3227   6.031   6.321   3.810 -0.5774  1.0009 -0.1250
  949SOL    HW1 3228   6.125   6.338   3.814 -0.5241  0.3227  2.3233
  949SOL    HW2 3229   5.990   6.407   3.806  0.0974  1.3365  0.2769
  950SOL     OW 3230   1.626   4.253   4.210  0.2308  0.4393  0.0770
  950SOL    HW1 3231   1.690   4.320   4.234  1.0018  0.4617 -1.9892
  950SOL    HW2 3232   1.632   4.247   4.115 -0.8926 -1.5128  0.1135
  951SOL     OW 3233   1.785   0.166   2.182  0.2051 -0.3788 -0.2194
  951SOL    HW1 3234   1.795   0.240   2.242 -0.4415 -0.7601  0.3590
  951SOL    HW2 3235   1.712   0.116   2.217 -0.6991 -0.1748 -1.7657
  952SOL     OW 3236   2.540   0.738   0.090  0.1579 -0.3360  0.5378
  952SOL    HW1 3237   2.635   0.741   0.082  0.1060  1.4262  0.4270
  952SOL    HW2 3238   2.522   0.651   0.127  1.8282 -0.4987  1.0072
  953SOL     OW 3239   4.345   2.349   5.348  0.6493 -0.0570 -0.0231
  953SOL    HW1 3240   4.265   2.339   5.401  0.2852  0.6458 -0.4282
  953SOL    HW2 3241   4.331   2.430   5.300  2.1535  0.7566  0.8640
  954SOL     OW 3242   6.310   1.392   3.746 -0.7178  0.2095 -0.3643
  954SOL    HW1 3243   6.356   1.471   3.775  0.7184 -0.4255 -0.8676
  954SOL    HW2 3244   6.357   1.320   3.788  0.4676 -0.6218 -3.0070
  955SOL     OW 3245   0.846   1.644   0.552  0.4791  0.3598  0.4600
  955SOL    HW1 3246   0.892   1.563   0.573 -0.5600 -0.1195  0.9254
  955SOL    HW2 3247   0.844   1.646   0.457  0.8686  0.0466  0.4420
  956SOL     OW 3248   1.859   0.791   2.417  0.0476 -0.1618  0.1948
  956SOL    HW1 3249   1.882   0.833   2.500 -0.6860  2.5372 -0.9243
  956SOL    HW2 3250   1.928   0.817   2.357  0.8362 -2.5012  0.0154
  957SOL     OW 3251   3.734   5.816   1.397  0.3098  0.4687 -0.5884
  957SOL    HW1 3252   3.737   5.831   1.303  0.2548 -0.1433 -0.6934
  957SOL    HW2 3253   3.665   5.750   1.409 -0.1027  0.9810 -0.0585
  958SOL     OW 3254   1.461   1.324   4.926 -0.2615 -0.3321 -0.3001
  958SOL    HW1 3255   1.530   1.385   4.900  1.1387 -2.1238 -0.9212
  958SOL    HW2 3256   1.461   1.326   5.021  1.3469 -1.0582 -0.2778
  959SOL     OW 3257   3.070   3.704   0.014 -0.1522  0.6329  0.3186
  959SOL    HW1 3258   3.109   3.791   0.017  0.2627  0.4653 -0.0647
  959SOL    HW2 3259   3.034   3.691   0.101  0.2974  0.9565  0.5574
  960SOL     OW 3260   5.115   3.719   3.321 -0.3596 -0.8310  0.3451
  960SOL    HW1 3261   5.133   3.644   3.263 -0.6090  0.6484 -1.6977
  960SOL    HW2 3262   5.026   3.747   3.297 -0.5948 -0.4040  1.6911
  961SOL     OW 3263   3.560   2.193   3.267  0.1625 -0.0682  0.2417
  961SOL    HW1 3264   3.616   2.125   3.305  0.0252  0.2373  1.0105
  961SOL    HW2 3265   3.484   2.146   3.233 -0.6956 -0.1496  2.2072
  962SOL     OW 3266   1.908   5.100   3.901  0.2411  0.0156  0.2801
  962SOL    HW1 3267   1.969   5.028   3.913  0.7482  0.4755  0.5077
  962SOL    HW2 3268   1.963   5.178   3.901 -0.3467  0.4371  0.5020
  963SOL     OW 3269   1.268   3.832   5.789  0.0915 -0.1025 -0.2406
  963SOL    HW1 3270   1.188   3.859   5.836  0.8583  0.1776  0.9228
  963SOL    HW2 3271   1.238   3.815   5.700 -0.8201  2.4379 -0.4443
  964SOL     OW 3272   2.927   1.154   5.889  0.0818  0.0591 -0.4819
  964SOL    HW1 3273   2.963   1.199   5.965  1.1524 -0.2249 -0.8101
  964SOL    HW2 3274   2.994   1.163   5.821 -0.1720 -1.0731 -0.8995
  965SOL     OW 3275   1.261   0.826   5.926 -0.6232 -0.9555  0.1962
  965SOL    HW1 3276   1.225   0.856   5.842 -1.5085 -2.1121  0.1459
  965SOL    HW2 3277   1.341   0.779   5.902  0.1144  0.2915  0.1714
  966SOL     OW 3278   0.703   0.074   5.367  0.0988 -0.6874 -0.1566
  966SOL    HW1 3279   0.763   0.012   5.409  0.8396 -1.8859 -2.8714
  966SOL    HW2 3280   0.738   0.085   5.279 -1.3941  1.7811 -0.4940
  967SOL     OW 3281   2.429   1.190   3.445 -0.0672 -0.6692 -0.3953
  967SOL    HW1 3282   2.395   1.279   3.433  0.0941 -0.5750 -0.1551
  967SOL    HW2 3283   2.492   1.198   3.516  0.0434 -0.9531 -0.4622
  968SOL     OW 3284   6.126   1.649   3.004  0.1407 -0.4805  0.2786
  968SOL    HW1 3285   6.088   1.563   3.024  0.0298  0.1576  3.0162
  968SOL    HW2 3286   6.051   1.708   2.997  0.2238 -0.5622 -1.4920
  969SOL     OW 3287   4.034   4.592   1.704 -0.9308  0.1490 -0.0477
  969SOL    HW1 3288   3.959   4.645   1.729  0.6344  2.6000 -0.4025
  969SOL    HW2 3289   4.090   4.590   1.782 -0.1603  0.4671 -0.5879
  970SOL     OW 3290   2.276   6.118   5.613  0.2826  0.2244 -0.2412
  970SOL    HW1 3291   2.230   6.040   5.644  1.1083  1.1001  3.4535
  970SOL    HW2 3292   2.207   6.184   5.606  0.1833  0.2006  0.4539
  971SOL     OW 3293   6.214   2.281   2.421 -0.2654  0.6317 -0.3046
  971SOL    HW1 3294   6.295   2.231   2.423 -0.5194  0.2608  1.3691
  971SOL    HW2 3295   6.202   2.312   2.511 -1.9270  0.7545 -0.5500
  972SOL     OW 3296   6.334   4.748   6.033 -0.7487 -0.3768 -0.6655
  972SOL    HW1 3297   6.345   4.758   5.938  0.3901  1.2580 -0.3843
  972SOL    HW2 3298   6.373   4.828   6.070 -0.5768 -1.3094  1.2137
  973SOL     OW 3299   2.705   5.771   1.160 -0.0727 -1.0514  0.0939
  973SOL    HW1 3300   2.670   5.738   1.077 -1.5117  3.2954 -1.1786
  973SOL    HW2 3301   2.634   5.756   1.223 -0.9676  0.0149 -0.6177
  974SOL     OW 3302   0.323   0.145   4.626  0.3452  0.6290 -0.4569
  974SOL    HW1 3303   0.285   0.120   4.710 -0.2920 -3.1174 -1.7588
  974SOL    HW2 3304   0.362   0.064   4.592  0.5939  2.0319 -3.7586
  975SOL     OW 3305   0.470   6.307   4.950  0.6293 -0.5965  0.6851
  975SOL    HW1 3306   0.495   6.399   4.939 -0.7739 -0.3905 -1.0253
  975SOL    HW2 3307   0.527   6.259   4.891 -0.7355 -0.4683 -0.7750
  976SOL     OW 3308   5.925   3.822   1.793 -0.6875 -0.1645  0.3345
  976SOL    HW1 3309   5.887   3.761   1.730  0.1131  0.3782 -0.6812
  976SOL    HW2 3310   5.953   3.896   1.741 -0.2255  0.4009  1.3695
  977SOL     OW 3311   3.384   3.000   3.678  0.3178  0.3420  0.1855
  977SOL    HW1 3312   3.289   2.999   3.689  0.1611  0.0042 -1.0670
  977SOL    HW2 3313   3.411   2.910   3.696  0.4233  0.4604  0.6396
  978SOL     OW 3314   2.843   5.397   0.178  0.1634  0.0629  0.4378
  978SOL    HW1 3315   2.758   5.373   0.142 -0.1186 -0.7482  1.6295
  978SOL    HW2 3316   2.828   5.407   0.272  1.3029  0.2962  0.6064
  979SOL     OW 3317   1.932   1.791   1.458 -0.0944  1.6610  0.5583
  979SOL    HW1 3318   1.860   1.760   1.513  0.1580  2.0993  1.1461
  979SOL    HW2 3319   1.903   1.875   1.425 -1.1357  0.4410 -1.7347
  980SOL     OW 3320   1.572   4.295   5.780 -0.2035  0.0597 -0.4224
  980SOL    HW1 3321   1.530   4.355   5.842 -1.6152 -0.1172 -1.1768
  980SOL    HW2 3322   1.508   4.224   5.768  0.4085 -0.3419 -1.4029
  981SOL     OW 3323   1.496   6.121   1.324 -0.1012  0.3299 -0.0438
  981SOL    HW1 3324   1.546   6.197   1.353 -0.3104  0.2905  0.4324
  981SOL    HW2 3325   1.537   6.047   1.369  0.2774  0.1239 -0.7219
  982SOL     OW 3326   1.275   5.628   2.288  0.3060  0.2677 -0.5146
  982SOL    HW1 3327   1.293   5.690   2.217 -0.5839 -0.1294 -1.1008
  982SOL    HW2 3328   1.256   5.545   2.244  1.1284 -0.3365  0.2504
  983SOL     OW 3329   0.940   2.965   3.393  0.1491  0.5354  0.3272
  983SOL    HW1 3330   0.896   2.885   3.422  0.0257  0.4827 -0.0098
  983SOL    HW2 3331   0.886   3.036   3.427 -0.2492  0.4708 -0.1617
  984SOL     OW 3332   1.008   1.479   5.527 -0.3254 -0.2512 -0.6280
  984SOL    HW1 3333   0.992   1.502   5.619  1.4013 -1.1539 -0.0809
  984SOL    HW2 3334   0.980   1.556   5.478  1.0927  1.2570  0.8565
  985SOL     OW 3335   5.851   6.103   1.571 -0.0398  0.3076  0.4237
  985SOL    HW1 3336   5.874   6.011   1.584  0.6380  0.7965  3.0164
  985SOL    HW2 3337   5.935   6.148   1.566 -0.3588  0.9694  0.8668
  986SOL     OW 3338   3.863   1.611   6.201 -0.2072 -0.3116  0.0986
  986SOL    HW1 3339   3.901   1.699   6.206  2.1210 -1.3295  1.1823
  986SOL    HW2 3340   3.898   1.566   6.278  0.1893 -2.7839 -1.4944
  987SOL     OW 3341   5.693   4.799   0.512  0.2166  0.2099  0.8800
  987SOL    HW1 3342   5.730   4.767   0.430 -1.1535  0.8840 -0.0217
  987SOL    HW2 3343   5.717   4.891   0.515 -0.9582  0.5448  0.5028
  988SOL     OW 3344   5.487   5.433   4.932  0.6715  0.1579  0.4383
  988SOL    HW1 3345   5.396   5.426   4.958  1.0184  0.4888  1.8374
  988SOL    HW2 3346   5.512   5.523   4.957  1.8452 -0.4933  1.7397
  989SOL     OW 3347   4.884   4.231   4.151 -0.8450  0.1565  0.1635
  989SOL    HW1 3348   4.799   4.273   4.169 -1.2971  0.0065 -1.5435
  989SOL    HW2 3349   4.947   4.281   4.203 -1.7609  1.2379  0.2520
  990SOL     OW 3350   6.172   3.045   4.657  0.3882  0.1127  0.3180
  990SOL    HW1 3351   6.259   3.038   4.618 -0.4740 -1.2674 -1.4189
  990SOL    HW2 3352   6.112   3.027   4.585 -1.3833  2.0606  1.2553
  991SOL     OW 3353   0.430   1.960   4.598 -0.4523  0.1607  0.1654
  991SOL    HW1 3354   0.509   1.957   4.545  0.2650  0.7472  1.1811
  991SOL    HW2 3355   0.426   1.875   4.641  0.4368  0.6592  1.2538
  992SOL     OW 3356   2.041   2.142   0.349 -0.1015  0.1824 -0.3106
  992SOL    HW1 3357   2.010   2.158   0.260  1.7649  0.3296 -0.9557
  992SOL    HW2 3358   1.997   2.062   0.376 -0.7967  0.2192 -1.3099
  993SOL     OW 3359   4.091   1.284   2.201  0.0215  0.2829  0.1834
  993SOL    HW1 3360   4.117   1.365   2.157 -2.9133  1.0462 -0.2480
  993SOL    HW2 3361   4.059   1.228   2.131 -0.6042 -0.1687  0.8221
  994SOL     OW 3362   6.277   2.533   4.125  0.8395  0.1730 -0.7242
  994SOL    HW1 3363   6.314   2.454   4.165 -0.1900 -0.9815 -1.9980
  994SOL    HW2 3364   6.195   2.547   4.171  1.5679  1.1707  0.2772
  995SOL     OW 3365   2.967   5.988   4.977 -0.0554 -0.1315  0.3638
  995SOL    HW1 3366   2.985   5.966   4.886  0.4866 -0.5298  0.5631
  995SOL    HW2 3367   2.878   6.023   4.976 -0.1076 -0.2697 -0.2942
  996SOL     OW 3368   4.529   5.339   6.363  0.6234  0.4484 -0.3382
  996SOL    HW1 3369   4.442   5.304   6.383  0.4721  0.3943 -1.0943
  996SOL    HW2 3370   4.573   5.269   6.316  1.1077  0.4489  0.1098
  997SOL     OW 3371   6.295   1.084   3.044 -0.1544  0.2063  0.2414
  997SOL    HW1 3372   6.250   1.009   3.007  0.1553  0.3752 -0.4850
  997SOL    HW2 3373   6.263   1.089   3.135 -1.6551  0.3853 -0.2837
  998SOL     OW 3374   2.586   5.991   0.133 -0.0326 -0.1768 -0.1585
  998SOL    HW1 3375   2.674   5.962   0.108 -0.4265 -0.2991 -1.4085
  998SOL    HW2 3376   2.542   6.011   0.051 -0.8676  0.8137  0.5117
  999SOL     OW 3377   4.690   4.018   1.407  0.4873  0.3005  0.3079
  999SOL    HW1 3378   4.640   4.097   1.388  0.0861 -0.3223 -1.3226
  999SOL    HW2 3379   4.748   4.043   1.479 -0.0706  1.8876  0.2270
 1000SOL     OW 3380   2.423   2.465   4.435 -0.0752  0.7484  0.1128
 1000SOL    HW1 3381   2.519   2.459   4.439 -0.1099  0.6696  0.8172
 1000SOL    HW2 3382   2.406   2.556   4.409  0.1858  0.8114  0.1594
 1001SOL     OW 3383   2.331   3.005   0.524  0.3582 -0.5834 -0.5570
 1001SOL    HW1 3384   2.253   2.956   0.497  0.3363 -0.1740 -1.2487
 1001SOL    HW2 3385   2.317   3.022   0.618 -0.3261 -0.6176 -0.6502
 1002SOL     OW 3386   1.291   4.920   0.222 -0.1522 -0.5312 -0.0701
 1002SOL    HW1 3387   1.277   5.013   0.236 -0.1202  0.0917 -3.6329
 1002SOL    HW2 3388   1.386   4.912   0.211 -0.2573 -0.7684 -0.8799
 1003SOL     OW 3389   5.932   2.368   0.828  0.4943  0.0268  0.1210
 1003SOL    HW1 3390   5.906   2.443   0.775  1.3958 -0.2693 -0.7497
 1003SOL    HW2 3391   5.879   2.295   0.797  2.4207 -0.6228 -1.7860
 1004SOL     OW 3392   2.828   2.906   2.287  0.4658 -0.6768  0.9127
 1004SOL    HW1 3393   2.894   2.975   2.295  1.0298 -1.0683 -0.1687
 1004SOL    HW2 3394   2.776   2.931   2.211 -1.7105  0.4877  2.7278
 1005SOL     OW 3395   3.717   1.870   6.363 -0.2571 -0.5951 -0.4333
 1005SOL    HW1 3396   3.679   1.930   6.427 -0.6267  0.7525 -1.8835
 1005SOL    HW2 3397   3.646   1.807   6.345 -1.5147  1.3049 -2.3632
 1006SOL     OW 3398   2.126   4.646   5.607  0.2284 -0.2375 -0.6821
 1006SOL    HW1 3399   2.107   4.738   5.624 -1.3084 -1.2139  3.4713
 1006SOL    HW2 3400   2.054   4.616   5.551  0.4641  0.9761 -1.6243
 1007SOL     OW 3401   5.161   2.093   5.960 -0.6998 -0.5146  0.0121
 1007SOL    HW1 3402   5.068   2.113   5.953 -0.9993 -1.6828  0.4937
 1007SOL    HW2 3403   5.166   2.022   6.025  0.6045  0.1653  0.6844
 1008SOL     OW 3404   0.934   0.010   1.447  0.2840 -0.6592  0.2300
 1008SOL    HW1 3405   0.858  -0.047   1.458  1.2072 -1.7046  1.2654
 1008SOL    HW2 3406   0.951   0.044   1.535  3.2043 -3.2755  0.7628
 1009SOL     OW 3407   1.142   1.747   2.318 -0.7087 -0.3181  0.2774
 1009SOL    HW1 3408   1.052   1.728   2.293 -0.7349  0.8724 -0.6144
 1009SOL    HW2 3409   1.182   1.661   2.334 -1.5118 -0.9552 -1.0513
 1010SOL     OW 3410   1.007   2.166   0.988  0.2236  0.5336  0.0794
 1010SOL    HW1 3411   0.942   2.106   0.953  0.3568  0.8633 -0.7509
 1010SOL    HW2 3412   0.999   2.245   0.934  1.7034  0.3596 -0.4393
 1011SOL     OW 3413   3.560   3.651   5.637  0.3881 -0.4175 -0.0194
 1011SOL    HW1 3414   3.544   3.575   5.692  1.6007 -1.2136 -0.7336
 1011SOL    HW2 3415   3.619   3.706   5.688 -0.5328  0.0758  0.5198
 1012SOL     OW 3416   5.882   3.627   5.481 -0.1594 -0.0392  0.1972
 1012SOL    HW1 3417   5.884   3.575   5.401  0.1179  1.1305 -0.5718
 1012SOL    HW2 3418   5.968   3.616   5.520  1.0010  2.2718 -1.5793
 1013SOL     OW 3419   0.283   0.683   0.988 -0.2327 -0.2361 -0.2729
 1013SOL    HW1 3420   0.252   0.752   0.930  1.1086  0.8747  0.3100
 1013SOL    HW2 3421   0.319   0.729   1.064  1.7656 -1.5089 -0.4108
 1014SOL     OW 3422   4.671   4.074   5.002  0.3620 -0.3409 -0.1157
 1014SOL    HW1 3423   4.736   4.101   4.937  0.6537  1.1528  0.7545
 1014SOL    HW2 3424   4.707   3.994   5.041 -0.0322 -1.4876 -2.0764
 1015SOL     OW 3425   3.929   3.383   2.549  0.5470  0.3943  0.4774
 1015SOL    HW1 3426   3.890   3.445   2.488 -0.2025 -0.3068  0.2406
 1015SOL    HW2 3427   3.887   3.403   2.633  0.8335  0.6822  0.5535
 1016SOL     OW 3428   4.546   2.260   5.042  0.0781  0.0364  0.3281
 1016SOL    HW1 3429   4.518   2.192   5.103 -0.3618 -1.8885 -1.9286
 1016SOL    HW2 3430   4.636   2.235   5.019  0.5172  1.1853  0.7636
 1017SOL     OW 3431   1.559   4.968   1.435  0.0345 -0.2332  0.6649
 1017SOL    HW1 3432   1.652   4.964   1.413 -0.0008 -1.1506  0.6634
 1017SOL    HW2 3433   1.551   5.046   1.489  0.5782  0.5864 -0.3999
 1018SOL     OW 3434   4.066   5.732   2.127 -0.0261  0.4978  0.8019
 1018SOL    HW1 3435   3.979   5.771   2.142 -0.3352  0.3415 -0.5177
 1018SOL    HW2 3436   4.063   5.648   2.173 -1.3528 -0.4885 -1.0255
 1019SOL     OW 3437   5.748   5.988   1.068 -0.1280 -0.0180 -0.0099
 1019SOL    HW1 3438   5.745   6.021   1.158 -1.1449 -0.0737 -0.0236
 1019SOL    HW2 3439   5.710   6.057   1.015  0.4783  0.0173 -0.4055
 1020SOL     OW 3440   5.313   0.791   5.510 -0.2673 -0.0382  0.2645
 1020SOL    HW1 3441   5.291   0.710   5.555 -0.8012 -0.1843 -0.2591
 1020SOL    HW2 3442   5.237   0.810   5.455 -0.5573  1.3340  1.1241
 1021SOL     OW 3443   5.332   1.521   2.010  0.2784 -0.0663 -0.0426
 1021SOL    HW1 3444   5.323   1.545   2.103 -0.3720  0.8752 -0.3405
 1021SOL    HW2 3445   5.317   1.603   1.963 -0.0412 -0.6743 -1.0082
 1022SOL     OW 3446   2.441   1.778   5.249  0.6544  0.0030  0.2600
 1022SOL    HW1 3447   2.367   1.771   5.310  0.0533  1.4800 -0.2591
 1022SOL    HW2 3448   2.468   1.688   5.233 -1.2906 -0.5856  0.1473
 1023SOL     OW 3449   5.905   6.073   4.980  0.1253  0.2382 -0.2076
 1023SOL    HW1 3450   5.886   5.987   4.942 -2.3852  0.1981  1.0074
 1023SOL    HW2 3451   5.894   6.060   5.074  1.1289  1.5524  0.0945
 1024SOL     OW 3452   2.821   2.344   1.464 -0.6389  0.0828  0.2469
 1024SOL    HW1 3453   2.813   2.303   1.551  0.9721 -0.3014  0.2396
 1024SOL    HW2 3454   2.874   2.282   1.414 -2.1260 -0.0155 -1.2350
 1025SOL     OW 3455   4.422   1.982   6.233 -0.0046  0.0078 -0.6006
 1025SOL    HW1 3456   4.434   2.045   6.162 -1.2470  1.0308  0.0969
 1025SOL    HW2 3457   4.386   1.904   6.190  0.2446  0.2500 -1.2489
 1026SOL     OW 3458   2.317   4.536   6.138 -0.6621 -0.4159 -0.3212
 1026SOL    HW1 3459   2.398   4.586   6.145 -1.7756  1.0329  2.7315
 1026SOL    HW2 3460   2.276   4.569   6.058 -0.4098  2.1027  0.5507
 1027SOL     OW 3461   5.485   4.444   5.812 -0.1114 -0.0379 -0.0130
 1027SOL    HW1 3462   5.453   4.480   5.894  1.9162 -0.9140  1.1919
 1027SOL    HW2 3463   5.415   4.387   5.782 -0.1080 -1.2073  2.1045
 1028SOL     OW 3464   0.923   2.347   5.426  0.1418 -0.3033 -0.4587
 1028SOL    HW1 3465   0.845   2.293   5.438  0.1893 -0.5069 -1.0599
 1028SOL    HW2 3466   0.971   2.305   5.355  0.7509 -0.1181 -0.1636
 1029SOL     OW 3467   2.867   0.489   3.482  0.2438  0.3882 -0.6135
 1029SOL    HW1 3468   2.894   0.581   3.488  1.3317  0.0332  0.0006
 1029SOL    HW2 3469   2.826   0.471   3.567 -1.1743  0.6762 -1.2225
 1030SOL     OW 3470   0.007   3.300   3.017  0.4066  0.2341 -0.7732
 1030SOL    HW1 3471   0.014   3.205   3.024 -0.7506  0.1886 -0.1777
 1030SOL    HW2 3472  -0.030   3.316   2.930  1.9746  0.2134 -1.4602
 1031SOL     OW 3473   3.572   3.685   2.816 -0.2209  0.4019 -0.2176
 1031SOL    HW1 3474   3.632   3.645   2.753 -0.6692 -0.7201  0.0496
 1031SOL    HW2 3475   3.542   3.765   2.773 -0.7627 -0.5030 -1.5663
 1032SOL     OW 3476   1.234   2.233   5.424  0.3632  0.4515 -0.6639
 1032SOL    HW1 3477   1.198   2.238   5.335  1.4076 -0.0742 -1.1161
 1032SOL    HW2 3478   1.225   2.141   5.448 -2.3671  1.0198  0.8243
 1033SOL     OW 3479   1.688   0.660   5.180  0.0068  0.0833 -0.2880
 1033SOL    HW1 3480   1.600   0.623   5.187 -0.3172  1.2642  2.7020
 1033SOL    HW2 3481   1.673   0.752   5.158  0.5143  0.1787 -0.2339
 1034SOL     OW 3482   2.766   1.806   0.066 -0.1871 -0.1156  0.3502
 1034SOL    HW1 3483   2.747   1.728   0.119 -0.0662 -0.8236 -0.6377
 1034SOL    HW2 3484   2.696   1.867   0.089 -0.4461 -0.6225  0.9330
 1035SOL     OW 3485   5.022   0.873   4.913 -0.0684 -0.2899  0.0209
 1035SOL    HW1 3486   5.113   0.895   4.892  0.7943 -1.8811  1.9879
 1035SOL    HW2 3487   5.010   0.784   4.878 -0.5597 -0.4734  0.6519
 1036SOL     OW 3488   1.918   0.617   5.350 -0.3434  0.2646  0.1328
 1036SOL    HW1 3489   1.833   0.616   5.306  0.2414 -1.7917 -1.0379
 1036SOL    HW2 3490   1.963   0.694   5.315 -0.4742 -0.4864 -1.7391
 1037SOL     OW 3491   3.834   4.801   4.261 -0.4162  0.0257  0.3567
 1037SOL    HW1 3492   3.824   4.849   4.179  0.8258  0.0601  0.2085
 1037SOL    HW2 3493   3.910   4.841   4.303  1.0062 -2.1706 -0.0372
 1038SOL     OW 3494   0.545   3.413   0.555 -0.5376 -0.2555  0.5938
 1038SOL    HW1 3495   0.574   3.399   0.464 -0.9538  2.2725  0.0464
 1038SOL    HW2 3496   0.515   3.327   0.583  0.8868 -1.3939 -1.1957
 1039SOL     OW 3497   3.584   3.148   0.429  0.0202  0.4523  0.2915
 1039SOL    HW1 3498   3.663   3.171   0.478  0.9722  2.2970 -2.0162
 1039SOL    HW2 3499   3.519   3.212   0.458  0.7261  1.8649 -1.1458
 1040SOL     OW 3500   3.825   3.461   1.691 -0.7037 -0.0481  0.7218
 1040SOL    HW1 3501   3.776   3.509   1.623 -0.1946 -1.5577 -0.7319
 1040SOL    HW2 3502   3.914   3.457   1.658 -0.6105 -1.4534  1.1160
 1041SOL     OW 3503   5.279   1.858   5.324 -0.4692  0.2924  0.3534
 1041SOL    HW1 3504   5.367   1.830   5.301 -0.3909 -0.2168  1.2401
 1041SOL    HW2 3505   5.276   1.951   5.301 -0.1833 -0.0451 -1.0345
 1042SOL     OW 3506   2.972   3.736   4.267  0.2136 -0.3833  0.0259
 1042SOL    HW1 3507   3.049   3.702   4.313 -0.4262  1.3165  2.4723
 1042SOL    HW2 3508   2.913   3.662   4.260  1.1427 -1.1424  0.1716
 1043SOL     OW 3509   4.897   0.848   0.961 -0.2127  0.0890 -0.1003
 1043SOL    HW1 3510   4.861   0.761   0.948 -0.5822 -0.1729  2.4175
 1043SOL    HW2 3511   4.992   0.835   0.967 -0.2502 -0.1265  0.0324
 1044SOL     OW 3512   1.558   1.791   6.217 -0.4505 -0.0740  0.0517
 1044SOL    HW1 3513   1.464   1.774   6.210 -0.5249  0.9592 -1.8608
 1044SOL    HW2 3514   1.567   1.882   6.190  1.0023  0.1138  1.1595
 1045SOL     OW 3515   3.409   4.419   1.286  0.6913 -0.0829 -0.0696
 1045SOL    HW1 3516   3.448   4.409   1.199  0.0386  0.7919 -0.4668
 1045SOL    HW2 3517   3.388   4.330   1.314  1.4175 -0.4113 -0.5696
 1046SOL     OW 3518   1.001   0.726   0.928  0.1534  0.7128 -0.2921
 1046SOL    HW1 3519   1.078   0.762   0.973  0.9235  0.2188 -1.1993
 1046SOL    HW2 3520   1.024   0.727   0.835 -0.1208 -1.3492 -0.4160
 1047SOL     OW 3521   0.169   0.605   4.155 -0.5533 -0.2609 -0.0964
 1047SOL    HW1 3522   0.205   0.650   4.079  0.6466  1.4139  1.4480
 1047SOL    HW2 3523   0.244   0.565   4.198 -1.2300 -1.2460  0.2014
 1048SOL     OW 3524   1.840   3.326   3.611 -0.5636 -0.2151 -0.2970
 1048SOL    HW1 3525   1.793   3.320   3.528  0.2290  0.3051 -0.8005
 1048SOL    HW2 3526   1.780   3.373   3.670 -0.1108  1.7932 -1.3844
 1049SOL     OW 3527   4.660   4.835   1.017 -0.5124 -0.0258 -0.0999
 1049SOL    HW1 3528   4.691   4.763   0.962  0.0978 -0.0005  0.2037
 1049SOL    HW2 3529   4.733   4.896   1.021 -0.2382 -0.4215  1.4062
 1050SOL     OW 3530   3.607   4.016   4.266 -0.3909  0.4468 -0.0318
 1050SOL    HW1 3531   3.535   4.076   4.287 -0.7957 -0.1513  0.3134
 1050SOL    HW2 3532   3.685   4.059   4.301 -0.0242  2.7706 -3.4482
 1051SOL     OW 3533   3.416   4.943   2.687 -0.5975 -0.2130  0.7979
 1051SOL    HW1 3534   3.496   4.990   2.711  0.2566 -1.8621  1.2472
 1051SOL    HW2 3535   3.392   4.977   2.601  1.6667 -1.0507 -0.1860
 1052SOL     OW 3536   3.566   3.690   3.880  0.0167  0.5901 -0.2737
 1052SOL    HW1 3537   3.514   3.646   3.813 -2.8158  2.8301  0.3284
 1052SOL    HW2 3538   3.510   3.762   3.909  3.7482  3.5006  0.0053
 1053SOL     OW 3539   3.552   0.584   5.243  0.0957 -0.3148 -0.4895
 1053SOL    HW1 3540   3.573   0.517   5.177  1.3757 -0.2295 -0.1659
 1053SOL    HW2 3541   3.632   0.635   5.252  0.2821 -0.9812  1.9251
 1054SOL     OW 3542   3.169   3.737   0.920 -0.3633 -0.0947  0.1183
 1054SOL    HW1 3543   3.112   3.670   0.956 -0.3320  0.7800  1.8316
 1054SOL    HW2 3544   3.109   3.804   0.887 -0.4350 -1.4814 -2.7342
 1055SOL     OW 3545   2.658   5.895   2.082  0.0728  0.2808  0.0884
 1055SOL    HW1 3546   2.645   5.878   2.175 -0.1417 -0.7082 -0.1127
 1055SOL    HW2 3547   2.570   5.885   2.043  0.5727 -1.7926 -0.5806
 1056SOL     OW 3548   2.910   3.106   2.509 -0.1371 -0.0618 -0.7374
 1056SOL    HW1 3549   2.856   3.050   2.566  1.3246  1.0126  1.7742
 1056SOL    HW2 3550   2.851   3.176   2.481 -0.6256 -0.0908  0.2160
 1057SOL     OW 3551   2.318   2.046   5.611  0.1320  0.2039 -0.2209
 1057SOL    HW1 3552   2.345   2.130   5.646 -0.7212  0.8750 -1.1382
 1057SOL    HW2 3553   2.373   2.033   5.534 -0.9315  0.7514 -1.0839
 1058SOL     OW 3554   1.955   1.234   6.017 -0.6199  0.0053  0.6218
 1058SOL    HW1 3555   1.873   1.258   6.061 -0.8420 -0.0469  0.2381
 1058SOL    HW2 3556   2.022   1.284   6.062 -0.8989  0.2570  0.7604
 1059SOL     OW 3557   1.989   2.757   5.427 -0.2616 -0.0575 -0.3120
 1059SOL    HW1 3558   1.955   2.707   5.352 -0.9147 -1.1741  0.7097
 1059SOL    HW2 3559   1.975   2.849   5.403 -1.1931 -0.4240 -1.2259
 1060SOL     OW 3560   2.994   5.711   3.595 -0.0968  0.0090  0.0179
 1060SOL    HW1 3561   2.915   5.668   3.629  0.0428  0.0303  0.3761
 1060SOL    HW2 3562   2.993   5.797   3.637  0.6439 -0.3597  0.7931
 1061SOL     OW 3563   6.004   4.239   0.407  0.0782  0.1087  0.3170
 1061SOL    HW1 3564   5.998   4.186   0.486  1.6127 -0.6869 -0.0796
 1061SOL    HW2 3565   5.953   4.317   0.427 -1.5406 -1.1487  1.2059
 1062SOL     OW 3566   5.863   2.238   2.533 -0.0749 -0.2052 -0.3153
 1062SOL    HW1 3567   5.772   2.212   2.518 -0.1922 -1.5251  2.3811
 1062SOL    HW2 3568   5.914   2.166   2.495 -0.2142 -0.5565  0.1581
 1063SOL     OW 3569   3.888   4.457   6.219 -0.0638  0.3577  0.5225
 1063SOL    HW1 3570   3.959   4.458   6.156  0.7129 -1.9320  1.3161
 1063SOL    HW2 3571   3.894   4.542   6.263  0.5976  1.1818 -1.1180
 1064SOL     OW 3572   6.047   5.362   3.164  0.1113 -0.2116 -0.1879
 1064SOL    HW1 3573   6.039   5.277   3.206 -1.8031 -0.0410 -0.1720
 1064SOL    HW2 3574   6.089   5.344   3.080  0.4211 -1.0545  0.1471
 1065SOL     OW 3575   4.907   5.111   0.313 -0.2704  1.2056  0.2795
 1065SOL    HW1 3576   4.998   5.085   0.298 -0.4398  1.4520 -1.2834
 1065SOL    HW2 3577   4.881   5.063   0.391  0.9679  0.5502  0.3092
 1066SOL     OW 3578   2.745   5.505   5.472 -0.3121  0.0457  0.1370
 1066SOL    HW1 3579   2.719   5.561   5.545  0.8397 -0.4470  0.9425
 1066SOL    HW2 3580   2.835   5.479   5.493  0.1964  0.2864 -1.6923
 1067SOL     OW 3581   0.002   3.906   2.269  0.5070 -0.4577 -0.3206
 1067SOL    HW1 3582  -0.066   3.855   2.314 -0.5842  1.8722  0.7565
 1067SOL    HW2 3583   0.084   3.863   2.292 -0.2723 -0.9077  1.7045
 1068SOL     OW 3584   5.921   1.596   6.203 -0.3916 -0.0856 -0.1556
 1068SOL    HW1 3585   5.961   1.619   6.287  1.3274 -2.0623 -0.3836
 1068SOL    HW2 3586   5.874   1.514   6.221 -1.0086  0.1146 -0.8480
 1069SOL     OW 3587   3.590   4.968   5.816 -0.4997  0.5995 -0.7026
 1069SOL    HW1 3588   3.622   5.031   5.751  1.1543 -1.1889 -1.6636
 1069SOL    HW2 3589   3.513   4.929   5.776 -1.9788  2.5051  0.2083
 1070SOL     OW 3590   4.794   0.120   4.974 -0.3581 -0.3430  0.2016
 1070SOL    HW1 3591   4.707   0.087   4.996  0.4297 -2.4610  0.2494
 1070SOL    HW2 3592   4.779   0.180   4.901 -2.1127  1.0588  1.6721
 1071SOL     OW 3593   1.754   6.015   3.350 -0.6020 -0.3790 -0.1862
 1071SOL    HW1 3594   1.718   5.939   3.397  1.2632 -1.4757 -0.4980
 1071SOL    HW2 3595   1.812   5.977   3.284 -0.4749  1.2994 -1.0484
 1072SOL     OW 3596   6.007   3.617   3.633  0.4622  0.2566  0.0235
 1072SOL    HW1 3597   5.927   3.669   3.629  0.3853  0.4940  3.2861
 1072SOL    HW2 3598   6.031   3.604   3.541 -2.6876  1.1095 -1.0131
 1073SOL     OW 3599   2.772   2.793   3.630 -0.0054 -0.3301 -0.5786
 1073SOL    HW1 3600   2.815   2.879   3.635 -0.9419  0.0983  0.5137
 1073SOL    HW2 3601   2.803   2.747   3.708 -0.0848 -0.7023 -0.7704
 1074SOL     OW 3602   5.670   2.168   2.140 -0.2880 -0.2042  0.2209
 1074SOL    HW1 3603   5.632   2.088   2.104 -0.6881 -0.1726  0.5783
 1074SOL    HW2 3604   5.757   2.174   2.098 -0.3620 -0.6832 -0.0000
 1075SOL     OW 3605   3.755   0.655   1.276 -0.2315  0.1295  0.5442
 1075SOL    HW1 3606   3.802   0.648   1.193  0.0431  0.6648  0.6492
 1075SOL    HW2 3607   3.768   0.746   1.303  0.1000 -0.1762  1.4218
 1076SOL     OW 3608   5.956   4.492   4.996 -0.3179 -0.4736  0.3076
 1076SOL    HW1 3609   5.874   4.451   5.022 -0.7005  1.0440  1.5486
 1076SOL    HW2 3610   5.940   4.522   4.906 -0.8590 -0.8193  0.2841
 1077SOL     OW 3611   2.350   3.505   0.977 -0.0626 -0.7120  0.4443
 1077SOL    HW1 3612   2.296   3.570   1.022  1.2012  1.9056 -1.6432
 1077SOL    HW2 3613   2.398   3.461   1.047 -1.1146  0.4835  1.9448
 1078SOL     OW 3614   2.365   4.599   3.483  0.0848 -0.5630 -0.1663
 1078SOL    HW1 3615   2.317   4.519   3.460  1.0133 -0.8639 -1.1063
 1078SOL    HW2 3616   2.297   4.665   3.496 -0.6335 -1.2082 -0.5960
 1079SOL     OW 3617   1.507   2.650   6.109 -0.2959 -0.2370  0.2580
 1079SOL    HW1 3618   1.461   2.724   6.069 -1.1187 -0.4355  0.8226
 1079SOL    HW2 3619   1.596   2.654   6.073 -0.5188  0.6515 -0.1976
 1080SOL     OW 3620   2.012   5.072   0.875 -0.4305 -0.1585  0.2850
 1080SOL    HW1 3621   2.094   5.107   0.908 -1.4268 -0.1837  2.9422
 1080SOL    HW2 3622   2.036   4.989   0.834  1.1112  0.7905 -0.7706
 1081SOL     OW 3623   2.414   1.212   1.234 -0.6934  0.3242 -0.2115
 1081SOL    HW1 3624   2.462   1.270   1.294  1.2555  0.5429 -1.9293
 1081SOL    HW2 3625   2.330   1.256   1.221 -0.0721  1.6614  0.2061
 1082SOL     OW 3626   5.505   5.820   3.315  0.0995  0.1678 -0.3403
 1082SOL    HW1 3627   5.592   5.786   3.292  0.7869  0.6331  1.4913
 1082SOL    HW2 3628   5.452   5.741   3.330  1.0944 -0.1236  1.7272
 1083SOL     OW 3629   0.053   5.248   0.697 -0.8356 -0.0317  0.5269
 1083SOL    HW1 3630   0.135   5.293   0.718  0.2749 -1.7354 -0.0065
 1083SOL    HW2 3631   0.060   5.228   0.604  0.2563 -4.2106  1.3801
 1084SOL     OW 3632   2.393   5.855   2.024 -0.0132  0.0825  0.4784
 1084SOL    HW1 3633   2.340   5.895   1.955  0.2659  0.4955  0.5036
 1084SOL    HW2 3634   2.336   5.855   2.101 -0.0121  0.4402  0.4800
 1085SOL     OW 3635   5.378   3.090   5.189 -0.1556 -0.3967  0.0589
 1085SOL    HW1 3636   5.444   3.065   5.253 -0.2529  1.1129  0.7791
 1085SOL    HW2 3637   5.367   3.013   5.133  3.0736 -0.2836 -0.8323
 1086SOL     OW 3638   0.452   4.997   3.908  0.1852 -0.2476  0.0384
 1086SOL    HW1 3639   0.367   4.954   3.896  0.8421 -2.0767  1.7082
 1086SOL    HW2 3640   0.440   5.054   3.984  0.1611  0.3566 -0.4079
 1087SOL     OW 3641   1.728   1.443   3.845  0.2898 -0.2762 -0.2807
 1087SOL    HW1 3642   1.811   1.397   3.860  1.4214  2.0484  0.8859
 1087SOL    HW2 3643   1.689   1.451   3.933  0.1665  1.0559 -0.4465
 1088SOL     OW 3644   5.074   1.482   4.619 -0.1394  0.1784 -0.0459
 1088SOL    HW1 3645   5.109   1.558   4.572  1.9885  0.3738  1.7700
 1088SOL    HW2 3646   5.141   1.414   4.609 -1.2466 -0.9044 -0.2115
 1089SOL     OW 3647   2.921   2.115   0.028  0.2519  0.0619 -0.6037
 1089SOL    HW1 3648   2.931   2.210   0.037 -1.0749  0.2061 -0.4309
 1089SOL    HW2 3649   2.909   2.084   0.118  0.4031 -0.2350 -0.6866
 1090SOL     OW 3650   3.048   1.109   3.821  0.0923 -0.4309 -0.2479
 1090SOL    HW1 3651   3.102   1.171   3.870  0.0683 -0.3513 -0.3206
 1090SOL    HW2 3652   3.110   1.048   3.783 -0.0058 -1.5455  1.3196
 1091SOL     OW 3653   1.929   5.844   3.189  0.2406 -0.2190 -0.0832
 1091SOL    HW1 3654   1.893   5.767   3.232 -0.1119  0.2916  0.5561
 1091SOL    HW2 3655   1.928   5.823   3.096  1.0621 -1.3621  0.1617
 1092SOL     OW 3656   5.400   5.481   5.901  0.5925  0.3014  0.5874
 1092SOL    HW1 3657   5.419   5.425   5.826  1.3345  0.2534  0.7990
 1092SOL    HW2 3658   5.470   5.460   5.964 -0.3617 -0.0991  1.5287
 1093SOL     OW 3659   3.210   2.337   4.373  0.7636 -0.0313  0.2945
 1093SOL    HW1 3660   3.286   2.394   4.359  0.5581  0.2496  0.3286
 1093SOL    HW2 3661   3.150   2.358   4.302 -0.4445  1.6767  1.7958
 1094SOL     OW 3662   3.153   5.013   5.103  0.1302  0.0120  0.4368
 1094SOL    HW1 3663   3.198   5.091   5.135  0.2968  0.0420  0.1307
 1094SOL    HW2 3664   3.222   4.948   5.092  0.0227 -0.1100  0.4812
 1095SOL     OW 3665   3.789   4.268   4.137  0.1622 -0.2412 -0.3569
 1095SOL    HW1 3666   3.777   4.355   4.174 -0.6974 -1.1684  1.6805
 1095SOL    HW2 3667   3.797   4.211   4.214  1.8545 -1.8080 -1.6464
 1096SOL     OW 3668   6.154   0.727   1.432 -0.1484  0.2458  0.1078
 1096SOL    HW1 3669   6.119   0.671   1.363 -0.9774  0.5479  0.2734
 1096SOL    HW2 3670   6.121   0.689   1.513  0.2778  0.2736  0.2906
 1097SOL     OW 3671   3.144   5.581   4.637 -0.2045  0.2107 -0.4761
 1097SOL    HW1 3672   3.232   5.545   4.624 -0.3192 -0.7387  1.1991
 1097SOL    HW2 3673   3.154   5.643   4.709 -0.6094  1.3174 -1.3579
 1098SOL     OW 3674   3.777   0.716   5.285 -0.6579  0.2177  0.0686
 1098SOL    HW1 3675   3.819   0.801   5.266 -0.6542  0.1822 -0.0818
 1098SOL    HW2 3676   3.849   0.659   5.309 -0.6468  0.2246  0.0516
 1099SOL     OW 3677   0.617   5.724   1.633 -0.3122 -0.2588 -0.1968
 1099SOL    HW1 3678   0.597   5.817   1.649 -2.2789 -0.9172  1.3505
 1099SOL    HW2 3679   0.583   5.707   1.545 -0.6318  0.2868 -0.1780
 1100SOL     OW 3680   0.378   0.810   0.567 -0.6328  0.3871  0.0949
 1100SOL    HW1 3681   0.319   0.766   0.627  1.1304 -2.1267  0.0724
 1100SOL    HW2 3682   0.461   0.815   0.613  0.7042 -1.4254 -2.0110
 1101SOL     OW 3683   5.025   1.316   1.227 -0.4008 -0.0048 -0.0543
 1101SOL    HW1 3684   5.039   1.261   1.151 -2.2715 -0.7326  0.0921
 1101SOL    HW2 3685   5.094   1.291   1.288 -0.0006 -0.7298 -0.7984
 1102SOL     OW 3686   2.001   3.022   0.862  0.3766  0.3035 -0.8529
 1102SOL    HW1 3687   1.955   2.939   0.852  0.1412  0.2086  0.9188
 1102SOL    HW2 3688   1.962   3.063   0.939  2.7477  0.5263  0.2866
 1103SOL     OW 3689   0.968   3.105   1.229  0.4375  0.4497 -0.8665
 1103SOL    HW1 3690   0.956   3.046   1.303  0.9968 -0.0693 -1.1863
 1103SOL    HW2 3691   0.889   3.093   1.175  1.5662 -1.7195 -2.1132
 1104SOL     OW 3692   5.219   5.299   0.360 -0.2298  0.0045 -0.1006
 1104SOL    HW1 3693   5.166   5.323   0.436 -0.5071  0.0490 -0.3047
 1104SOL    HW2 3694   5.308   5.323   0.383 -0.5465  1.5502 -0.4320
 1105SOL     OW 3695   4.828   0.978   3.028  0.6735 -0.4391 -0.4562
 1105SOL    HW1 3696   4.860   1.024   2.950 -0.3035 -1.0514 -1.2313
 1105SOL    HW2 3697   4.746   0.937   2.999  0.1898 -0.4883  0.9568
 1106SOL     OW 3698   2.075   1.287   3.289 -0.0833  0.1987 -0.0933
 1106SOL    HW1 3699   2.143   1.355   3.293 -0.4061  0.4966  0.4164
 1106SOL    HW2 3700   2.103   1.221   3.352 -1.3912  1.3800  1.7854
 1107SOL     OW 3701   2.060   1.655   1.075 -0.0531 -0.2301 -0.1845
 1107SOL    HW1 3702   2.055   1.738   1.026  1.0487 -0.6089 -0.9501
 1107SOL    HW2 3703   2.066   1.588   1.007 -0.3465 -0.9026  0.4515
 1108SOL     OW 3704   0.744   2.352   5.887  0.0996 -0.1728 -0.7413
 1108SOL    HW1 3705   0.708   2.440   5.897 -1.9121 -0.9407 -0.9307
 1108SOL    HW2 3706   0.828   2.365   5.843  0.3608  1.7273  0.2631
 1109SOL     OW 3707   4.990   1.025   0.718 -0.1710  0.0836 -0.8651
 1109SOL    HW1 3708   4.947   0.959   0.772  0.3262  0.3350 -0.1646
 1109SOL    HW2 3709   4.917   1.076   0.681 -0.5766 -1.1995 -1.8613
 1110SOL     OW 3710   3.440   1.169   5.820 -0.1064 -0.1393 -0.0302
 1110SOL    HW1 3711   3.444   1.254   5.863 -0.5936 -1.1604  2.0902
 1110SOL    HW2 3712   3.373   1.180   5.752 -2.4737  0.2830  2.2985
 1111SOL     OW 3713   1.363   2.929   1.722  0.3276 -0.0990 -0.1229
 1111SOL    HW1 3714   1.323   3.008   1.759 -1.5110 -2.1082  2.3780
 1111SOL    HW2 3715   1.307   2.906   1.648 -0.9222 -0.7107  0.9886
 1112SOL     OW 3716   2.676   3.708   5.252  0.7465  0.6759 -0.2253
 1112SOL    HW1 3717   2.685   3.713   5.156  1.3123  1.2038 -0.1508
 1112SOL    HW2 3718   2.582   3.709   5.267  0.5609 -2.2436 -0.9260
 1113SOL     OW 3719   0.647   3.879   3.262 -0.3888 -0.0891  0.0244
 1113SOL    HW1 3720   0.557   3.889   3.293  0.3094  0.8626  1.7888
 1113SOL    HW2 3721   0.641   3.891   3.167 -1.8683  1.7451  0.3296
 1114SOL     OW 3722   3.231   5.419   0.459 -0.5742  0.0181 -0.1060
 1114SOL    HW1 3723   3.247   5.352   0.393 -1.2636 -0.2611  0.0037
 1114SOL    HW2 3724   3.181   5.374   0.527 -0.5532  0.5021  0.2339
 1115SOL     OW 3725   1.480   3.818   0.786 -0.5835  0.1496  0.2432
 1115SOL    HW1 3726   1.480   3.765   0.866  0.2407  0.5773  0.5338
 1115SOL    HW2 3727   1.505   3.906   0.816 -1.1577  0.5174 -0.3550
 1116SOL     OW 3728   1.639   6.285   5.854  0.8544  0.3223  0.3127
 1116SOL    HW1 3729   1.617   6.203   5.899 -0.2714  1.0596  1.1537
 1116SOL    HW2 3730   1.679   6.258   5.772 -1.5483 -1.1180 -0.4296
 1117SOL     OW 3731   2.728   2.442   3.120  0.3728  0.0063  0.2161
 1117SOL    HW1 3732   2.696   2.438   3.210  1.4672  2.1208  0.7518
 1117SOL    HW2 3733   2.682   2.517   3.082  1.0479  0.0634 -0.5013
 1118SOL     OW 3734   1.129   6.029   1.843  0.0407  0.1269 -0.6830
 1118SOL    HW1 3735   1.088   6.103   1.798  1.0644 -0.3729 -2.4851
 1118SOL    HW2 3736   1.200   6.002   1.785  0.2467 -1.7040  0.3869
 1119SOL     OW 3737   6.037   0.463   0.326  0.2955 -0.1683  0.9238
 1119SOL    HW1 3738   6.011   0.525   0.394 -1.9473 -0.0539  0.0050
 1119SOL    HW2 3739   6.111   0.416   0.364 -0.3032  0.5512  3.0609
 1120SOL     OW 3740   1.689   2.180   4.697 -0.2564 -0.6942  0.0826
 1120SOL    HW1 3741   1.638   2.261   4.690 -1.1679 -1.3679 -1.0184
 1120SOL    HW2 3742   1.652   2.135   4.773 -1.0978 -1.0476 -0.5421
 1121SOL     OW 3743   3.315   5.374   4.447 -0.0083 -0.0638 -0.2235
 1121SOL    HW1 3744   3.355   5.402   4.529  0.6696 -2.8746  0.4694
 1121SOL    HW2 3745   3.261   5.299   4.472 -1.0220  0.0275 -2.1015
 1122SOL     OW 3746   1.632   3.670   5.115 -0.0345  0.0792  0.6827
 1122SOL    HW1 3747   1.700   3.717   5.162 -0.1085  0.7366  0.1495
 1122SOL    HW2 3748   1.550   3.696   5.158 -0.2075  1.5516 -0.4851
 1123SOL     OW 3749   4.033   3.801   1.661 -0.3602 -0.0237  0.2164
 1123SOL    HW1 3750   4.002   3.877   1.611 -1.6368  0.0431  1.0870
 1123SOL    HW2 3751   4.038   3.731   1.596  3.0019  1.3137 -1.0680
 1124SOL     OW 3752   5.652   3.804   2.348 -0.4472  0.0263  0.7030
 1124SOL    HW1 3753   5.588   3.819   2.279 -0.4924  0.2303  0.7887
 1124SOL    HW2 3754   5.698   3.888   2.357  0.0167 -0.1996  0.4520
 1125SOL     OW 3755   5.733   6.122   1.318 -0.2794 -0.3370  0.4397
 1125SOL    HW1 3756   5.722   6.215   1.333 -0.9134 -0.1033 -1.3011
 1125SOL    HW2 3757   5.728   6.082   1.405  1.8326  1.4025  1.4073
 1126SOL     OW 3758   0.634   4.122   6.180 -0.2966 -0.2222 -0.3113
 1126SOL    HW1 3759   0.588   4.097   6.100  0.4458 -1.3361 -0.4095
 1126SOL    HW2 3760   0.613   4.052   6.242 -0.7125  0.5372  0.3995
 1127SOL     OW 3761   4.689   1.766   4.458 -0.5503  0.1208  0.0367
 1127SOL    HW1 3762   4.685   1.847   4.406 -1.7025 -0.2330 -0.4408
 1127SOL    HW2 3763   4.741   1.706   4.406 -1.9257 -0.3211 -0.8617
 1128SOL     OW 3764   3.752   3.344   4.658  0.1380  0.1290  0.3711
 1128SOL    HW1 3765   3.836   3.300   4.668  0.3982  0.1952 -1.4234
 1128SOL    HW2 3766   3.767   3.432   4.692  0.1408 -0.5702  2.2056
 1129SOL     OW 3767   3.974   2.986   5.276 -0.4855 -0.4725  0.7560
 1129SOL    HW1 3768   3.976   2.907   5.329 -0.4780 -0.6269  0.5280
 1129SOL    HW2 3769   3.967   2.954   5.186  2.8116 -0.3232  0.4046
 1130SOL     OW 3770   4.830   1.619   1.662 -0.2166  0.1677  0.0416
 1130SOL    HW1 3771   4.749   1.664   1.684 -0.2630  1.5457 -2.7209
 1130SOL    HW2 3772   4.816   1.585   1.573  1.2139 -2.0318  0.5968
 1131SOL     OW 3773   3.153   4.698   6.234 -0.5115  0.2703  0.3222
 1131SOL    HW1 3774   3.109   4.621   6.270  2.3086 -1.3387  0.4826
 1131SOL    HW2 3775   3.124   4.701   6.143 -1.4020 -0.4413  0.5774
 1132SOL     OW 3776   2.415   3.665   5.895 -0.0999 -0.4250  0.1440
 1132SOL    HW1 3777   2.354   3.637   5.964 -0.3066  0.8740  0.5003
 1132SOL    HW2 3778   2.502   3.657   5.935 -0.2698  1.2156  0.9072
 1133SOL     OW 3779   0.210   1.287   2.831  0.1952 -0.6955  0.0538
 1133SOL    HW1 3780   0.211   1.205   2.781  1.0046 -1.2023  0.8742
 1133SOL    HW2 3781   0.198   1.355   2.766  1.6993 -1.3170 -0.9094
 1134SOL     OW 3782   3.218   3.702   4.762  0.3508  0.1618 -0.0864
 1134SOL    HW1 3783   3.272   3.760   4.709 -1.7793 -0.3289 -2.8919
 1134SOL    HW2 3784   3.243   3.614   4.733  0.8401 -0.2291  1.4477
 1135SOL     OW 3785   4.802   3.388   6.323 -0.1675 -0.0392  0.0417
 1135SOL    HW1 3786   4.752   3.346   6.393 -1.8622 -1.3147 -1.8915
 1135SOL    HW2 3787   4.803   3.480   6.346 -3.4255  0.0008  0.1480
 1136SOL     OW 3788   4.363   2.739   4.739  0.4314 -0.1952 -0.5541
 1136SOL    HW1 3789   4.289   2.697   4.784  1.4848 -1.4855  0.0178
 1136SOL    HW2 3790   4.333   2.750   4.649 -0.0831 -1.6972 -0.5841
 1137SOL     OW 3791   4.411   1.675   6.193 -0.1377  1.0823  0.4635
 1137SOL    HW1 3792   4.449   1.662   6.280 -0.6054  0.3423  0.5649
 1137SOL    HW2 3793   4.317   1.680   6.209 -0.2626  0.4295 -0.0497
 1138SOL     OW 3794   1.450   4.484   1.006 -0.2048 -0.5916 -0.4302
 1138SOL    HW1 3795   1.355   4.493   0.996 -0.3172 -0.4155  0.7849
 1138SOL    HW2 3796   1.465   4.481   1.100  1.0630  0.1528 -0.5893
 1139SOL     OW 3797   6.158   0.410   3.297  0.5962  0.3893  0.1764
 1139SOL    HW1 3798   6.142   0.387   3.388 -0.2745  0.0403 -0.0609
 1139SOL    HW2 3799   6.253   0.404   3.287  0.6791  0.2610  1.0105
 1140SOL     OW 3800   0.172   3.612   0.988 -0.5804 -0.3183 -0.2588
 1140SOL    HW1 3801   0.257   3.571   1.005  0.1751  0.1042 -2.8178
 1140SOL    HW2 3802   0.176   3.637   0.896 -3.6266 -0.6159 -0.5153
 1141SOL     OW 3803   0.016   3.132   1.928 -0.3977 -0.1916 -0.5348
 1141SOL    HW1 3804  -0.063   3.127   1.875 -0.9881  1.5299  0.1463
 1141SOL    HW2 3805  -0.014   3.113   2.017  0.4915 -2.5179 -0.6875
 1142SOL     OW 3806   4.115   1.563   2.957  0.0593 -0.7270 -0.1041
 1142SOL    HW1 3807   4.020   1.576   2.956  0.2316  0.5862 -2.9259
 1142SOL    HW2 3808   4.130   1.487   2.900  0.6834 -1.2563  0.7496
 1143SOL     OW 3809   5.570   5.154   1.858 -0.3907 -0.0560  0.2511
 1143SOL    HW1 3810   5.637   5.087   1.847  0.6120  1.1070 -0.9204
 1143SOL    HW2 3811   5.590   5.194   1.943 -0.2427 -0.4180  0.3874
 1144SOL     OW 3812   4.078   6.369   5.277  0.4567 -0.2481  0.1412
 1144SOL    HW1 3813   4.030   6.291   5.250 -1.1521  0.5959  0.5010
 1144SOL    HW2 3814   4.037   6.441   5.227  0.0601  0.7501  1.8714
 1145SOL     OW 3815   3.436   0.107   2.577 -0.2801 -0.4662  0.0506
 1145SOL    HW1 3816   3.492   0.138   2.505 -0.4028  0.8538  0.5125
 1145SOL    HW2 3817   3.347   0.126   2.547 -0.2763  1.3681  1.1125
 1146SOL     OW 3818   3.042   0.565   4.426 -0.2941  1.0040  0.6482
 1146SOL    HW1 3819   2.958   0.554   4.471 -0.6950  0.9505 -0.1066
 1146SOL    HW2 3820   3.033   0.646   4.377 -0.5328  0.1276 -0.7885
 1147SOL     OW 3821   1.338   4.725   1.774  0.1429 -0.1090  0.9003
 1147SOL    HW1 3822   1.342   4.733   1.678  1.3046 -0.9347  0.8779
 1147SOL    HW2 3823   1.245   4.712   1.792  0.0045 -0.7378 -0.1906
 1148SOL     OW 3824   3.645   4.784   4.476  0.4084 -0.1316 -0.6587
 1148SOL    HW1 3825   3.559   4.805   4.438  1.1042  1.3806 -1.4536
 1148SOL    HW2 3826   3.698   4.756   4.402  0.9303  0.0384 -0.3543
 1149SOL     OW 3827   3.471   0.753   2.520  0.1862 -0.3389  0.6134
 1149SOL    HW1 3828   3.445   0.775   2.431 -1.2688  1.7767  1.5291
 1149SOL    HW2 3829   3.413   0.681   2.545 -0.9246  0.5656  0.6432
 1150SOL     OW 3830   5.980   4.771   1.166 -0.4853  0.2686 -0.2938
 1150SOL    HW1 3831   5.907   4.807   1.115 -1.9066 -1.2480  0.5784
 1150SOL    HW2 3832   6.024   4.711   1.106 -1.8743 -1.1681  0.0779
 1151SOL     OW 3833   2.355   0.332   2.227  0.3329 -0.4893 -0.4599
 1151SOL    HW1 3834   2.342   0.426   2.241 -0.4592 -0.7867  0.9375
 1151SOL    HW2 3835   2.271   0.300   2.195 -0.7530 -1.4322  3.1278
 1152SOL     OW 3836   4.762   1.452   3.532  0.2567 -0.0082 -0.0521
 1152SOL    HW1 3837   4.728   1.368   3.564 -1.0404  0.1467 -0.9553
 1152SOL    HW2 3838   4.854   1.435   3.514  0.7542 -0.4235  2.5649
 1153SOL     OW 3839   2.885   0.701   0.930  0.0538 -0.7017  0.4074
 1153SOL    HW1 3840   2.865   0.717   0.838  0.8240 -0.6483  0.2465
 1153SOL    HW2 3841   2.955   0.636   0.929 -0.0661 -0.8472  0.9638
 1154SOL     OW 3842   0.112   3.431   3.473  0.2036  0.1886  0.2953
 1154SOL    HW1 3843   0.023   3.424   3.507 -0.2207 -0.2009 -0.8476
 1154SOL    HW2 3844   0.110   3.379   3.392  1.7553 -0.6804  0.8072
 1155SOL     OW 3845   4.020   1.549   4.063  0.5185  0.6550 -0.2203
 1155SOL    HW1 3846   4.085   1.593   4.008  1.3277 -1.1625 -0.7716
 1155SOL    HW2 3847   4.072   1.494   4.122 -0.4892 -0.3265 -0.2258
 1156SOL     OW 3848   2.668   1.517   0.176  0.7154 -0.3468  0.2170
 1156SOL    HW1 3849   2.683   1.544   0.266  0.4158  1.3801 -0.2377
 1156SOL    HW2 3850   2.613   1.439   0.183  1.6754 -0.9254  1.5491
 1157SOL     OW 3851   3.985   5.862   5.168 -0.0763 -0.1505 -0.6542
 1157SOL    HW1 3852   3.994   5.941   5.221 -2.1894 -0.0941 -0.3280
 1157SOL    HW2 3853   3.994   5.790   5.230  2.4125 -0.2037 -1.0407
 1158SOL     OW 3854   3.424   1.507   3.667 -0.0353  0.2358  0.0147
 1158SOL    HW1 3855   3.341   1.483   3.627 -0.7312  0.1878  1.4477
 1158SOL    HW2 3856   3.471   1.556   3.600 -0.3211 -1.5948 -1.5378
 1159SOL     OW 3857   6.149   4.680   0.243 -0.1898  0.2882  0.2969
 1159SOL    HW1 3858   6.156   4.596   0.288 -1.9761  0.9296  1.8489
 1159SOL    HW2 3859   6.082   4.666   0.176 -0.2688  0.3992  0.3531
 1160SOL     OW 3860   0.967   3.201   1.623 -0.2307 -0.0003  0.3878
 1160SOL    HW1 3861   0.945   3.268   1.557 -1.1189 -0.6684 -0.0031
 1160SOL    HW2 3862   0.998   3.126   1.571  0.0053 -0.1791  0.7863
 1161SOL     OW 3863   5.619   1.207   2.615  0.0868  0.4510  0.2879
 1161SOL    HW1 3864   5.640   1.296   2.587  0.1834  0.8477  1.5921
 1161SOL    HW2 3865   5.628   1.209   2.710  0.3787 -1.0325  0.3004
 1162SOL     OW 3866   0.214   3.776   4.839 -0.2947 -0.6915 -0.3450
 1162SOL    HW1 3867   0.191   3.859   4.881 -0.1632 -0.5281 -0.5981
 1162SOL    HW2 3868   0.144   3.716   4.865  0.4058 -0.9072  1.0863
 1163SOL     OW 3869   4.275   0.620   4.873 -0.2126  0.5551 -0.0053
 1163SOL    HW1 3870   4.274   0.664   4.958  1.1733  0.2050  0.2072
 1163SOL    HW2 3871   4.235   0.682   4.813 -1.3570  0.7415  0.9287
 1164SOL     OW 3872   0.001   5.704   2.623 -0.1065 -0.5315  0.2241
 1164SOL    HW1 3873  -0.044   5.764   2.683 -2.0288 -1.5671 -0.1445
 1164SOL    HW2 3874   0.050   5.645   2.681 -0.0045 -0.0088  0.6772
 1165SOL     OW 3875   2.440   5.859   3.891  0.0054 -1.2794 -0.3411
 1165SOL    HW1 3876   2.489   5.921   3.946 -1.3836 -0.1812 -0.3194
 1165SOL    HW2 3877   2.508   5.810   3.845  1.1615 -0.8979  0.9071
 1166SOL     OW 3878   4.837   4.744   2.632 -0.5496  0.1520  0.1343
 1166SOL    HW1 3879   4.811   4.659   2.597 -0.3888  0.0151  0.3482
 1166SOL    HW2 3880   4.907   4.774   2.575  0.9063 -0.8579  1.3570
 1167SOL     OW 3881   5.737   1.545   0.554 -0.4840  0.1271  0.1177
 1167SOL    HW1 3882   5.830   1.551   0.534 -0.2043 -2.9252  0.2403
 1167SOL    HW2 3883   5.733   1.546   0.650 -0.3879 -1.5768  0.1546
 1168SOL     OW 3884   1.960   3.344   2.652  0.3153  0.7054 -0.1986
 1168SOL    HW1 3885   2.023   3.332   2.581  1.3258  1.9136  0.4734
 1168SOL    HW2 3886   1.904   3.415   2.622 -0.2066  0.2104 -0.4186
 1169SOL     OW 3887   5.229   4.422   5.662  0.4286  0.1367  0.2548
 1169SOL    HW1 3888   5.173   4.499   5.652 -2.2420 -1.9411 -1.4740
 1169SOL    HW2 3889   5.288   4.425   5.586  1.2861  1.2109  0.9548
 1170SOL     OW 3890   4.408   3.919   1.197  0.1036  0.1762 -0.3832
 1170SOL    HW1 3891   4.494   3.961   1.188 -0.3875  0.8891 -2.0256
 1170SOL    HW2 3892   4.394   3.878   1.112 -1.2195  0.1324 -0.1421
 1171SOL     OW 3893   5.375   3.700   2.717  0.4150 -0.1042  0.7769
 1171SOL    HW1 3894   5.425   3.768   2.672 -0.1727 -0.5863 -0.6436
 1171SOL    HW2 3895   5.287   3.737   2.726  0.4263 -0.1720  1.1652
 1172SOL     OW 3896   0.698   6.263   1.503  0.0820  0.6770 -0.0385
 1172SOL    HW1 3897   0.665   6.302   1.584  0.3474  1.1793 -0.1690
 1172SOL    HW2 3898   0.723   6.174   1.527  0.4242  0.9158  0.5015
 1173SOL     OW 3899   2.662   1.446   4.659 -0.6484 -0.2473  0.1252
 1173SOL    HW1 3900   2.611   1.386   4.605  0.3306 -1.7105  0.7655
 1173SOL    HW2 3901   2.679   1.522   4.603 -1.7044 -0.6772 -0.7895
 1174SOL     OW 3902   4.096   5.701   3.856 -0.5812 -0.0691  0.2172
 1174SOL    HW1 3903   4.109   5.720   3.763 -1.7964  1.4979  0.3553
 1174SOL    HW2 3904   4.048   5.618   3.857 -0.3004 -0.2431 -0.5494
 1175SOL     OW 3905   4.768   0.521   4.345  0.3454 -0.6443  0.5501
 1175SOL    HW1 3906   4.760   0.600   4.292  0.7475 -0.6704  0.4491
 1175SOL    HW2 3907   4.826   0.464   4.295 -0.6490 -1.3557  0.2124
 1176SOL     OW 3908   0.117   2.546   4.924 -0.3677 -0.3156 -0.0966
 1176SOL    HW1 3909   0.061   2.589   4.860 -0.3873 -0.4188 -0.1493
 1176SOL    HW2 3910   0.166   2.617   4.965 -0.5349 -0.2269 -0.0536
 1177SOL     OW 3911   5.794   2.158   0.745  0.5859  0.3536 -0.1247
 1177SOL    HW1 3912   5.711   2.196   0.718  0.8975  0.4306 -0.9888
 1177SOL    HW2 3913   5.770   2.075   0.786  0.0298  0.7334  0.3347
 1178SOL     OW 3914   6.138   2.243   4.385  0.3060  0.3100  0.4211
 1178SOL    HW1 3915   6.103   2.158   4.413  0.4125  0.7354  1.8866
 1178SOL    HW2 3916   6.233   2.234   4.395  0.4191  0.1714 -0.6797
 1179SOL     OW 3917   5.409   2.259   4.167 -0.3770 -0.0803 -0.4602
 1179SOL    HW1 3918   5.494   2.241   4.129  0.7634  3.0156  0.4331
 1179SOL    HW2 3919   5.366   2.317   4.104 -1.7346 -1.4200 -0.7918
 1180SOL     OW 3920   4.128   1.789   1.673 -0.3794 -0.3491 -0.3450
 1180SOL    HW1 3921   4.157   1.799   1.764 -1.0379 -1.8533  0.0455
 1180SOL    HW2 3922   4.159   1.868   1.629  1.7287 -0.5637  0.7103
 1181SOL     OW 3923   5.556   1.919   2.040  0.4479 -0.1360  0.0743
 1181SOL    HW1 3924   5.565   1.851   2.106  0.6400 -0.4821 -0.3013
 1181SOL    HW2 3925   5.603   1.885   1.964  0.7971  0.5471 -0.0198
 1182SOL     OW 3926   3.041   1.335   0.631 -0.3039  0.5703  0.4582
 1182SOL    HW1 3927   2.981   1.362   0.701  0.9055  2.0767  0.9241
 1182SOL    HW2 3928   3.002   1.373   0.551 -0.4866  0.7177  0.6165
 1183SOL     OW 3929   4.175   2.788   1.191  0.1659  0.2158 -0.1178
 1183SOL    HW1 3930   4.247   2.729   1.169  0.9039  0.3466  1.8185
 1183SOL    HW2 3931   4.096   2.735   1.183  0.6887 -0.5975  0.1334
 1184SOL     OW 3932   3.800   0.014   6.106 -0.6240 -0.4976  0.4705
 1184SOL    HW1 3933   3.807  -0.002   6.012 -0.2553  1.5916  0.1126
 1184SOL    HW2 3934   3.743   0.090   6.113  0.4599  0.2120  1.8518
 1185SOL     OW 3935   1.038   5.479   3.259  0.3105 -0.0142 -0.3682
 1185SOL    HW1 3936   1.047   5.393   3.218  1.2777  0.2021 -0.6217
 1185SOL    HW2 3937   1.053   5.541   3.188 -2.5200  0.3965 -0.6754
 1186SOL     OW 3938   0.584   1.584   0.625 -0.3560  0.7678  0.0931
 1186SOL    HW1 3939   0.568   1.678   0.610 -0.1832  0.9904  1.2799
 1186SOL    HW2 3940   0.662   1.565   0.574 -0.0862  1.3976  0.2616
 1187SOL     OW 3941   2.372   6.310   1.291  0.4853 -0.0007  0.0598
 1187SOL    HW1 3942   2.368   6.386   1.233  1.1119 -0.6630 -0.8597
 1187SOL    HW2 3943   2.281   6.278   1.294  0.0269  1.3780  1.2655
 1188SOL     OW 3944   2.296   0.583   3.425  0.1420  0.0958 -0.2067
 1188SOL    HW1 3945   2.391   0.581   3.415  0.0268  1.5322 -2.0205
 1188SOL    HW2 3946   2.269   0.493   3.409  1.2339 -0.4012  0.7032
 1189SOL     OW 3947   0.696   1.105   6.248  0.0491  0.0815 -0.5587
 1189SOL    HW1 3948   0.603   1.084   6.247 -0.0268  0.4100 -0.3319
 1189SOL    HW2 3949   0.732   1.051   6.319  0.0617 -0.1708 -0.7567
 1190SOL     OW 3950   5.510   4.038   3.402 -0.4131  0.2845  0.0724
 1190SOL    HW1 3951   5.470   4.109   3.351 -1.6318  0.5128  1.3255
 1190SOL    HW2 3952   5.436   3.989   3.438  0.4271 -1.0719  0.0020
 1191SOL     OW 3953   4.839   5.033   4.761 -0.3399  0.2608  0.0584
 1191SOL    HW1 3954   4.880   4.962   4.713  0.6360  0.4771  0.5627
 1191SOL    HW2 3955   4.774   5.069   4.701 -0.0784 -0.3532 -0.5887
 1192SOL     OW 3956   5.918   0.283   3.208 -0.0409  0.5313 -0.0540
 1192SOL    HW1 3957   5.854   0.218   3.235 -1.2223  2.7503  2.6942
 1192SOL    HW2 3958   5.959   0.313   3.289  0.4228  3.2534 -1.2331
 1193SOL     OW 3959   3.508   3.869   1.837  0.1809  0.5204  0.4765
 1193SOL    HW1 3960   3.584   3.812   1.840  0.9048  1.3747 -0.7777
 1193SOL    HW2 3961   3.433   3.810   1.827  0.8322 -0.2541  0.1341
 1194SOL     OW 3962   3.310   0.845   0.022 -0.0182 -0.2842 -0.2940
 1194SOL    HW1 3963   3.297   0.939   0.018 -1.9185 -0.4202  1.7768
 1194SOL    HW2 3964   3.402   0.832  -0.002  0.1788  2.0292 -0.9348
 1195SOL     OW 3965   1.459   5.041   5.620  0.1676 -0.1305  0.3968
 1195SOL    HW1 3966   1.429   5.006   5.536  2.2369  1.5687 -1.0968
 1195SOL    HW2 3967   1.382   5.080   5.660 -0.5665  0.0913 -1.2492
 1196SOL     OW 3968   4.226   2.572   4.908  0.2223  0.0684 -0.4069
 1196SOL    HW1 3969   4.182   2.520   4.976 -0.0491 -0.4887 -1.0088
 1196SOL    HW2 3970   4.319   2.551   4.920  0.3034  1.0087  0.6621
 1197SOL     OW 3971   6.355   5.054   5.126  0.5060 -0.2848 -0.2318
 1197SOL    HW1 3972   6.365   5.148   5.112  0.3964 -0.3122 -0.4956
 1197SOL    HW2 3973   6.421   5.032   5.191  0.9253 -0.1366 -0.6095
 1198SOL     OW 3974   5.371   4.614   1.140  0.5048 -0.4515  1.0041
 1198SOL    HW1 3975   5.424   4.688   1.168  0.4410  0.6539 -1.6328
 1198SOL    HW2 3976   5.434   4.545   1.122  1.0946  0.7072 -1.6549
 1199SOL     OW 3977   5.013   5.820   5.849  0.4457  0.4192 -0.2790
 1199SOL    HW1 3978   5.074   5.768   5.903 -0.0441 -0.3420 -0.4532
 1199SOL    HW2 3979   5.017   5.779   5.763 -0.5785  0.1434 -0.1983
 1200SOL     OW 3980   3.966   1.012   5.225  0.2463  0.5805  0.4086
 1200SOL    HW1 3981   4.036   1.059   5.179 -1.1230  1.9475 -0.3647
 1200SOL    HW2 3982   3.907   0.984   5.155  0.2149 -0.8941  1.0172
 1201SOL     OW 3983   2.253   3.300   3.865 -0.0275  0.6343  0.4317
 1201SOL    HW1 3984   2.315   3.236   3.900  2.3721  1.1059 -2.7707
 1201SOL    HW2 3985   2.174   3.249   3.847  0.8905 -0.8687  0.5903
 1202SOL     OW 3986   5.293   2.399   3.972  0.0039 -0.1420  0.6160
 1202SOL    HW1 3987   5.204   2.433   3.973 -0.1155 -0.2969 -2.4190
 1202SOL    HW2 3988   5.348   2.476   3.959  0.4311  0.0706  3.3234
 1203SOL     OW 3989   2.137   5.541   6.009 -0.0290  0.6335  0.2607
 1203SOL    HW1 3990   2.076   5.582   5.948 -0.9438 -1.0161  0.0284
 1203SOL    HW2 3991   2.081   5.498   6.074  0.8874 -0.2371  0.4949
 1204SOL     OW 3992   2.210   5.028   2.897  0.1312  0.3786  0.1860
 1204SOL    HW1 3993   2.253   5.027   2.983  0.3636  0.3945  0.0688
 1204SOL    HW2 3994   2.265   5.084   2.843  1.6582 -2.0432 -0.8360
 1205SOL     OW 3995   4.360   2.147   5.637 -0.2272  0.1224 -0.5897
 1205SOL    HW1 3996   4.308   2.202   5.695 -2.5499 -0.6233 -1.8924
 1205SOL    HW2 3997   4.300   2.125   5.565  1.2170 -2.5562 -1.0389
 1206SOL     OW 3998   5.709   5.898   4.289  0.0382  0.1118 -0.2089
 1206SOL    HW1 3999   5.750   5.814   4.308 -0.8837 -0.3905 -0.4021
 1206SOL    HW2 4000   5.647   5.879   4.218  0.1447  1.0426 -0.5600
 1207SOL     OW 4001   5.794   0.757   5.849  0.7825  0.1149 -0.3254
 1207SOL    HW1 4002   5.846   0.774   5.928 -0.5814  0.0551  0.6108
 1207SOL    HW2 4003   5.756   0.670   5.864 -1.1863  0.9894 -0.0666
 1208SOL     OW 4004   2.315   0.292   1.276  0.3186 -0.1170 -0.1511
 1208SOL    HW1 4005   2.402   0.252   1.277  0.7046  0.7209  0.3457
 1208SOL    HW2 4006   2.264   0.241   1.339  0.3586 -0.8140 -0.6861
 1209SOL     OW 4007   4.747   0.479   3.439 -0.2920  0.1126  0.0102
 1209SOL    HW1 4008   4.671   0.436   3.479 -0.6304  0.9239  0.2470
 1209SOL    HW2 4009   4.709   0.547   3.383  0.1533 -1.3507 -2.1301
 1210SOL     OW 4010   5.482   2.154   6.276 -0.0445 -0.4579 -0.3563
 1210SOL    HW1 4011   5.424   2.224   6.248  1.2665  0.6044 -0.4901
 1210SOL    HW2 4012   5.563   2.168   6.226  0.5136 -1.5943  0.1955
 1211SOL     OW 4013   4.290   3.619   0.674 -0.0916  0.0262 -0.2275
 1211SOL    HW1 4014   4.293   3.577   0.760  1.1814  0.8438  0.1405
 1211SOL    HW2 4015   4.317   3.709   0.690 -1.2794  0.5833 -1.2645
 1212SOL     OW 4016   5.286   2.381   5.788  0.1398  0.2477  0.5254
 1212SOL    HW1 4017   5.340   2.424   5.722 -0.4331  0.6597  0.3182
 1212SOL    HW2 4018   5.348   2.345   5.851  0.6476  0.9667  0.4454
 1213SOL     OW 4019   4.795   3.290   1.864 -0.1115 -0.1715 -0.0802
 1213SOL    HW1 4020   4.859   3.219   1.877 -0.0616 -0.2149 -0.5648
 1213SOL    HW2 4021   4.716   3.246   1.834 -0.3408 -0.1051  0.4249
 1214SOL     OW 4022   1.332   2.914   3.771 -0.2557 -0.8082 -0.3645
 1214SOL    HW1 4023   1.324   2.822   3.796 -2.2546 -0.3752  0.6809
 1214SOL    HW2 4024   1.250   2.935   3.728  0.4382  0.3283 -1.1600
 1215SOL     OW 4025   1.501   1.797   4.689  0.3124 -0.1439 -0.1029
 1215SOL    HW1 4026   1.545   1.722   4.649  0.0779  0.3988 -1.3845
 1215SOL    HW2 4027   1.412   1.794   4.654  0.0937  0.3157  0.4095
 1216SOL     OW 4028   5.583   3.144   0.802  0.3448  0.0994 -0.4685
 1216SOL    HW1 4029   5.530   3.065   0.815  0.5653 -0.3948 -2.3588
 1216SOL    HW2 4030   5.520   3.215   0.796 -0.0225 -0.2789 -1.2006
 1217SOL     OW 4031   4.896   1.389   5.074  0.4988  0.2427  0.6453
 1217SOL    HW1 4032   4.894   1.330   5.149 -0.2090 -0.9124 -0.2777
 1217SOL    HW2 4033   4.862   1.338   5.002  1.0253  1.4029 -0.4458
 1218SOL     OW 4034   1.947   3.444   4.737  0.2577  0.3652  0.2199
 1218SOL    HW1 4035   1.888   3.480   4.803 -0.4545  1.3776 -0.9492
 1218SOL    HW2 4036   2.034   3.466   4.768  0.1515 -2.3217  2.6676
 1219SOL     OW 4037   5.709   5.502   4.196  0.0404 -0.5221 -0.0110
 1219SOL    HW1 4038   5.788   5.452   4.176  1.2442  0.8265  1.1944
 1219SOL    HW2 4039   5.668   5.516   4.111  2.3854  0.7830 -1.0127
 1220SOL     OW 4040   5.065   0.048   2.003  0.0444  0.2324 -0.3000
 1220SOL    HW1 4041   5.067  -0.017   1.933  0.6540  1.6611 -1.6156
 1220SOL    HW2 4042   5.157   0.066   2.022 -0.1128  1.2742 -0.4865
 1221SOL     OW 4043   3.776   0.377   1.738 -0.5945 -0.3714 -0.1078
 1221SOL    HW1 4044   3.688   0.405   1.714 -0.3318  0.4587 -0.1393
 1221SOL    HW2 4045   3.767   0.285   1.760 -0.8945 -1.1490 -3.1742
 1222SOL     OW 4046   6.307   4.101   5.178  0.2000 -0.4945 -0.7205
 1222SOL    HW1 4047   6.236   4.107   5.241 -0.3671 -0.8009 -1.3172
 1222SOL    HW2 4048   6.271   4.139   5.098  1.0595  0.2994 -0.7384
 1223SOL     OW 4049   4.076   0.322   0.520  0.0465 -0.1472 -0.2518
 1223SOL    HW1 4050   4.113   0.240   0.553  0.8877  0.3473  0.0437
 1223SOL    HW2 4051   4.018   0.294   0.449  0.0954 -1.0235  0.0385
 1224SOL     OW 4052   3.944   4.246   2.147 -0.0702  0.0858  0.1281
 1224SOL    HW1 4053   3.964   4.258   2.240  1.3063  1.7405 -0.3522
 1224SOL    HW2 4054   3.909   4.330   2.119  0.0632 -0.2115 -0.9787
 1225SOL     OW 4055   0.932   1.436   2.393 -0.1362  0.4389 -0.2624
 1225SOL    HW1 4056   0.904   1.491   2.466 -1.5280  0.3498 -0.7170
 1225SOL    HW2 4057   0.934   1.496   2.318  0.2803  0.2993 -0.3626
 1226SOL     OW 4058   3.700   4.072   3.095  0.3862 -0.1923  0.0441
 1226SOL    HW1 4059   3.728   3.981   3.097 -1.4556 -0.7567  0.3748
 1226SOL    HW2 4060   3.776   4.121   3.128  0.1344 -1.9359  3.4051
 1227SOL     OW 4061   2.347   5.274   3.950 -0.4039 -0.0688 -0.7115
 1227SOL    HW1 4062   2.356   5.348   3.890  1.5256  1.1343  0.9965
 1227SOL    HW2 4063   2.284   5.303   4.016  1.4701  0.6955  0.8084
 1228SOL     OW 4064   4.487   6.225   4.414 -0.5951 -0.1493  0.5410
 1228SOL    HW1 4065   4.503   6.131   4.403 -1.3809 -0.2153 -0.0640
 1228SOL    HW2 4066   4.424   6.247   4.346  0.9824  1.2128 -0.5176
 1229SOL     OW 4067   5.338   1.619   1.167  0.1656 -0.2085 -0.4104
 1229SOL    HW1 4068   5.325   1.530   1.135  0.3752 -0.7680  1.0008
 1229SOL    HW2 4069   5.339   1.610   1.262  2.0060  1.0415 -0.2841
 1230SOL     OW 4070   3.860   6.161   4.198  0.3354 -0.3539 -0.6197
 1230SOL    HW1 4071   3.819   6.081   4.230 -0.5931  0.3511 -0.0584
 1230SOL    HW2 4072   3.866   6.148   4.103 -1.2152 -0.4383 -0.7094
 1231SOL     OW 4073   2.720   3.913   1.932 -0.1660 -0.4748  0.5598
 1231SOL    HW1 4074   2.673   3.899   2.014  0.4156  2.9915  1.5636
 1231SOL    HW2 4075   2.786   3.979   1.953  0.3301  0.1148 -2.5934
 1232SOL     OW 4076   5.921   3.243   3.824  0.1354  0.0619 -0.5526
 1232SOL    HW1 4077   5.897   3.161   3.780 -1.5886  0.0502  0.3512
 1232SOL    HW2 4078   5.872   3.311   3.778 -0.5240  0.2302  0.3683
 1233SOL     OW 4079   6.010   4.236   5.127 -0.7786 -0.2973 -0.5371
 1233SOL    HW1 4080   5.975   4.256   5.214 -0.1868 -0.2943 -0.2958
 1233SOL    HW2 4081   6.010   4.321   5.082  0.1224 -0.0496 -0.0948
 1234SOL     OW 4082   4.033   3.167   1.607 -0.5316 -0.1591  0.2482
 1234SOL    HW1 4083   4.055   3.109   1.680  2.9382  0.2365 -0.4019
 1234SOL    HW2 4084   4.094   3.240   1.615 -0.0559 -0.1375 -3.0771
 1235SOL     OW 4085   5.935   0.556   3.058 -0.0862 -0.3136  0.8751
 1235SOL    HW1 4086   5.912   0.496   3.129  1.9965 -0.6614  1.2847
 1235SOL    HW2 4087   5.928   0.643   3.096 -1.8713 -0.3207  0.6360
 1236SOL     OW 4088   0.413   3.863   1.540 -0.5861  0.1455  0.1685
 1236SOL    HW1 4089   0.473   3.804   1.586 -1.0048 -0.8675 -0.5728
 1236SOL    HW2 4090   0.464   3.896   1.467 -0.8241 -0.4709 -0.2803
 1237SOL     OW 4091   3.347   4.153   1.209 -0.1363 -0.3788 -0.2964
 1237SOL    HW1 4092   3.344   4.062   1.179 -0.0385 -0.8243  0.9900
 1237SOL    HW2 4093   3.374   4.147   1.301  0.1449  0.9694 -0.2747
 1238SOL     OW 4094   3.103   6.040   2.825  0.3270 -0.3746  0.5679
 1238SOL    HW1 4095   3.075   5.953   2.798 -1.2859  0.2225  0.2053
 1238SOL    HW2 4096   3.193   6.029   2.854  0.6199 -1.8865 -0.8408
 1239SOL     OW 4097   0.504   3.937   4.730 -0.1016  0.0661  0.3385
 1239SOL    HW1 4098   0.505   3.922   4.825 -0.3339 -2.6890 -0.0421
 1239SOL    HW2 4099   0.464   4.023   4.719  1.3154  1.0940  2.8030
 1240SOL     OW 4100   4.063   2.379   4.429 -0.7681  0.1970  0.3345
 1240SOL    HW1 4101   4.032   2.303   4.479  1.0000  0.2295  1.5436
 1240SOL    HW2 4102   4.157   2.382   4.447 -0.6793  2.2006 -0.3744
 1241SOL     OW 4103   3.732   3.579   1.465 -0.2877  0.0137 -0.3083
 1241SOL    HW1 4104   3.707   3.495   1.427  0.0710 -0.1561 -0.1723
 1241SOL    HW2 4105   3.809   3.606   1.416 -0.9449  0.7113 -0.9639
 1242SOL     OW 4106   2.408   2.293   3.252 -0.3556  0.8628  0.2246
 1242SOL    HW1 4107   2.481   2.350   3.276 -1.2821  2.1226  0.1114
 1242SOL    HW2 4108   2.344   2.304   3.323 -0.6154  0.0791  0.1237
 1243SOL     OW 4109   3.010   3.874   4.594  0.6956  0.8065  0.3365
 1243SOL    HW1 4110   2.989   3.781   4.592 -0.1572  0.9805  1.2587
 1243SOL    HW2 4111   3.106   3.876   4.603  0.6699  0.0275  0.8221
 1244SOL     OW 4112   2.389   4.962   0.546  0.3193 -0.1333 -0.1926
 1244SOL    HW1 4113   2.332   4.889   0.522  0.9470 -0.9489  0.7726
 1244SOL    HW2 4114   2.332   5.039   0.542 -0.3895 -0.6958 -1.0462
 1245SOL     OW 4115   2.579   5.616   0.540 -0.3232 -0.4160 -0.4427
 1245SOL    HW1 4116   2.578   5.711   0.537 -1.3602 -0.3528  1.2608
 1245SOL    HW2 4117   2.640   5.595   0.611 -2.0659 -0.9440  0.9323
 1246SOL     OW 4118   1.222   0.969   4.934  0.0335 -0.5741  0.0382
 1246SOL    HW1 4119   1.201   0.895   4.877  3.1559 -2.1962  0.8964
 1246SOL    HW2 4120   1.316   0.983   4.921  0.1782  0.9525  2.5495
 1247SOL     OW 4121   4.462   0.867   5.120  0.1445  0.2713 -0.1641
 1247SOL    HW1 4122   4.543   0.890   5.075  0.2763 -0.6149 -0.3859
 1247SOL    HW2 4123   4.466   0.917   5.202  1.3664 -0.4782  0.2581
 1248SOL     OW 4124   1.023   5.138   6.366 -0.3620 -0.3054 -0.2708
 1248SOL    HW1 4125   1.026   5.143   6.462  1.4043 -1.4958 -0.2534
 1248SOL    HW2 4126   1.113   5.153   6.338 -1.0959  1.3297 -1.8284
 1249SOL     OW 4127   2.033   6.258   6.335 -0.1651  0.3899 -0.4750
 1249SOL    HW1 4128   2.085   6.283   6.259 -1.4004 -3.5766 -2.7859
 1249SOL    HW2 4129   2.064   6.170   6.358 -3.3375 -0.5905  0.3043
 1250SOL     OW 4130   4.633   3.727   0.959  0.0605 -0.4260 -0.2815
 1250SOL    HW1 4131   4.539   3.746   0.957  0.2384  0.3715 -2.4818
 1250SOL    HW2 4132   4.671   3.789   0.897  2.0467 -0.7654  0.5616
 1251SOL     OW 4133   4.402   5.745   5.873  0.0700  0.3656 -0.0651
 1251SOL    HW1 4134   4.319   5.698   5.865  1.1079 -2.0307  2.2842
 1251SOL    HW2 4135   4.377   5.837   5.880 -2.2575 -0.1329 -1.2737
 1252SOL     OW 4136   5.817   6.102   2.998 -0.0972 -0.3736  0.4217
 1252SOL    HW1 4137   5.737   6.114   2.946  0.6863 -0.1042 -0.7550
 1252SOL    HW2 4138   5.888   6.125   2.938  0.8582 -0.4107  1.5173
 1253SOL     OW 4139   3.094   5.490   1.871  0.1808 -0.2137  0.2043
 1253SOL    HW1 4140   3.154   5.495   1.797  1.4497  0.9499  1.2744
 1253SOL    HW2 4141   3.147   5.453   1.942 -1.2151 -2.0020  0.3497
 1254SOL     OW 4142   3.237   6.009   1.531  0.3637 -0.4767  0.1560
 1254SOL    HW1 4143   3.310   5.947   1.531  0.4348 -0.4897  3.6201
 1254SOL    HW2 4144   3.274   6.090   1.495  2.0145 -0.5640  1.6160
 1255SOL     OW 4145   0.383   2.447   6.216 -0.4344 -0.0080  0.1374
 1255SOL    HW1 4146   0.453   2.393   6.179 -0.2489  2.0525 -2.7028
 1255SOL    HW2 4147   0.429   2.522   6.254 -0.9265  0.1253  0.4667
 1256SOL     OW 4148   6.045   2.787   6.096 -0.3682 -0.6774  0.6474
 1256SOL    HW1 4149   6.033   2.800   6.002 -0.6043  0.2732  0.8127
 1256SOL    HW2 4150   6.123   2.732   6.102 -0.4333 -0.8624 -0.1103
 1257SOL     OW 4151   0.575   2.869   4.398 -0.2560 -0.2073 -0.2793
 1257SOL    HW1 4152   0.571   2.947   4.344 -0.7711 -0.1201 -0.1241
 1257SOL    HW2 4153   0.586   2.797   4.336 -0.9696 -0.1190 -0.5140
 1258SOL     OW 4154   4.093   1.133   2.593 -0.5599  0.1096 -0.2268
 1258SOL    HW1 4155   4.003   1.149   2.620 -0.4436 -0.3835  0.4418
 1258SOL    HW2 4156   4.145   1.194   2.646 -0.3787 -0.5245  0.3290
 1259SOL     OW 4157   5.524   1.714   4.898 -0.1207 -0.0743  0.3453
 1259SOL    HW1 4158   5.584   1.687   4.828 -1.4160  1.9938 -1.6325
 1259SOL    HW2 4159   5.569   1.785   4.943  0.2375 -0.6669  0.9450
 1260SOL     OW 4160   1.237   0.372   0.423  0.2883 -0.2961  0.1107
 1260SOL    HW1 4161   1.315   0.419   0.395  1.8513 -2.4859  0.6260
 1260SOL    HW2 4162   1.251   0.356   0.517 -1.2587  0.1959  0.4438
 1261SOL     OW 4163   1.309   2.939   6.272  0.0227  0.2625  0.1473
 1261SOL    HW1 4164   1.300   2.955   6.366  0.6540  0.4597  0.1739
 1261SOL    HW2 4165   1.219   2.939   6.239 -0.4553 -3.1563  1.2934
 1262SOL     OW 4166   3.533   2.536   1.770  0.2726 -0.2813 -0.2464
 1262SOL    HW1 4167   3.496   2.602   1.829 -0.7657 -0.1166 -1.0902
 1262SOL    HW2 4168   3.593   2.486   1.826 -0.9558 -0.3386  1.0429
 1263SOL     OW 4169   5.676   3.475   3.410 -0.1111 -0.6241  0.5416
 1263SOL    HW1 4170   5.616   3.402   3.392  1.1903 -1.1744 -1.7952
 1263SOL    HW2 4171   5.626   3.553   3.383  0.3401 -1.1201 -1.8859
 1264SOL     OW 4172   1.690   5.676   0.131 -0.0559 -0.8844 -0.2321
 1264SOL    HW1 4173   1.780   5.705   0.117 -0.6761  0.6111 -1.3292
 1264SOL    HW2 4174   1.673   5.694   0.223  0.0809  0.8995 -0.5296
 1265SOL     OW 4175   2.604   5.626   5.655  0.6805  0.1402  0.1427
 1265SOL    HW1 4176   2.549   5.704   5.643  0.3745  0.0098  0.6520
 1265SOL    HW2 4177   2.611   5.617   5.750 -0.8788 -1.5655  0.1199
 1266SOL     OW 4178   1.315   5.602   5.140 -0.0941  0.1358  0.2591
 1266SOL    HW1 4179   1.403   5.593   5.175 -0.5758 -1.3260  1.1494
 1266SOL    HW2 4180   1.300   5.697   5.137  2.0716  0.4501 -1.4307
 1267SOL     OW 4181   5.006   0.664   2.813 -0.1026  0.1994  0.1282
 1267SOL    HW1 4182   5.012   0.610   2.734 -1.5119 -2.0519  1.5146
 1267SOL    HW2 4183   5.071   0.627   2.872 -0.1621  0.8622  0.6114
 1268SOL     OW 4184   5.320   0.564   3.820 -0.0436  0.4030 -0.4166
 1268SOL    HW1 4185   5.267   0.539   3.896  1.0398  0.5149  0.3941
 1268SOL    HW2 4186   5.257   0.576   3.749 -0.8271 -2.3960 -0.2519
 1269SOL     OW 4187   0.898   5.745   2.264  0.3003 -0.5544  0.4589
 1269SOL    HW1 4188   0.812   5.787   2.267  0.6273  0.0443  1.3571
 1269SOL    HW2 4189   0.920   5.744   2.171 -1.3486 -2.0710  0.0401
 1270SOL     OW 4190   2.352   0.937   6.267 -0.5179  0.1087 -0.2988
 1270SOL    HW1 4191   2.387   0.870   6.325  1.2368  0.2604 -1.1762
 1270SOL    HW2 4192   2.392   0.920   6.182 -0.8864  1.6022 -0.7941
 1271SOL     OW 4193   5.638   2.381   5.297 -0.5031 -0.3406 -0.0694
 1271SOL    HW1 4194   5.664   2.405   5.385  1.5441  0.5075 -0.8728
 1271SOL    HW2 4195   5.611   2.464   5.256  0.6482 -0.3681 -0.9092
 1272SOL     OW 4196   0.949   2.084   4.512  0.9944  0.1860 -0.5801
 1272SOL    HW1 4197   1.032   2.037   4.522 -0.3576 -2.0492  0.7225
 1272SOL    HW2 4198   0.968   2.174   4.538  2.9489 -0.3434 -0.0973
 1273SOL     OW 4199   0.323   5.148   4.334  0.2941  0.1997  0.0642
 1273SOL    HW1 4200   0.384   5.213   4.368  0.7905  0.1815 -0.7840
 1273SOL    HW2 4201   0.379   5.079   4.298 -0.2266 -0.5108  0.5938
 1274SOL     OW 4202   0.523   2.344   0.610  0.8578 -0.4356  0.2002
 1274SOL    HW1 4203   0.614   2.374   0.611  0.5726  0.3936  1.4451
 1274SOL    HW2 4204   0.513   2.293   0.690  0.8351 -2.4101 -1.0278
 1275SOL     OW 4205   3.531   0.512   1.717  0.3303  0.4384  0.3467
 1275SOL    HW1 4206   3.522   0.454   1.641  1.2120 -0.2944  0.7888
 1275SOL    HW2 4207   3.448   0.503   1.764  0.6904 -0.9760  0.7548
 1276SOL     OW 4208   1.844   1.131   2.406  0.1351 -0.3443  0.3119
 1276SOL    HW1 4209   1.846   1.063   2.473 -0.0900  1.0879  1.8237
 1276SOL    HW2 4210   1.935   1.140   2.377  0.3984 -0.2835  1.1617
 1277SOL     OW 4211   0.147   1.473   5.273 -0.0934 -0.2881 -0.7873
 1277SOL    HW1 4212   0.129   1.419   5.196 -0.5995 -0.6235 -0.4384
 1277SOL    HW2 4213   0.169   1.559   5.238  0.5485 -0.6691 -1.3427
 1278SOL     OW 4214   1.186   5.169   5.398  0.4798  0.3613  0.0193
 1278SOL    HW1 4215   1.154   5.227   5.467  2.4900  1.3245  0.1757
 1278SOL    HW2 4216   1.126   5.183   5.325 -1.5247 -0.4926  1.4720
 1279SOL     OW 4217   2.637   5.747   2.755  0.4768 -0.0120 -0.0848
 1279SOL    HW1 4218   2.700   5.762   2.825 -1.2035 -0.2043  1.5286
 1279SOL    HW2 4219   2.670   5.670   2.709  1.6295  0.1346  0.4768
 1280SOL     OW 4220   5.500   2.979   1.390  0.1681  0.0288  0.1170
 1280SOL    HW1 4221   5.451   3.053   1.354 -0.1500  0.7346  1.9315
 1280SOL    HW2 4222   5.485   2.908   1.328 -0.1096  1.2716 -1.2808
 1281SOL     OW 4223   2.371   0.532   2.934  0.0390 -0.2023 -0.1915
 1281SOL    HW1 4224   2.341   0.620   2.914 -0.9205 -0.8311 -1.6269
 1281SOL    HW2 4225   2.420   0.541   3.016 -0.2123  1.6136 -0.2227
 1282SOL     OW 4226   4.755   6.129   2.231 -0.0281  0.7338  0.1025
 1282SOL    HW1 4227   4.752   6.077   2.150  0.2687 -0.7067  0.9952
 1282SOL    HW2 4228   4.763   6.220   2.201  2.0950  0.0704 -1.4705
 1283SOL     OW 4229   4.580   0.273   5.827  0.1594 -0.1260  0.8367
 1283SOL    HW1 4230   4.592   0.223   5.907 -0.1390 -0.4783  0.6603
 1283SOL    HW2 4231   4.614   0.360   5.848  2.1002 -0.8269  0.6508
 1284SOL     OW 4232   2.422   1.667   2.495 -0.0091  0.5459 -0.1468
 1284SOL    HW1 4233   2.329   1.645   2.495  0.0740  0.1905  0.5022
 1284SOL    HW2 4234   2.440   1.697   2.406 -0.0239 -2.3953 -1.1778
 1285SOL     OW 4235   4.761   5.571   0.202 -0.8733 -0.3314  0.2294
 1285SOL    HW1 4236   4.671   5.594   0.224  0.2359  2.9849  1.6958
 1285SOL    HW2 4237   4.789   5.515   0.275 -1.4393 -0.5609  0.2760
 1286SOL     OW 4238   1.214   2.959   4.559 -0.2486 -0.5207  0.3601
 1286SOL    HW1 4239   1.213   2.863   4.549  0.4151 -0.4263 -0.7259
 1286SOL    HW2 4240   1.289   2.987   4.507  0.8381  0.4164  2.3696
 1287SOL     OW 4241   2.422   3.797   3.454  0.2905 -0.0837  0.3547
 1287SOL    HW1 4242   2.355   3.847   3.501 -1.2403 -0.5890 -1.2142
 1287SOL    HW2 4243   2.467   3.862   3.400  1.6068  0.3851  1.9754
 1288SOL     OW 4244   4.648   6.174   4.072  0.4041 -0.0335 -0.0900
 1288SOL    HW1 4245   4.736   6.194   4.039  0.2400  0.4982 -0.2083
 1288SOL    HW2 4246   4.661   6.097   4.128  1.0371  0.3748  0.3366
 1289SOL     OW 4247   6.196   2.071   5.740  0.0288 -0.2895 -0.4726
 1289SOL    HW1 4248   6.131   2.072   5.811  0.8824  1.0380  0.3003
 1289SOL    HW2 4249   6.163   2.133   5.676 -0.3562 -0.9359 -0.9143
 1290SOL     OW 4250   1.351   3.642   3.513  0.3702  0.4185 -0.1591
 1290SOL    HW1 4251   1.284   3.686   3.565  1.5139 -0.1318  1.8245
 1290SOL    HW2 4252   1.370   3.562   3.562  1.3442 -0.2065 -1.5354
 1291SOL     OW 4253   2.249   2.110   3.765  0.4988  0.2976  0.4666
 1291SOL    HW1 4254   2.197   2.042   3.808 -0.5185  0.4641 -0.4699
 1291SOL    HW2 4255   2.329   2.116   3.817 -0.2476 -0.2513  1.6935
 1292SOL     OW 4256   6.331   4.195   5.813 -0.0207  0.6099  0.2921
 1292SOL    HW1 4257   6.387   4.241   5.874  1.5201 -0.5992 -0.1781
 1292SOL    HW2 4258   6.305   4.115   5.859 -0.1980  0.4866 -0.0171
 1293SOL     OW 4259   5.371   2.153   2.053 -0.0333 -0.4285 -0.7473
 1293SOL    HW1 4260   5.444   2.091   2.054  0.4586  0.1490 -0.1891
 1293SOL    HW2 4261   5.333   2.146   2.141 -0.6051 -0.6704 -1.0111
 1294SOL     OW 4262   6.214   5.569   5.340 -0.0753  0.1800 -0.0173
 1294SOL    HW1 4263   6.177   5.650   5.375  1.3322 -0.6381  3.6097
 1294SOL    HW2 4264   6.301   5.593   5.309 -0.1375  0.2984 -0.0998
 1295SOL     OW 4265   3.807   2.960   0.593  0.5093  0.0785 -0.2102
 1295SOL    HW1 4266   3.855   3.031   0.550 -0.4413 -0.0617 -1.5058
 1295SOL    HW2 4267   3.845   2.880   0.556  0.8101 -0.0815  0.4287
 1296SOL     OW 4268   5.565   0.061   5.675  0.2997  0.1250 -0.3512
 1296SOL    HW1 4269   5.498   0.115   5.715  1.7305  0.8889  1.0589
 1296SOL    HW2 4270   5.633   0.122   5.647  0.9818 -0.7469 -0.6455
 1297SOL     OW 4271   0.733   2.202   1.291  0.3538 -0.1036 -0.6275
 1297SOL    HW1 4272   0.821   2.180   1.262  1.1704  0.3732  1.4198
 1297SOL    HW2 4273   0.722   2.155   1.374 -0.7032  1.1067 -0.0509
 1298SOL     OW 4274   1.790   4.350   5.292  0.2433  0.4000  0.0954
 1298SOL    HW1 4275   1.700   4.381   5.289 -0.1552 -0.8647 -2.3980
 1298SOL    HW2 4276   1.825   4.370   5.205  1.1771 -2.5123 -0.2530
 1299SOL     OW 4277   5.250   1.211   3.086  0.9667  0.6417 -0.1943
 1299SOL    HW1 4278   5.162   1.185   3.062  0.4549  1.3526  0.8744
 1299SOL    HW2 4279   5.298   1.128   3.098  0.3903  0.2589 -0.5386
 1300SOL     OW 4280   1.175   3.532   1.331  0.0104 -0.1482  0.5501
 1300SOL    HW1 4281   1.144   3.503   1.417  0.0131 -1.3530  0.1578
 1300SOL    HW2 4282   1.211   3.452   1.291  0.0197  0.4086 -0.5641
 1301SOL     OW 4283   1.275   1.848   1.937 -0.0364 -0.0087 -0.5087
 1301SOL    HW1 4284   1.299   1.873   1.847  1.0350 -1.4824 -0.6551
 1301SOL    HW2 4285   1.358   1.824   1.977 -0.4531  1.0973  1.0465
 1302SOL     OW 4286   0.691   0.885   1.196 -0.1026 -0.0454  0.3732
 1302SOL    HW1 4287   0.704   0.977   1.170 -0.6549  0.3517  1.4430
 1302SOL    HW2 4288   0.675   0.890   1.290  2.1424 -1.4577  0.8485
 1303SOL     OW 4289   0.475   3.241   5.059  0.0922 -0.4525 -0.1062
 1303SOL    HW1 4290   0.528   3.221   4.982  1.2673 -3.1100  1.3546
 1303SOL    HW2 4291   0.534   3.228   5.133 -1.7599 -0.4670  1.3986
 1304SOL     OW 4292   5.825   2.026   3.272 -0.1439  0.0649 -0.4509
 1304SOL    HW1 4293   5.788   2.113   3.257  1.6854  0.7891 -0.9199
 1304SOL    HW2 4294   5.911   2.043   3.310  1.0063 -1.5025 -2.2998
 1305SOL     OW 4295   5.667   1.394   1.031 -0.2147  0.5079 -0.0307
 1305SOL    HW1 4296   5.640   1.307   1.060 -1.5301  1.2707  1.0746
 1305SOL    HW2 4297   5.744   1.414   1.083 -0.5403  0.4361  0.4840
 1306SOL     OW 4298   0.423   2.762   1.762  0.2640  0.1669  0.2178
 1306SOL    HW1 4299   0.378   2.694   1.710  1.6046 -0.1035 -0.6107
 1306SOL    HW2 4300   0.356   2.829   1.775 -0.9166 -1.0322  0.5410
 1307SOL     OW 4301   4.389   0.658   5.739  0.3320  0.4773  0.5384
 1307SOL    HW1 4302   4.462   0.703   5.696 -0.4481  0.6102 -0.6621
 1307SOL    HW2 4303   4.368   0.714   5.814  0.2517  1.4206 -0.1759
 1308SOL     OW 4304   2.185   4.451   2.177  0.2886 -0.0832  0.1437
 1308SOL    HW1 4305   2.102   4.413   2.207 -0.2104 -0.1984 -1.3406
 1308SOL    HW2 4306   2.244   4.377   2.170  0.2618 -0.1265  0.3677
 1309SOL     OW 4307   1.717   0.058   6.079  0.3937  0.7012 -1.2238
 1309SOL    HW1 4308   1.813   0.061   6.079  0.4912 -1.5497 -0.1851
 1309SOL    HW2 4309   1.695   0.003   6.004  0.0318 -0.9897  0.0951
 1310SOL     OW 4310   6.312   5.031   6.128 -0.0119  0.3798  0.3969
 1310SOL    HW1 4311   6.318   5.021   6.223  2.3547 -0.4442  0.2036
 1310SOL    HW2 4312   6.305   5.125   6.114  1.1221  0.6153  1.3433
 1311SOL     OW 4313   2.455   4.058   5.481 -0.3338 -0.2976  0.5066
 1311SOL    HW1 4314   2.412   4.118   5.543 -1.1061 -0.3000 -0.0178
 1311SOL    HW2 4315   2.389   3.991   5.464  0.0032 -0.4910 -0.0435
 1312SOL     OW 4316   2.308   2.181   0.152  0.2500  0.1188  0.4878
 1312SOL    HW1 4317   2.308   2.103   0.096 -0.7229 -0.0916  0.7660
 1312SOL    HW2 4318   2.215   2.200   0.167  0.4850  1.2677  0.5201
 1313SOL     OW 4319   4.389   1.087   1.047  0.1134  0.3431 -0.2276
 1313SOL    HW1 4320   4.385   1.120   1.137 -0.2309 -1.0108  0.2774
 1313SOL    HW2 4321   4.482   1.076   1.029  0.1621  0.0033  0.2087
 1314SOL     OW 4322   1.265   2.596   4.325 -0.2200  0.0385 -0.0630
 1314SOL    HW1 4323   1.227   2.512   4.301 -1.0880  0.5209 -0.4067
 1314SOL    HW2 4324   1.202   2.661   4.294 -1.1166  0.7165  2.9504
 1315SOL     OW 4325   5.480   5.811   0.008  0.4117  0.2386 -0.0438
 1315SOL    HW1 4326   5.524   5.865   0.074 -0.3743  1.1061 -0.2281
 1315SOL    HW2 4327   5.439   5.741   0.059  2.2624 -0.7705  0.1034
 1316SOL     OW 4328   2.711   3.641   3.594 -0.7010  0.1322  0.2214
 1316SOL    HW1 4329   2.640   3.601   3.645  0.6708  0.3688  2.3862
 1316SOL    HW2 4330   2.676   3.727   3.569 -1.6467 -0.2433  0.2125
 1317SOL     OW 4331   4.870   2.795   3.460  0.1980 -0.0685 -0.3182
 1317SOL    HW1 4332   4.839   2.710   3.427  1.3339 -1.2538  1.6264
 1317SOL    HW2 4333   4.937   2.821   3.398 -0.6382 -0.2515 -1.3201
 1318SOL     OW 4334   4.461   5.658   4.280  0.1922  1.2356 -0.9714
 1318SOL    HW1 4335   4.398   5.659   4.208 -1.6175 -0.3806  0.5165
 1318SOL    HW2 4336   4.410   5.683   4.357  1.2227 -0.5923  0.3504
 1319SOL     OW 4337   3.486   3.849   5.275  0.0858  0.3455 -0.2105
 1319SOL    HW1 4338   3.450   3.822   5.190  1.9842  1.9855 -1.5703
 1319SOL    HW2 4339   3.456   3.939   5.286 -0.2506  0.0975  0.9288
 1320SOL     OW 4340   3.195   6.130   4.989  0.3946 -0.1282  0.0275
 1320SOL    HW1 4341   3.168   6.222   4.994  0.8418 -0.0491  1.1191
 1320SOL    HW2 4342   3.113   6.082   4.981 -0.2290  0.0684  4.0137
 1321SOL     OW 4343   5.098   2.759   4.570 -0.0530  0.2837 -0.0869
 1321SOL    HW1 4344   5.136   2.701   4.636 -0.1720  0.2334 -0.0632
 1321SOL    HW2 4345   5.125   2.847   4.598 -0.5304  0.3047  0.3124
 1322SOL     OW 4346   6.022   5.724   2.296 -0.8191 -0.1420  0.4506
 1322SOL    HW1 4347   6.083   5.795   2.317  1.5162 -1.9018 -0.1867
 1322SOL    HW2 4348   6.077   5.646   2.292 -2.8641 -1.5262 -1.8237
 1323SOL     OW 4349   5.593   2.427   1.605 -0.2733  0.1795 -0.5267
 1323SOL    HW1 4350   5.645   2.353   1.573 -0.3769  0.0808 -0.4663
 1323SOL    HW2 4351   5.650   2.503   1.594  0.1228 -0.0197  0.1613
 1324SOL     OW 4352   0.960   6.277   2.161  0.1709 -0.2430  0.3745
 1324SOL    HW1 4353   0.929   6.360   2.198  3.0715  1.7231 -1.3720
 1324SOL    HW2 4354   0.929   6.278   2.071  0.7882 -0.7393  0.1530
 1325SOL     OW 4355   1.517   4.687   1.231 -0.2708  0.1171  0.1522
 1325SOL    HW1 4356   1.428   4.712   1.204  0.2816  0.9594 -0.9171
 1325SOL    HW2 4357   1.505   4.651   1.319 -1.9204 -1.4927 -0.6974
 1326SOL     OW 4358   6.113   6.346   6.143 -0.0835 -0.4205 -0.1737
 1326SOL    HW1 4359   6.023   6.339   6.176  0.2076  0.5631  0.8750
 1326SOL    HW2 4360   6.112   6.299   6.060 -1.9292  0.8124 -0.8872
 1327SOL     OW 4361   1.187   0.528   5.963 -0.8501 -0.3285 -0.1440
 1327SOL    HW1 4362   1.216   0.590   5.896  0.1287 -2.2542 -1.5550
 1327SOL    HW2 4363   1.098   0.556   5.985  0.0941  2.4021  0.2812
 1328SOL     OW 4364   4.665   2.435   2.420  0.4221 -0.5538  0.2099
 1328SOL    HW1 4365   4.691   2.345   2.441 -0.7015 -0.3775  2.5052
 1328SOL    HW2 4366   4.679   2.442   2.325  2.3970 -2.5087  0.3128
 1329SOL     OW 4367   6.140   0.322   3.558  0.2480 -0.8404  0.1254
 1329SOL    HW1 4368   6.065   0.333   3.617 -0.1702  0.7548 -0.6811
 1329SOL    HW2 4369   6.136   0.230   3.532  0.3021 -1.5097  2.3984
 1330SOL     OW 4370   3.569   1.729   6.036  0.5592  0.1239 -0.2035
 1330SOL    HW1 4371   3.642   1.705   5.979  1.0034  0.2407  0.3163
 1330SOL    HW2 4372   3.573   1.666   6.107  0.0094 -0.0145 -0.2924
 1331SOL     OW 4373   5.586   0.025   1.115 -0.0370 -0.2699  0.4105
 1331SOL    HW1 4374   5.618   0.021   1.205  1.1421 -1.8825 -0.0516
 1331SOL    HW2 4375   5.665   0.029   1.062 -0.5616 -3.1558 -0.7022
 1332SOL     OW 4376   2.415   3.756   1.886 -0.3316 -0.0328 -0.4458
 1332SOL    HW1 4377   2.455   3.781   1.803  1.0144  0.4709  0.3428
 1332SOL    HW2 4378   2.432   3.662   1.894 -1.4811 -0.3287 -1.2746
 1333SOL     OW 4379   5.289   3.797   0.220  0.2028 -0.1077 -0.0725
 1333SOL    HW1 4380   5.244   3.745   0.286 -1.7080  1.3333 -0.2113
 1333SOL    HW2 4381   5.365   3.834   0.266 -0.5083  0.0038  1.0256
 1334SOL     OW 4382   2.295   3.746   4.707 -0.3588 -0.2991 -0.0152
 1334SOL    HW1 4383   2.244   3.825   4.726  0.3325  0.2748 -0.4900
 1334SOL    HW2 4384   2.256   3.678   4.762 -0.3998  0.5773  1.0608
 1335SOL     OW 4385   2.758   6.090   3.576  0.2475 -0.2112 -0.7451
 1335SOL    HW1 4386   2.676   6.095   3.626  0.4337  0.8193 -0.5506
 1335SOL    HW2 4387   2.740   6.137   3.495  1.4725  2.4021  0.4277
 1336SOL     OW 4388   1.754   3.223   5.838  0.1405 -0.3234 -0.4153
 1336SOL    HW1 4389   1.822   3.291   5.841 -0.2296  0.0812 -1.0266
 1336SOL    HW2 4390   1.705   3.242   5.758 -1.1518 -0.1888  0.3949
 1337SOL     OW 4391   5.674   0.118   3.289  0.6488 -0.0379  0.1919
 1337SOL    HW1 4392   5.686   0.075   3.205  0.5226  2.1915 -1.0271
 1337SOL    HW2 4393   5.587   0.091   3.318 -0.1396  0.7199 -1.3798
 1338SOL     OW 4394   0.481   3.470   4.478 -0.1026 -0.0272 -0.1669
 1338SOL    HW1 4395   0.475   3.519   4.560 -1.6574  0.4108 -0.5111
 1338SOL    HW2 4396   0.450   3.531   4.412  1.3238 -0.3218 -1.1094
 1339SOL     OW 4397   2.221   1.128   4.571 -0.5040  0.2973 -0.5342
 1339SOL    HW1 4398   2.135   1.097   4.545  0.0655 -2.2545  0.5197
 1339SOL    HW2 4399   2.282   1.067   4.530  0.6874  0.6053  0.7239
 1340SOL     OW 4400   0.984   0.466   2.014  0.0120  0.4329  0.3902
 1340SOL    HW1 4401   0.949   0.547   1.976 -0.2615 -0.7461 -1.9101
 1340SOL    HW2 4402   1.069   0.492   2.051  0.5205  1.5036 -1.4791
 1341SOL     OW 4403   2.390   2.145   5.227 -0.5461  0.5116  0.2297
 1341SOL    HW1 4404   2.435   2.085   5.287 -0.2996  0.0313 -0.4356
 1341SOL    HW2 4405   2.422   2.232   5.252  1.7653  0.0777 -1.0694
 1342SOL     OW 4406   0.692   5.874   1.929 -0.1704 -0.5661  0.0185
 1342SOL    HW1 4407   0.700   5.957   1.882 -0.0998  0.1609  1.2683
 1342SOL    HW2 4408   0.755   5.816   1.887  1.5638  0.7821  0.7130
 1343SOL     OW 4409   3.964   5.279   6.111  0.8013  0.1487  0.2622
 1343SOL    HW1 4410   3.976   5.285   6.016 -1.4943 -0.3833 -0.1073
 1343SOL    HW2 4411   4.022   5.208   6.138  0.6317 -0.4602 -0.9242
 1344SOL     OW 4412   6.017   1.046   2.529  0.1578  0.1886 -0.0228
 1344SOL    HW1 4413   6.079   1.060   2.457  0.5092 -1.5052 -0.0497
 1344SOL    HW2 4414   5.933   1.074   2.493  0.1459 -1.6373 -1.4523
 1345SOL     OW 4415   5.139   5.220   5.840  0.3765  0.2317 -0.2825
 1345SOL    HW1 4416   5.177   5.140   5.804  0.8059 -0.9133  2.5841
 1345SOL    HW2 4417   5.183   5.232   5.924 -0.6921  2.7126 -0.0312
 1346SOL     OW 4418   3.290   2.711   2.647 -0.3951 -0.1437  0.2790
 1346SOL    HW1 4419   3.237   2.631   2.653  0.3733 -0.5069  2.4286
 1346SOL    HW2 4420   3.249   2.771   2.708  0.8606  0.0474  0.9343
 1347SOL     OW 4421   2.545   4.680   1.000  0.7259 -0.2911  0.0284
 1347SOL    HW1 4422   2.567   4.613   1.065 -0.7815 -0.3409  0.5039
 1347SOL    HW2 4423   2.577   4.762   1.038  1.2231 -0.5296  0.1318
 1348SOL     OW 4424   3.714   0.412   4.791 -0.2277 -1.1930 -0.2912
 1348SOL    HW1 4425   3.773   0.485   4.773 -0.5016 -0.7945  0.4317
 1348SOL    HW2 4426   3.765   0.334   4.769  0.0237 -0.7829 -1.1705
 1349SOL     OW 4427   4.342   1.913   0.485 -0.1534 -0.1517  0.4977
 1349SOL    HW1 4428   4.299   1.987   0.443 -0.2619  0.3493  1.4769
 1349SOL    HW2 4429   4.287   1.894   0.562  0.3757 -0.6618  0.7541
 1350SOL     OW 4430   2.664   2.917   2.059  0.4629  0.4386  0.1545
 1350SOL    HW1 4431   2.696   2.883   1.975 -0.5975 -0.4698  0.1136
 1350SOL    HW2 4432   2.604   2.987   2.035  0.4057  0.3938  0.1682
 1351SOL     OW 4433   3.036   1.820   0.238  0.0632 -0.2869  0.0399
 1351SOL    HW1 4434   3.106   1.866   0.286 -0.0698  0.1096 -0.1426
 1351SOL    HW2 4435   3.057   1.834   0.146 -1.5693  1.8802 -0.0375
 1352SOL     OW 4436   6.021   1.898   4.143  0.1755  0.0036 -0.0307
 1352SOL    HW1 4437   6.018   1.967   4.076  3.3207  0.7474  0.5282
 1352SOL    HW2 4438   6.039   1.818   4.095  0.9655  0.3031 -0.2382
 1353SOL     OW 4439   2.142   0.496   4.178 -0.2412 -0.2078 -0.1419
 1353SOL    HW1 4440   2.069   0.516   4.237 -0.6203 -0.7238 -0.4236
 1353SOL    HW2 4441   2.220   0.509   4.230 -0.4620  2.0073 -0.3186
 1354SOL     OW 4442   0.702   0.334   1.435 -0.1172 -0.0224 -0.1347
 1354SOL    HW1 4443   0.649   0.370   1.364 -2.2831 -1.7112  0.5324
 1354SOL    HW2 4444   0.756   0.267   1.393 -1.6510 -1.2666 -0.1727
 1355SOL     OW 4445   5.691   4.211   2.150  0.1283  0.0176 -0.1618
 1355SOL    HW1 4446   5.631   4.284   2.166  0.4777 -0.0667  1.6073
 1355SOL    HW2 4447   5.643   4.154   2.090 -1.2020  0.4080  0.5106
 1356SOL     OW 4448   3.131   1.369   1.610 -0.0497 -0.4076 -0.3137
 1356SOL    HW1 4449   3.209   1.392   1.660 -0.6381  3.3604 -1.0201
 1356SOL    HW2 4450   3.079   1.315   1.670  0.6856  1.4427  2.0704
 1357SOL     OW 4451   5.693   5.671   2.889 -0.0252  0.5499  0.2340
 1357SOL    HW1 4452   5.756   5.712   2.950 -0.2615  2.2257 -0.6258
 1357SOL    HW2 4453   5.725   5.581   2.879  2.7940  1.6179 -0.8800
 1358SOL     OW 4454   6.112   4.541   5.740 -0.0500 -0.0518  0.0351
 1358SOL    HW1 4455   6.198   4.564   5.773 -0.0571  0.8906 -0.5840
 1358SOL    HW2 4456   6.125   4.459   5.693 -0.0129 -1.3276  2.2268
 1359SOL     OW 4457   6.129   6.114   4.599  0.3799  0.2191 -0.0478
 1359SOL    HW1 4458   6.218   6.142   4.620 -0.2542  2.9192 -0.6905
 1359SOL    HW2 4459   6.073   6.171   4.653 -0.9566 -2.3464  1.3629
 1360SOL     OW 4460   5.131   4.268   1.577 -0.0763  0.3485  0.1793
 1360SOL    HW1 4461   5.152   4.274   1.484  2.7364  1.3129  0.8336
 1360SOL    HW2 4462   5.122   4.359   1.606 -0.4106  0.0659  0.9848
 1361SOL     OW 4463   1.960   0.077   4.837  0.2711  0.3387  0.6612
 1361SOL    HW1 4464   2.055   0.070   4.826 -0.0070 -1.4213 -0.7948
 1361SOL    HW2 4465   1.931  -0.013   4.852 -1.2851  0.7281  0.0980
 1362SOL     OW 4466   5.571   1.175   6.272  0.5169  0.3791  0.0276
 1362SOL    HW1 4467   5.551   1.082   6.282 -0.0792  0.4418 -0.5493
 1362SOL    HW2 4468   5.596   1.204   6.360  1.5489 -0.5228  0.0427
 1363SOL     OW 4469   2.425   3.110   0.098 -0.1407  1.1458 -0.0966
 1363SOL    HW1 4470   2.465   3.111   0.185 -0.2656 -0.5853  0.0023
 1363SOL    HW2 4471   2.497   3.129   0.038  0.2919  0.7144  0.2802
 1364SOL     OW 4472   4.536   1.452   5.298  0.2369  0.1747 -0.0678
 1364SOL    HW1 4473   4.479   1.477   5.370  0.0332  0.5876 -0.3741
 1364SOL    HW2 4474   4.623   1.483   5.324  0.3966 -0.7787  0.5666
 1365SOL     OW 4475   1.594   3.341   2.435  0.0645  0.0816 -0.6388
 1365SOL    HW1 4476   1.629   3.296   2.358  0.5148 -0.4681 -0.1110
 1365SOL    HW2 4477   1.568   3.272   2.495 -1.4104  0.4959 -0.7872
 1366SOL     OW 4478   6.031   1.168   2.792 -0.4341 -0.1561 -0.3909
 1366SOL    HW1 4479   6.125   1.158   2.809  0.2258  0.8250 -3.3061
 1366SOL    HW2 4480   6.017   1.125   2.708 -2.3427  0.9093 -0.6417
 1367SOL     OW 4481   5.915   6.302   0.117 -0.4517  0.0607  0.2949
 1367SOL    HW1 4482   5.890   6.321   0.027  2.0836 -0.3158 -0.5053
 1367SOL    HW2 4483   6.003   6.265   0.111 -1.4259 -2.7932  2.6674
 1368SOL     OW 4484   5.458   2.103   0.776  0.1239 -0.1325 -0.3086
 1368SOL    HW1 4485   5.368   2.070   0.781  1.2432 -3.4040 -0.1744
 1368SOL    HW2 4486   5.494   2.083   0.863  1.2247  0.3605 -0.6546
 1369SOL     OW 4487   5.297   4.288   1.815 -0.1612  0.1789 -0.4582
 1369SOL    HW1 4488   5.216   4.318   1.856 -0.1443 -0.2745 -0.0901
 1369SOL    HW2 4489   5.268   4.236   1.740 -0.2018  0.3773 -0.5816
 1370SOL     OW 4490   0.025   0.868   4.878 -0.6233  0.4559 -0.0767
 1370SOL    HW1 4491  -0.007   0.786   4.916  0.2950  0.7812  1.4704
 1370SOL    HW2 4492  -0.024   0.878   4.797 -0.1874 -2.0082 -0.6736
 1371SOL     OW 4493   3.617   4.540   3.279  0.1898  0.1313 -0.6479
 1371SOL    HW1 4494   3.598   4.514   3.189  1.6385 -0.2473 -0.8524
 1371SOL    HW2 4495   3.542   4.595   3.304 -1.5142 -1.8639 -1.1726
 1372SOL     OW 4496   5.953   5.672   0.297  0.0051  0.6248 -0.5277
 1372SOL    HW1 4497   5.943   5.598   0.358  0.6869  0.3441 -0.7489
 1372SOL    HW2 4498   6.043   5.666   0.267  0.8469  3.0220  1.3395
 1373SOL     OW 4499   0.262   2.185   1.996  0.2405 -0.5414 -0.6085
 1373SOL    HW1 4500   0.331   2.189   2.062  0.0525  1.3102 -0.5092
 1373SOL    HW2 4501   0.287   2.111   1.940  2.3276  0.1290 -0.6093
 1374SOL     OW 4502   6.053   5.236   2.401 -0.2608 -0.3043 -0.1151
 1374SOL    HW1 4503   6.115   5.170   2.433  0.3271  0.1920 -0.2288
 1374SOL    HW2 4504   6.066   5.236   2.306  0.3054  0.5445 -0.0377
 1375SOL     OW 4505   6.188   3.242   3.923 -0.3081  0.3414 -0.2894
 1375SOL    HW1 4506   6.178   3.167   3.982 -1.0062  1.5261  1.1445
 1375SOL    HW2 4507   6.100   3.260   3.891 -0.0206  0.0648 -1.2525
 1376SOL     OW 4508   5.040   2.423   3.117 -0.6373 -0.3587  0.2206
 1376SOL    HW1 4509   5.122   2.419   3.068 -0.3315 -0.9359  0.7749
 1376SOL    HW2 4510   4.996   2.502   3.084  0.1353 -0.0479 -0.0711
 1377SOL     OW 4511   2.921   1.704   1.047  0.2536 -0.1816  0.1381
 1377SOL    HW1 4512   2.959   1.775   1.099  0.0773  0.6880 -0.8843
 1377SOL    HW2 4513   2.914   1.630   1.107  1.2702  0.4027  0.9814
 1378SOL     OW 4514   3.587   1.208   2.090  0.2542  0.5414 -0.0775
 1378SOL    HW1 4515   3.642   1.138   2.125  0.8327  0.7732 -0.5191
 1378SOL    HW2 4516   3.503   1.198   2.135  0.4996 -0.1218  0.2296
 1379SOL     OW 4517   4.362   6.058   6.271 -0.1023  0.4480 -0.5567
 1379SOL    HW1 4518   4.420   5.989   6.241 -0.6286 -0.0759 -0.3831
 1379SOL    HW2 4519   4.285   6.012   6.305  0.3159  1.0480  1.2307
 1380SOL     OW 4520   0.893   0.868   2.120 -0.4890 -0.2840  0.1222
 1380SOL    HW1 4521   0.891   0.964   2.115 -1.2736 -0.3330 -0.5154
 1380SOL    HW2 4522   0.817   0.845   2.172  0.9676 -0.4491  2.2263
 1381SOL     OW 4523   5.971   0.132   1.215 -0.6258 -0.0841 -0.2355
 1381SOL    HW1 4524   5.889   0.178   1.199  0.1625  1.3427 -0.2556
 1381SOL    HW2 4525   5.981   0.072   1.141 -0.7724  1.0159 -1.1517
 1382SOL     OW 4526   1.736   1.891   1.804 -0.4522 -0.5037  0.3524
 1382SOL    HW1 4527   1.697   1.943   1.733 -0.5879 -0.5518  0.3920
 1382SOL    HW2 4528   1.709   1.801   1.786  0.8105 -0.7485 -0.4159
 1383SOL     OW 4529   1.266   0.019   0.814 -0.1284 -0.2801 -0.1164
 1383SOL    HW1 4530   1.183   0.063   0.797 -0.6174 -1.1773 -0.0555
 1383SOL    HW2 4531   1.285   0.039   0.906  0.5718  1.3180 -0.5899
 1384SOL     OW 4532   4.848   5.813   3.559  0.5849  0.0058 -0.0818
 1384SOL    HW1 4533   4.943   5.811   3.559  0.5878  0.1356 -0.2630
 1384SOL    HW2 4534   4.823   5.762   3.482  0.4264 -3.7849  2.3692
 1385SOL     OW 4535   1.452   2.267   2.466 -0.1828 -0.0482  0.3854
 1385SOL    HW1 4536   1.513   2.202   2.500 -1.3517 -0.7337  1.2254
 1385SOL    HW2 4537   1.481   2.350   2.505 -0.3903 -0.5312  1.5954
 1386SOL     OW 4538   2.307   5.663   3.210 -0.2846  0.4245  0.2862
 1386SOL    HW1 4539   2.291   5.756   3.229 -2.7062 -0.0232  0.5980
 1386SOL    HW2 4540   2.249   5.644   3.136  0.8301 -0.6564 -0.3251
 1387SOL     OW 4541   1.595   2.094   4.950  0.5035 -0.0753  0.1944
 1387SOL    HW1 4542   1.657   2.118   5.019  0.5079 -2.1853  0.9479
 1387SOL    HW2 4543   1.620   2.005   4.925 -0.0240  0.3713 -1.9609
 1388SOL     OW 4544   0.040   4.051   6.081 -0.3750 -0.6585  0.5242
 1388SOL    HW1 4545  -0.046   4.027   6.115 -0.5447  0.2298  0.7329
 1388SOL    HW2 4546   0.079   4.105   6.149 -1.5088  2.8417 -1.4392
 1389SOL     OW 4547   2.673   2.957   5.320 -0.6555  0.6735 -0.0217
 1389SOL    HW1 4548   2.595   2.977   5.372 -0.2691  1.6050  0.2127
 1389SOL    HW2 4549   2.648   2.977   5.230 -1.0977 -0.2654 -0.1170
 1390SOL     OW 4550   4.716   2.704   5.244 -0.1132 -0.1927 -0.0009
 1390SOL    HW1 4551   4.694   2.754   5.165 -0.4931  0.7320  0.6788
 1390SOL    HW2 4552   4.710   2.768   5.315  0.9242 -0.8583  0.6916
 1391SOL     OW 4553   2.923   2.748   2.856  0.4929 -0.1261 -0.3421
 1391SOL    HW1 4554   2.852   2.788   2.907  2.1849  0.1588  1.8291
 1391SOL    HW2 4555   2.990   2.816   2.851  0.3082 -0.0683 -3.1802
 1392SOL     OW 4556   4.860   6.286   2.939  0.5355  0.1182  0.2207
 1392SOL    HW1 4557   4.788   6.345   2.959  0.8256  1.5737 -2.7585
 1392SOL    HW2 4558   4.823   6.198   2.948 -0.7832  0.7887  1.5471
 1393SOL     OW 4559   0.233   4.382   1.844 -0.3319 -0.0388 -0.4249
 1393SOL    HW1 4560   0.227   4.309   1.783 -1.4167  2.1793 -3.0631
 1393SOL    HW2 4561   0.189   4.351   1.923 -0.3014 -2.4026 -1.3038
 1394SOL     OW 4562   1.445   3.356   3.231  1.2347 -0.1733  0.4476
 1394SOL    HW1 4563   1.475   3.359   3.140 -0.1788  0.9986  0.0054
 1394SOL    HW2 4564   1.435   3.262   3.250 -0.5893 -0.3780 -1.3332
 1395SOL     OW 4565   1.450   1.963   5.277  0.3875  0.1171 -0.2216
 1395SOL    HW1 4566   1.413   2.042   5.237  2.0828  1.1944  0.2801
 1395SOL    HW2 4567   1.374   1.913   5.307 -0.6834  1.7255 -0.2169
 1396SOL     OW 4568   5.004   1.318   0.345  0.2023 -0.2956  0.3756
 1396SOL    HW1 4569   5.088   1.308   0.299  0.1993 -1.4022  0.6111
 1396SOL    HW2 4570   5.021   1.283   0.432 -0.5365 -0.5925  0.3958
 1397SOL     OW 4571   4.540   4.231   3.807  0.4521  0.1194 -0.2768
 1397SOL    HW1 4572   4.566   4.198   3.721  2.2375 -0.6813  0.5527
 1397SOL    HW2 4573   4.531   4.153   3.862  3.1727  0.8178  1.2791
 1398SOL     OW 4574   2.207   6.306   6.149 -0.3650  0.8914 -0.0876
 1398SOL    HW1 4575   2.294   6.340   6.170 -0.4148  0.0792  1.5651
 1398SOL    HW2 4576   2.224   6.223   6.105 -0.2709 -0.2109  1.9299
 1399SOL     OW 4577   2.414   5.368   4.365 -0.0777  0.1675  0.1279
 1399SOL    HW1 4578   2.330   5.369   4.411  0.2932 -0.3606  0.8385
 1399SOL    HW2 4579   2.399   5.418   4.286 -1.7191 -1.8757 -0.9063
 1400SOL     OW 4580   4.677   2.900   6.156 -0.3090 -0.1330 -0.0075
 1400SOL    HW1 4581   4.583   2.882   6.155 -0.5563  1.0934  0.3496
 1400SOL    HW2 4582   4.684   2.993   6.138  0.8735 -0.3175 -0.5597
 1401SOL     OW 4583   6.139   4.370   2.046 -0.3062  0.3842  0.1309
 1401SOL    HW1 4584   6.088   4.328   1.976 -0.9565  1.1480  0.1378
 1401SOL    HW2 4585   6.194   4.299   2.081 -1.2304 -0.4085  0.0034
 1402SOL     OW 4586   6.135   2.845   0.411  0.0045 -0.0545  0.0994
 1402SOL    HW1 4587   6.148   2.750   0.412  1.0135  0.0688 -0.7513
 1402SOL    HW2 4588   6.040   2.856   0.399 -0.7232 -0.9492  4.2374
 1403SOL     OW 4589   4.457   2.196   1.854 -0.1004  0.2850  0.5985
 1403SOL    HW1 4590   4.532   2.245   1.821 -1.1128  1.3619 -0.1674
 1403SOL    HW2 4591   4.434   2.241   1.936 -0.7376  0.8123  0.1368
 1404SOL     OW 4592   5.657   3.487   2.262 -0.0036 -0.0051 -0.2220
 1404SOL    HW1 4593   5.729   3.550   2.273  0.9028 -0.6297 -2.2494
 1404SOL    HW2 4594   5.701   3.405   2.240 -1.3412 -0.2837 -1.9528
 1405SOL     OW 4595   4.400   4.014   3.968 -0.4368 -0.0018  0.4361
 1405SOL    HW1 4596   4.359   4.015   4.055 -2.5617  0.0754 -0.5265
 1405SOL    HW2 4597   4.409   3.921   3.947  0.6513 -0.0271  0.9824
 1406SOL     OW 4598   4.933   1.730   3.766  0.5919 -0.3584  0.9052
 1406SOL    HW1 4599   4.986   1.664   3.721 -1.1180 -0.4391 -1.0285
 1406SOL    HW2 4600   4.852   1.685   3.788 -0.6850  1.1469 -0.6454
 1407SOL     OW 4601   2.205   1.547   2.162 -0.8523 -0.1846  0.9099
 1407SOL    HW1 4602   2.116   1.523   2.188 -1.1510  1.3097  1.3293
 1407SOL    HW2 4603   2.198   1.638   2.134  0.3699 -0.3563  0.0172
 1408SOL     OW 4604   2.440   5.895   0.793 -0.0789 -0.3026  0.5366
 1408SOL    HW1 4605   2.531   5.884   0.820  0.0311 -0.6165  0.0355
 1408SOL    HW2 4606   2.411   5.807   0.769 -0.6553 -0.2831  1.1280
 1409SOL     OW 4607   4.274   4.281   4.133  0.3515 -0.0326 -0.6664
 1409SOL    HW1 4608   4.203   4.231   4.094 -0.7975  1.3903 -0.4353
 1409SOL    HW2 4609   4.275   4.364   4.085  0.9989  0.4829  0.2068
 1410SOL     OW 4610   1.286   5.378   4.227 -0.2472  0.2119  0.0980
 1410SOL    HW1 4611   1.317   5.288   4.217  2.0033  0.8347  1.0874
 1410SOL    HW2 4612   1.214   5.385   4.166  0.3618 -1.8955 -0.9335
 1411SOL     OW 4613   0.993   2.186   1.259  0.2302 -0.3131 -0.0577
 1411SOL    HW1 4614   0.977   2.180   1.165 -2.8454  3.2194  0.0997
 1411SOL    HW2 4615   1.020   2.277   1.273 -0.3693 -0.4843  2.5567
 1412SOL     OW 4616   2.180   2.427   2.584  0.1910 -0.3780 -0.2600
 1412SOL    HW1 4617   2.188   2.353   2.523 -1.0113 -1.9015  1.3800
 1412SOL    HW2 4618   2.087   2.450   2.581  0.2980  0.1485  0.3145
 1413SOL     OW 4619   1.883   1.563   4.175 -0.0551  1.4956  0.1483
 1413SOL    HW1 4620   1.920   1.479   4.149  1.0489  1.8090  0.6734
 1413SOL    HW2 4621   1.793   1.561   4.143 -1.0338 -1.1487  2.8537
 1414SOL     OW 4622   3.315   1.124   0.594 -0.4986  0.3443 -0.4519
 1414SOL    HW1 4623   3.287   1.209   0.627 -0.3679 -0.6388  2.2906
 1414SOL    HW2 4624   3.395   1.143   0.545 -0.7717  1.8625 -0.3375
 1415SOL     OW 4625   3.939   3.172   5.690  0.0774  0.2041  0.2350
 1415SOL    HW1 4626   3.868   3.235   5.694  0.8004  0.9816  1.2904
 1415SOL    HW2 4627   4.004   3.212   5.631 -0.3048 -0.4536 -0.6433
 1416SOL     OW 4628   3.252   5.230   2.910  0.1454  0.4861 -0.3468
 1416SOL    HW1 4629   3.287   5.147   2.945 -0.0287  0.7836  0.5607
 1416SOL    HW2 4630   3.231   5.281   2.988  0.5953  1.5368 -0.9027
 1417SOL     OW 4631   1.188   5.278   0.897 -0.4358  0.0343  0.0883
 1417SOL    HW1 4632   1.186   5.373   0.908 -0.2117 -0.0039  0.4768
 1417SOL    HW2 4633   1.099   5.250   0.922 -1.6747  0.4938 -3.5193
 1418SOL     OW 4634   2.950   0.235   5.682  0.0722 -0.1104 -0.0084
 1418SOL    HW1 4635   2.967   0.325   5.709  2.1683 -0.3707 -0.3562
 1418SOL    HW2 4636   2.913   0.193   5.759  1.3771  0.4209  0.9260
 1419SOL     OW 4637   4.204   0.970   4.463 -0.6764 -0.0456  0.0275
 1419SOL    HW1 4638   4.300   0.972   4.461 -0.7131  1.2152 -2.3868
 1419SOL    HW2 4639   4.183   0.921   4.542  1.9724 -1.2984  0.0199
 1420SOL     OW 4640   4.033   3.861   4.092 -0.1094 -0.7383 -0.1844
 1420SOL    HW1 4641   3.989   3.818   4.165 -0.7602  1.9561  1.0665
 1420SOL    HW2 4642   3.972   3.850   4.018 -0.6634 -1.1958  0.3353
 1421SOL     OW 4643   0.349   2.082   0.006  0.3982  0.5942 -0.1354
 1421SOL    HW1 4644   0.374   2.159   0.058 -1.7459  0.7825  0.6421
 1421SOL    HW2 4645   0.257   2.068   0.026  1.0367 -2.9036  0.6120
 1422SOL     OW 4646   3.342   0.531   0.453 -0.0199 -0.1298 -0.3641
 1422SOL    HW1 4647   3.373   0.576   0.374 -0.0383 -0.1736 -0.3963
 1422SOL    HW2 4648   3.356   0.594   0.523  2.3591 -1.0038 -0.0143
 1423SOL     OW 4649   0.019   3.295   1.243 -0.2536 -0.3709 -0.1084
 1423SOL    HW1 4650   0.011   3.390   1.252 -0.0936 -0.3400 -0.2885
 1423SOL    HW2 4651   0.006   3.262   1.331  1.5543 -0.0507  0.3041
 1424SOL     OW 4652   4.290   4.721   1.247 -0.4948 -0.1476 -0.2413
 1424SOL    HW1 4653   4.376   4.755   1.272 -0.4332  0.2912 -1.0514
 1424SOL    HW2 4654   4.260   4.673   1.325  0.1624  0.3078  0.2966
 1425SOL     OW 4655   2.952   1.745   4.599  0.3187 -0.0542  0.1485
 1425SOL    HW1 4656   3.029   1.690   4.610  0.5652  0.1613 -0.4565
 1425SOL    HW2 4657   2.931   1.739   4.506 -0.1573  0.2014  0.2341
 1426SOL     OW 4658   2.977   4.091   2.585 -0.2656 -0.6326  0.4135
 1426SOL    HW1 4659   3.041   4.154   2.551 -2.7675  1.6696 -0.1796
 1426SOL    HW2 4660   2.989   4.094   2.680  0.7619 -0.5236  0.2909
 1427SOL     OW 4661   3.801   0.055   2.791  0.1026  0.1145 -0.5705
 1427SOL    HW1 4662   3.824   0.110   2.866  1.0829 -1.4870  0.3413
 1427SOL    HW2 4663   3.824  -0.034   2.819 -1.8743 -0.8180 -1.8431
 1428SOL     OW 4664   5.142   5.196   1.162  0.1112 -0.1495 -0.0584
 1428SOL    HW1 4665   5.191   5.182   1.243 -0.4716  1.1050  0.5145
 1428SOL    HW2 4666   5.188   5.142   1.097  1.3505 -0.1601  0.8062
 1429SOL     OW 4667   4.280   3.925   4.232  0.1808  0.1414  0.4363
 1429SOL    HW1 4668   4.234   3.984   4.292 -0.4184 -0.0635  0.1768
 1429SOL    HW2 4669   4.211   3.876   4.188  0.5706  0.8433 -1.0060
 1430SOL     OW 4670   0.279   4.417   3.622 -0.2097 -0.5095 -0.1714
 1430SOL    HW1 4671   0.269   4.368   3.541 -0.1633 -0.0757 -0.4388
 1430SOL    HW2 4672   0.311   4.503   3.595 -0.1116 -0.3914  0.3108
 1431SOL     OW 4673   6.278   4.462   6.035 -0.4761  0.1218  0.3052
 1431SOL    HW1 4674   6.309   4.551   6.051  0.1380  0.2449 -1.4580
 1431SOL    HW2 4675   6.209   4.471   5.970 -2.4761 -0.4238  2.2858
 1432SOL     OW 4676   1.318   5.050   2.819  0.2316  0.2532  0.1745
 1432SOL    HW1 4677   1.409   5.041   2.791  0.6606  0.8367  1.3410
 1432SOL    HW2 4678   1.267   5.045   2.738  1.5088  3.0328 -0.8478
 1433SOL     OW 4679   4.537   6.004   0.475 -0.0379  0.3723  0.8013
 1433SOL    HW1 4680   4.582   6.076   0.430  0.2003  0.4613  1.1803
 1433SOL    HW2 4681   4.599   5.931   0.470  0.5542  0.7570  2.1298
 1434SOL     OW 4682   4.476   2.317   3.761  0.6613 -0.3717  0.3634
 1434SOL    HW1 4683   4.494   2.259   3.835  1.4941 -0.2028  0.3028
 1434SOL    HW2 4684   4.399   2.367   3.788 -0.4881 -1.9912  0.1138
 1435SOL     OW 4685   5.615   2.593   2.505 -1.4520  0.9101 -0.0951
 1435SOL    HW1 4686   5.642   2.587   2.413  0.8835  2.1127  0.4741
 1435SOL    HW2 4687   5.562   2.673   2.509 -2.1263  0.4902 -0.5182
 1436SOL     OW 4688   2.656   4.688   4.829 -0.4173  0.0481 -0.0163
 1436SOL    HW1 4689   2.637   4.697   4.923  1.7516 -0.9573  0.5614
 1436SOL    HW2 4690   2.706   4.768   4.808  1.6007 -1.0658  0.4027
 1437SOL     OW 4691   0.392   3.681   5.037  0.2336 -0.2071  0.2656
 1437SOL    HW1 4692   0.445   3.757   5.060  0.4585 -0.7255  1.5473
 1437SOL    HW2 4693   0.340   3.709   4.962  0.3872  1.1630  0.6561
 1438SOL     OW 4694   6.079   3.546   0.433  0.0772  0.3877 -0.4244
 1438SOL    HW1 4695   6.035   3.505   0.508 -1.4188  4.0062  0.7645
 1438SOL    HW2 4696   6.171   3.521   0.444 -0.9532 -4.0837 -0.8148
 1439SOL     OW 4697   2.571   6.175   6.028  0.6688  0.3833  0.2007
 1439SOL    HW1 4698   2.515   6.204   6.100 -1.1146  1.3472 -1.5430
 1439SOL    HW2 4699   2.623   6.104   6.066 -1.4056 -0.2436  1.9782
 1440SOL     OW 4700   3.371   2.838   0.036 -0.3285  0.2065  0.0773
 1440SOL    HW1 4701   3.401   2.902   0.100 -0.9879 -0.6605  1.2835
 1440SOL    HW2 4702   3.441   2.834  -0.029  1.5338 -0.7556  2.0720
 1441SOL     OW 4703   2.351   4.336   2.823 -0.7046 -0.7441 -0.8043
 1441SOL    HW1 4704   2.405   4.290   2.758  0.9978  0.7836 -0.4934
 1441SOL    HW2 4705   2.303   4.401   2.771 -1.5307 -1.4389 -0.9311
 1442SOL     OW 4706   3.538   0.838   0.306  0.3507 -0.5538 -0.1143
 1442SOL    HW1 4707   3.625   0.841   0.344  0.8048  3.3175 -1.2798
 1442SOL    HW2 4708   3.553   0.833   0.211 -0.7254 -1.5879 -0.2514
 1443SOL     OW 4709   5.465   3.932   2.991 -0.5216 -0.1408  0.3148
 1443SOL    HW1 4710   5.543   3.878   3.003 -0.7358 -0.3114  0.9622
 1443SOL    HW2 4711   5.400   3.895   3.050 -0.4716  1.2194  1.2468
 1444SOL     OW 4712   3.034   4.189   3.934  0.3527  0.4011  0.0356
 1444SOL    HW1 4713   2.962   4.129   3.955 -0.1780  0.3965 -1.7631
 1444SOL    HW2 4714   3.069   4.156   3.851  0.5880  2.0957 -0.5548
 1445SOL     OW 4715   5.174   3.944   2.699 -0.0438  0.2133  0.0108
 1445SOL    HW1 4716   5.221   3.999   2.762  0.2932 -0.0566 -0.0057
 1445SOL    HW2 4717   5.141   4.006   2.634  1.1053  0.3070 -0.5001
 1446SOL     OW 4718   1.144   5.413   2.819 -0.0339  0.2520 -0.4864
 1446SOL    HW1 4719   1.177   5.415   2.729 -0.0207 -0.4591 -0.4984
 1446SOL    HW2 4720   1.124   5.321   2.835  0.1918  0.3397  0.3251
 1447SOL     OW 4721   0.457   2.231   2.993 -0.1953  0.1025  0.5221
 1447SOL    HW1 4722   0.550   2.235   3.016 -0.2563  0.3850  0.7249
 1447SOL    HW2 4723   0.447   2.291   2.920 -0.2808  0.3297  0.7187
 1448SOL     OW 4724   1.725   1.644   0.247 -0.4109  0.3881 -0.4448
 1448SOL    HW1 4725   1.694   1.732   0.270  1.8544  0.9274  0.6867
 1448SOL    HW2 4726   1.807   1.659   0.201 -0.7051 -1.0917 -1.4612
 1449SOL     OW 4727   0.609   5.582   2.874  0.6314  0.1881  0.0574
 1449SOL    HW1 4728   0.564   5.562   2.792  0.7983 -0.7174  0.1890
 1449SOL    HW2 4729   0.691   5.623   2.847  0.8415 -0.4243 -0.2412
 1450SOL     OW 4730   0.420   4.760   0.044  0.4208  0.3923 -0.1724
 1450SOL    HW1 4731   0.381   4.846   0.064  0.0475  0.1012  0.3675
 1450SOL    HW2 4732   0.376   4.732  -0.036 -0.4416  0.0964  0.4001
 1451SOL     OW 4733   5.856   4.096   1.425  0.5594 -0.7515  0.2083
 1451SOL    HW1 4734   5.786   4.044   1.464  0.1270 -1.8951 -2.0131
 1451SOL    HW2 4735   5.836   4.186   1.450 -1.2914 -1.1460  0.2230
 1452SOL     OW 4736   2.518   6.165   3.678 -0.7033 -0.3052 -0.3281
 1452SOL    HW1 4737   2.520   6.208   3.763 -1.0278  0.6079 -0.7734
 1452SOL    HW2 4738   2.435   6.117   3.677  0.2062 -1.9018  0.6323
 1453SOL     OW 4739   1.704   3.206   2.179  0.3074 -0.0578 -0.9157
 1453SOL    HW1 4740   1.726   3.129   2.231 -1.4623 -1.1702 -1.7565
 1453SOL    HW2 4741   1.777   3.266   2.193  1.6232 -1.7996 -0.0907
 1454SOL     OW 4742   3.388   6.173   6.015  0.1824 -0.2644  0.3427
 1454SOL    HW1 4743   3.472   6.129   6.024 -0.1127 -0.4426  2.3038
 1454SOL    HW2 4744   3.342   6.123   5.948  1.1827 -0.8404  0.0718
 1455SOL     OW 4745   0.566   0.417   1.842  0.5691  0.2458 -0.0725
 1455SOL    HW1 4746   0.577   0.498   1.891 -0.6975  0.4595 -0.1237
 1455SOL    HW2 4747   0.623   0.354   1.885 -0.3035  0.5100  1.4850
 1456SOL     OW 4748   5.617   2.180   3.962 -0.6316  0.1502 -0.2481
 1456SOL    HW1 4749   5.532   2.136   3.956 -0.3934 -0.2056 -1.1811
 1456SOL    HW2 4750   5.679   2.115   3.930  0.0611  0.2366  0.8874
 1457SOL     OW 4751   1.832   4.563   3.600  0.2780 -0.0129  0.1687
 1457SOL    HW1 4752   1.849   4.596   3.512 -0.4168 -0.5935 -0.1853
 1457SOL    HW2 4753   1.854   4.470   3.596 -0.1275 -0.1272  0.5068
 1458SOL     OW 4754   3.371   2.836   5.136 -0.3097  0.6199 -0.1815
 1458SOL    HW1 4755   3.328   2.794   5.061  0.2614 -1.4256  0.5967
 1458SOL    HW2 4756   3.331   2.795   5.213 -0.0112  1.8013  0.6174
 1459SOL     OW 4757   6.014   4.374   3.968  0.1908  0.1848 -0.4526
 1459SOL    HW1 4758   5.960   4.312   3.919 -1.4613  2.0237 -1.0055
 1459SOL    HW2 4759   6.028   4.446   3.908  1.4066  0.7328  0.4753
 1460SOL     OW 4760   2.877   3.046   0.693 -0.4375 -0.1989  0.2908
 1460SOL    HW1 4761   2.849   3.027   0.604 -1.0003  2.3605 -0.1137
 1460SOL    HW2 4762   2.942   2.978   0.713 -1.2210 -1.5291 -1.5975
 1461SOL     OW 4763   1.040   0.134   0.730 -0.6783  0.1415 -0.1063
 1461SOL    HW1 4764   1.012   0.147   0.639 -0.0018  0.3030 -0.2982
 1461SOL    HW2 4765   0.967   0.165   0.782 -1.1061 -0.0227 -0.5992
 1462SOL     OW 4766   3.215   1.968   5.671  0.2302 -0.7950  0.2900
 1462SOL    HW1 4767   3.229   2.061   5.654  3.0298 -1.1759  0.2935
 1462SOL    HW2 4768   3.225   1.959   5.766  0.7701 -1.2132  0.1968
 1463SOL     OW 4769   5.386   4.956   6.011  0.0024 -0.5940  0.0241
 1463SOL    HW1 4770   5.423   4.894   6.074 -0.4857 -0.9148 -0.0016
 1463SOL    HW2 4771   5.441   5.034   6.019  0.1733 -0.7681  0.5787
 1464SOL     OW 4772   5.525   4.842   1.208  0.0352 -0.0955  0.4717
 1464SOL    HW1 4773   5.545   4.917   1.153 -2.2084  1.2920  1.4748
 1464SOL    HW2 4774   5.601   4.833   1.265  0.0163  1.8942  0.8323
 1465SOL     OW 4775   6.270   1.315   2.345  0.6015  0.2308  0.6844
 1465SOL    HW1 4776   6.314   1.310   2.260  0.4439 -0.9427  0.6758
 1465SOL    HW2 4777   6.341   1.331   2.407  0.6675  1.5321  0.2911
 1466SOL     OW 4778   0.979   3.788   5.157  0.4059 -0.4143  0.0829
 1466SOL    HW1 4779   0.966   3.840   5.077 -0.6396 -1.5812 -0.5284
 1466SOL    HW2 4780   0.984   3.853   5.227 -1.2479  0.5153 -0.6233
 1467SOL     OW 4781   3.869   0.571   2.154  0.2188  0.7217  0.3331
 1467SOL    HW1 4782   3.828   0.620   2.084  0.2647 -0.9845 -0.9248
 1467SOL    HW2 4783   3.951   0.538   2.116  0.2954 -0.1281  1.2013
 1468SOL     OW 4784   2.848   3.892   4.080 -0.1773 -1.1169  0.0765
 1468SOL    HW1 4785   2.921   3.860   4.133 -0.0449 -2.8778 -1.1227
 1468SOL    HW2 4786   2.770   3.865   4.128 -0.0859  1.3808  1.7187
 1469SOL     OW 4787   4.886   0.930   3.527  0.0433  0.0558  0.3387
 1469SOL    HW1 4788   4.876   0.842   3.561 -0.0815 -0.4771 -1.0573
 1469SOL    HW2 4789   4.836   0.931   3.446  0.5291  1.2325  0.0382
 1470SOL     OW 4790   5.980   4.969   3.674  0.3370 -0.0152  0.0056
 1470SOL    HW1 4791   5.956   5.030   3.743 -0.3477  1.1710 -1.2499
 1470SOL    HW2 4792   5.897   4.939   3.638  0.6585  1.1225 -1.7872
 1471SOL     OW 4793   1.428   0.596   5.213 -0.1501  0.1240  0.5020
 1471SOL    HW1 4794   1.352   0.651   5.199 -0.7140 -1.0029 -0.9800
 1471SOL    HW2 4795   1.401   0.533   5.280 -0.6109 -0.4592 -0.2362
 1472SOL     OW 4796   5.972   4.120   0.081  0.0250 -0.0270  0.2629
 1472SOL    HW1 4797   6.049   4.074   0.113  0.2062 -0.0630 -0.2258
 1472SOL    HW2 4798   5.931   4.059   0.019 -1.5062 -0.8342  2.0068
 1473SOL     OW 4799   0.137   5.060   1.890 -0.7408 -0.4622  0.4008
 1473SOL    HW1 4800   0.118   4.974   1.854 -1.5037  1.1662 -3.3433
 1473SOL    HW2 4801   0.228   5.056   1.918 -1.0056 -2.6902  0.9903
 1474SOL     OW 4802   5.656   2.214   0.098 -0.3944  0.2749  0.3074
 1474SOL    HW1 4803   5.598   2.159   0.045 -2.8548  2.0456  1.0719
 1474SOL    HW2 4804   5.697   2.153   0.159 -2.1455 -0.9246  0.3435
 1475SOL     OW 4805   3.128   3.844   5.378  0.0267 -0.1971  0.0708
 1475SOL    HW1 4806   3.103   3.881   5.293 -0.1256 -1.8172 -0.6056
 1475SOL    HW2 4807   3.049   3.846   5.430 -0.4191 -1.1569 -0.5528
 1476SOL     OW 4808   0.260   4.285   3.404  0.3113  0.3328 -0.2670
 1476SOL    HW1 4809   0.209   4.330   3.336  1.4224  2.5954  0.3744
 1476SOL    HW2 4810   0.261   4.194   3.375 -2.2551  0.6031 -1.4299
 1477SOL     OW 4811   6.373   4.987   2.119 -0.0511 -0.0002 -0.0691
 1477SOL    HW1 4812   6.322   4.921   2.073 -0.2347 -0.3928  0.6934
 1477SOL    HW2 4813   6.436   5.018   2.053  0.4785 -1.4070 -0.2451
 1478SOL     OW 4814   5.904   3.489   5.255 -0.2871  0.4583 -0.2739
 1478SOL    HW1 4815   5.823   3.458   5.216 -1.1523  0.9043  1.1107
 1478SOL    HW2 4816   5.962   3.507   5.181 -1.5042  0.2670 -1.2821
 1479SOL     OW 4817   1.047   4.073   5.374 -0.4423 -0.3431 -0.3972
 1479SOL    HW1 4818   1.087   3.989   5.400 -1.2608 -0.6297 -0.0539
 1479SOL    HW2 4819   1.099   4.139   5.421  1.1555 -0.5395 -1.8134
 1480SOL     OW 4820   4.247   1.989   1.549 -1.1628  0.9417 -0.2693
 1480SOL    HW1 4821   4.214   1.928   1.483  0.3333  0.4952 -0.6245
 1480SOL    HW2 4822   4.321   2.032   1.506  2.4338 -2.2367  2.4259
 1481SOL     OW 4823   3.794   1.883   1.351 -0.6839 -0.3245  0.5910
 1481SOL    HW1 4824   3.838   1.826   1.415  1.4392  0.7915  0.1608
 1481SOL    HW2 4825   3.749   1.822   1.293  2.6921 -1.7331 -0.7101
 1482SOL     OW 4826   5.533   5.172   6.038 -0.2502 -0.2512  0.0704
 1482SOL    HW1 4827   5.584   5.160   6.118 -0.1464  0.2796  0.0851
 1482SOL    HW2 4828   5.597   5.200   5.973 -0.8116  2.1774  0.5438
 1483SOL     OW 4829   4.583   3.132   1.837  0.0282  0.1508  0.0573
 1483SOL    HW1 4830   4.527   3.144   1.761 -1.3589  0.5906  1.1401
 1483SOL    HW2 4831   4.524   3.107   1.908  1.0367  1.7112  1.4830
 1484SOL     OW 4832   2.489   1.709   4.148  0.2474 -0.5786 -0.3888
 1484SOL    HW1 4833   2.430   1.701   4.073 -1.4434  0.1062  0.8566
 1484SOL    HW2 4834   2.561   1.763   4.115  0.3058 -1.5790 -1.9694
 1485SOL     OW 4835   1.615   0.074   5.454 -0.1841 -0.4424  0.2764
 1485SOL    HW1 4836   1.562   0.019   5.396  0.7686  0.0484 -1.0819
 1485SOL    HW2 4837   1.662   0.133   5.395  1.0958 -0.1889  1.5193
 1486SOL     OW 4838   2.740   4.839   3.204  0.5674 -0.4076 -0.2184
 1486SOL    HW1 4839   2.670   4.866   3.264  0.6143 -0.2862 -0.2196
 1486SOL    HW2 4840   2.697   4.835   3.118  0.3549 -1.1584 -0.0834
 1487SOL     OW 4841   2.173   2.760   0.772 -0.2743  0.1059  0.1576
 1487SOL    HW1 4842   2.156   2.854   0.775  1.0219  0.3571 -0.2985
 1487SOL    HW2 4843   2.250   2.747   0.828 -0.5988 -0.7275  0.4264
 1488SOL     OW 4844   6.293   5.709   1.718 -0.0774 -0.6208  0.1350
 1488SOL    HW1 4845   6.354   5.641   1.744  0.3704 -0.4138 -0.3487
 1488SOL    HW2 4846   6.258   5.743   1.800 -0.0773 -1.2264  0.3883
 1489SOL     OW 4847   2.308   0.289   4.968 -0.0498 -0.0122  0.1931
 1489SOL    HW1 4848   2.364   0.348   5.019 -2.0395  0.6794  1.6502
 1489SOL    HW2 4849   2.264   0.346   4.905 -1.2266 -0.1089  0.9316
 1490SOL     OW 4850   0.567   6.169   4.140 -0.0377 -0.4834  0.4116
 1490SOL    HW1 4851   0.630   6.242   4.141  0.0913 -0.5863 -0.0834
 1490SOL    HW2 4852   0.484   6.210   4.114  0.0874 -0.5499 -0.1044
 1491SOL     OW 4853   6.149   0.038   4.914  0.1231  0.7148 -0.6798
 1491SOL    HW1 4854   6.130  -0.050   4.882 -0.3703  0.3653  0.5737
 1491SOL    HW2 4855   6.096   0.048   4.993  0.3725  2.0400 -0.6577
 1492SOL     OW 4856   1.526   4.211   4.720  0.2937  0.2565  0.1246
 1492SOL    HW1 4857   1.608   4.162   4.729 -1.2369 -2.4068  0.2019
 1492SOL    HW2 4858   1.461   4.158   4.766 -1.2431  2.9926  1.2056
 1493SOL     OW 4859   4.442   3.161   0.857  0.0048  0.0660 -0.4673
 1493SOL    HW1 4860   4.424   3.069   0.879  1.2063 -0.5032 -1.7439
 1493SOL    HW2 4861   4.357   3.204   0.861 -0.7222 -1.3203 -0.7561
 1494SOL     OW 4862   4.244   2.950   0.179 -0.1498 -0.3112 -0.3327
 1494SOL    HW1 4863   4.288   3.006   0.115  2.2536 -1.4040  0.3427
 1494SOL    HW2 4864   4.275   2.981   0.264 -2.5747  0.4737  0.3244
 1495SOL     OW 4865   0.856   1.907   0.699 -0.0062 -0.1291 -0.4250
 1495SOL    HW1 4866   0.909   1.951   0.632 -0.1329  0.6622 -0.0041
 1495SOL    HW2 4867   0.826   1.827   0.656 -1.2475  1.0439 -1.8005
 1496SOL     OW 4868   1.507   4.344   0.292 -0.4283 -0.4726  0.0673
 1496SOL    HW1 4869   1.559   4.264   0.289  0.0454 -0.2041  0.9239
 1496SOL    HW2 4870   1.444   4.330   0.363 -3.3825 -1.8991 -2.7411
 1497SOL     OW 4871   5.145   3.537   0.260  0.2557 -0.2180  0.7403
 1497SOL    HW1 4872   5.132   3.524   0.166  0.3523 -0.2782  0.7344
 1497SOL    HW2 4873   5.091   3.471   0.302  0.2155 -0.1943  0.7261
 1498SOL     OW 4874   1.812   0.746   1.099  0.2940  0.8426  0.6219
 1498SOL    HW1 4875   1.894   0.752   1.149  0.5398 -0.4269  0.4018
 1498SOL    HW2 4876   1.812   0.656   1.064 -0.7982  1.0981 -0.0612
 1499SOL     OW 4877   2.115   1.569   2.745 -0.4925  0.6216  1.4440
 1499SOL    HW1 4878   2.060   1.570   2.823  1.0762 -0.8773  2.6343
 1499SOL    HW2 4879   2.188   1.511   2.769 -0.0838 -0.0188 -1.2114
 1500SOL     OW 4880   0.846   3.546   1.765  0.3187 -0.2497  0.0628
 1500SOL    HW1 4881   0.802   3.604   1.703  1.8999 -1.1397 -1.9436
 1500SOL    HW2 4882   0.891   3.605   1.826  0.0196  0.6345 -0.5710
 1501SOL     OW 4883   1.560   2.193   4.390  0.2208 -0.1970 -0.1374
 1501SOL    HW1 4884   1.653   2.202   4.370 -0.0241  0.8023 -0.8416
 1501SOL    HW2 4885   1.548   2.245   4.470  0.2025 -0.0399 -0.2416
 1502SOL     OW 4886   4.133   1.533   2.071  0.1453 -1.3114 -0.2545
 1502SOL    HW1 4887   4.193   1.538   2.145  0.1070  0.4409 -0.3182
 1502SOL    HW2 4888   4.163   1.602   2.011 -3.4752  1.4681  0.9248
 1503SOL     OW 4889   2.697   5.602   0.781 -0.4873  0.3169 -0.2343
 1503SOL    HW1 4890   2.627   5.622   0.843 -0.9226  0.5454 -0.7922
 1503SOL    HW2 4891   2.761   5.553   0.832 -0.8179  0.5458  0.4077
 1504SOL     OW 4892   3.576   0.301   0.131 -0.0442  0.6063  0.1102
 1504SOL    HW1 4893   3.669   0.320   0.138  0.0994  1.0778 -2.5495
 1504SOL    HW2 4894   3.569   0.207   0.148  0.9907  0.4473 -0.3044
 1505SOL     OW 4895   5.577   3.385   4.227 -0.3023 -0.3824 -0.1876
 1505SOL    HW1 4896   5.637   3.354   4.294 -1.2879  0.6556  1.2040
 1505SOL    HW2 4897   5.512   3.315   4.219 -0.4272 -0.3213  0.2613
 1506SOL     OW 4898   6.059   5.399   3.851 -0.0400 -0.9388 -0.1017
 1506SOL    HW1 4899   6.127   5.351   3.804 -1.1616 -1.8130 -0.8558
 1506SOL    HW2 4900   6.037   5.472   3.793  0.4039 -0.5068  0.2560
 1507SOL     OW 4901   6.024   3.061   3.350 -0.2157 -0.5151 -0.2455
 1507SOL    HW1 4902   6.074   3.026   3.424  0.1046 -0.8705 -0.6308
 1507SOL    HW2 4903   6.087   3.117   3.304 -0.4461 -0.2096 -0.1921
 1508SOL     OW 4904   4.608   1.581   2.036 -0.1613  0.5657 -0.0541
 1508SOL    HW1 4905   4.579   1.638   1.965 -0.9350  0.3779  0.1025
 1508SOL    HW2 4906   4.640   1.641   2.103  0.5024  0.7459 -0.5290
 1509SOL     OW 4907   2.344   2.560   5.056 -0.2528  0.2773 -0.5100
 1509SOL    HW1 4908   2.268   2.521   5.099 -0.9285  0.2261 -1.7061
 1509SOL    HW2 4909   2.411   2.492   5.060 -0.8621 -0.3675 -1.0363
 1510SOL     OW 4910   2.000   4.217   3.001  0.1987 -0.1114 -0.4145
 1510SOL    HW1 4911   1.928   4.267   3.039  1.0043  0.6698  0.1103
 1510SOL    HW2 4912   2.011   4.254   2.913  0.4864  0.3241 -0.1986
 1511SOL     OW 4913   2.153   1.934   3.971 -0.8296  0.3080  0.6949
 1511SOL    HW1 4914   2.119   1.856   4.017 -0.1926  0.1592  0.9129
 1511SOL    HW2 4915   2.171   1.997   4.041 -0.0747  0.1644  0.6341
 1512SOL     OW 4916   4.766   0.040   2.030 -0.2423 -0.2596  0.4496
 1512SOL    HW1 4917   4.760   0.071   2.120  2.1516 -2.3973  1.4159
 1512SOL    HW2 4918   4.843   0.085   1.994 -1.0197  0.3690 -0.4616
 1513SOL     OW 4919   4.012   4.561   4.447 -0.0916 -0.7571 -0.4193
 1513SOL    HW1 4920   3.990   4.647   4.484  1.3009 -0.2170 -0.8452
 1513SOL    HW2 4921   4.107   4.562   4.438 -0.1263 -2.1053 -1.0349
 1514SOL     OW 4922   6.147   3.727   0.730 -0.4147  0.1717 -0.8512
 1514SOL    HW1 4923   6.076   3.667   0.754  1.6589 -1.6136  1.1355
 1514SOL    HW2 4924   6.218   3.670   0.700  1.3267  1.6371  0.3244
 1515SOL     OW 4925   4.583   3.578   4.693  0.2868  0.3589 -0.9005
 1515SOL    HW1 4926   4.630   3.641   4.747  0.7447  0.0722 -0.9641
 1515SOL    HW2 4927   4.491   3.589   4.718  0.5762 -0.3760  0.5706
 1516SOL     OW 4928   3.324   4.492   2.565  0.1036 -0.1570 -0.7019
 1516SOL    HW1 4929   3.308   4.514   2.473 -0.3292 -1.1505 -0.8684
 1516SOL    HW2 4930   3.419   4.485   2.572  0.1276 -0.2432 -1.1130
 1517SOL     OW 4931   3.499   5.217   6.284  0.2062  0.4800  0.4384
 1517SOL    HW1 4932   3.510   5.160   6.360  0.6712  0.9349  0.7089
 1517SOL    HW2 4933   3.587   5.249   6.264 -0.1449  1.6229  0.6892
 1518SOL     OW 4934   3.928   6.187   5.104  0.1875  0.0897 -0.2292
 1518SOL    HW1 4935   3.870   6.230   5.042 -0.3881  0.5087  0.5822
 1518SOL    HW2 4936   4.007   6.168   5.054  0.2199  1.5550 -0.7714
 1519SOL     OW 4937   2.951   5.951   3.710  0.3083 -0.0755  0.1462
 1519SOL    HW1 4938   2.876   5.991   3.666 -1.3253 -0.3969  2.4979
 1519SOL    HW2 4939   2.983   6.021   3.768  0.7944 -0.4753  0.3581
 1520SOL     OW 4940   5.076   4.820   0.140  0.4521  0.3130 -0.0896
 1520SOL    HW1 4941   5.110   4.899   0.182  0.6877 -0.6708  1.6465
 1520SOL    HW2 4942   5.154   4.770   0.116  0.3320  1.0854 -2.2160
 1521SOL     OW 4943   2.598   1.074   4.997 -0.6259  0.1987 -0.3724
 1521SOL    HW1 4944   2.519   1.125   5.015 -1.9092 -0.9470 -2.5303
 1521SOL    HW2 4945   2.581   0.990   5.038 -1.3263 -0.6344 -2.2711
 1522SOL     OW 4946   3.380   4.030   5.960  0.1418  0.0830 -0.1545
 1522SOL    HW1 4947   3.461   4.000   5.918  0.6102 -0.6350  1.1931
 1522SOL    HW2 4948   3.338   3.949   5.990  1.0398  0.6649  2.8848
 1523SOL     OW 4949   3.194   3.592   2.715  0.2281 -0.7246 -0.0902
 1523SOL    HW1 4950   3.242   3.614   2.795 -0.7831  0.2151  0.2769
 1523SOL    HW2 4951   3.210   3.667   2.658  1.5914 -1.7450 -1.0906
 1524SOL     OW 4952   3.446   0.668   2.097  0.1731 -0.5286 -0.2172
 1524SOL    HW1 4953   3.427   0.745   2.150 -0.4508 -1.3813  0.8185
 1524SOL    HW2 4954   3.533   0.640   2.127  1.5745  1.2926 -2.4501
 1525SOL     OW 4955   0.768   3.348   1.926 -0.1947  0.2879  0.4355
 1525SOL    HW1 4956   0.785   3.427   1.875  0.3511 -0.3715 -0.4074
 1525SOL    HW2 4957   0.700   3.301   1.877  1.8499 -1.4017 -0.8346
 1526SOL     OW 4958   3.187   2.234   3.938 -0.9506  0.4974  0.1708
 1526SOL    HW1 4959   3.192   2.329   3.949  1.4481  0.5156 -0.7669
 1526SOL    HW2 4960   3.226   2.218   3.852 -2.4700 -1.2394 -0.2240
 1527SOL     OW 4961   6.087   0.268   2.988  0.0374 -0.5394  0.3170
 1527SOL    HW1 4962   6.083   0.292   3.081  0.4015 -1.5431  0.6028
 1527SOL    HW2 4963   6.015   0.206   2.977  1.5478 -2.3744  0.5343
 1528SOL     OW 4964   0.314   2.382   3.430  0.0757  0.2015 -0.2842
 1528SOL    HW1 4965   0.267   2.334   3.498  2.2910 -1.4774  0.1448
 1528SOL    HW2 4966   0.281   2.345   3.348  1.2123 -1.5994  0.0311
 1529SOL     OW 4967   1.187   5.996   1.502 -0.1552  0.2585  0.0962
 1529SOL    HW1 4968   1.246   6.065   1.534 -0.0507  0.0114  0.4472
 1529SOL    HW2 4969   1.124   6.041   1.447 -0.8892  0.8317  1.3976
 1530SOL     OW 4970   5.549   1.614   3.718 -0.1195 -0.2939 -0.0768
 1530SOL    HW1 4971   5.472   1.635   3.665 -1.0688 -1.7401  0.6884
 1530SOL    HW2 4972   5.613   1.581   3.655 -0.5137 -0.1219 -0.5772
 1531SOL     OW 4973   0.148   4.916   2.343 -0.4144 -0.2431 -0.2872
 1531SOL    HW1 4974   0.081   4.910   2.275  0.2567 -0.3193 -0.9359
 1531SOL    HW2 4975   0.207   4.843   2.326 -0.1676 -0.1893  0.3018
 1532SOL     OW 4976   4.435   1.154   2.787  0.2261  0.1601  0.2950
 1532SOL    HW1 4977   4.420   1.243   2.818  2.0204  0.7532 -0.5011
 1532SOL    HW2 4978   4.476   1.165   2.701 -0.5301 -1.4403 -0.2939
 1533SOL     OW 4979   2.662   2.683   5.798 -0.0138  0.1348 -0.1730
 1533SOL    HW1 4980   2.690   2.671   5.707 -0.0486 -1.7355  0.0555
 1533SOL    HW2 4981   2.743   2.687   5.848  0.0382  2.1795 -0.3894
 1534SOL     OW 4982   5.555   2.395   0.424  0.0506  0.2835 -0.1566
 1534SOL    HW1 4983   5.544   2.378   0.518  0.8988 -2.0437 -0.4455
 1534SOL    HW2 4984   5.492   2.337   0.382 -0.0920  1.0771 -1.0580
 1535SOL     OW 4985   2.558   4.039   3.599  0.5746  0.2153 -0.3280
 1535SOL    HW1 4986   2.569   4.020   3.692  0.1683 -0.1303 -0.3456
 1535SOL    HW2 4987   2.635   4.002   3.557  0.1860 -0.6826 -0.2629
 1536SOL     OW 4988   3.469   1.851   0.326  0.0882 -0.1847  0.4519
 1536SOL    HW1 4989   3.475   1.786   0.256  0.5840 -0.1249  0.4362
 1536SOL    HW2 4990   3.446   1.932   0.282 -0.2338 -0.2812  0.4368
 1537SOL     OW 4991   3.639   6.147   0.340  0.3774  0.1452 -0.4055
 1537SOL    HW1 4992   3.734   6.137   0.328  0.3014 -0.0155 -0.8880
 1537SOL    HW2 4993   3.629   6.176   0.431  0.8958  0.2464 -0.3789
 1538SOL     OW 4994   0.271   0.627   5.155  0.8716  0.0518  0.6991
 1538SOL    HW1 4995   0.320   0.547   5.171  0.3776  0.1049  2.5731
 1538SOL    HW2 4996   0.180   0.600   5.154  0.8792 -0.0261 -2.6724
 1539SOL     OW 4997   4.572   0.411   0.840 -0.0099 -0.0856  0.0371
 1539SOL    HW1 4998   4.640   0.417   0.773  1.2593 -1.0554  1.2170
 1539SOL    HW2 4999   4.503   0.469   0.809  0.8658  0.0344 -1.7527
 1540SOL     OW 5000   4.829   2.507   0.011  0.1221 -0.9106 -0.0599
 1540SOL    HW1 5001   4.821   2.599  -0.014  1.7474  0.0873  2.9170
 1540SOL    HW2 5002   4.755   2.464  -0.032 -0.3461  1.6480 -1.9470
 1541SOL     OW 5003   1.920   5.965   1.184 -0.1502 -0.0541  0.0991
 1541SOL    HW1 5004   1.972   5.938   1.259  0.6556 -3.5078 -1.5985
 1541SOL    HW2 5005   1.838   5.917   1.192  0.5620 -1.7425 -1.9840
 1542SOL     OW 5006   5.429   2.464   2.658  0.3795  0.2013  0.3787
 1542SOL    HW1 5007   5.493   2.480   2.589 -1.6569  1.7940 -1.1966
 1542SOL    HW2 5008   5.386   2.548   2.672 -1.6263 -0.9130  1.1533
 1543SOL     OW 5009   5.743   2.571   2.945 -0.3374  0.0131 -0.7829
 1543SOL    HW1 5010   5.660   2.619   2.955 -2.2737 -2.9853 -1.9151
 1543SOL    HW2 5011   5.757   2.566   2.850  0.7875 -0.1264 -0.6185
 1544SOL     OW 5012   4.367   5.958   3.168  0.3892  0.0935 -0.1714
 1544SOL    HW1 5013   4.283   5.962   3.214  1.5236 -0.5032  2.0492
 1544SOL    HW2 5014   4.384   6.048   3.141 -1.9991 -0.1368 -2.6634
 1545SOL     OW 5015   2.024   1.415   3.840  0.0141 -0.0684 -0.0287
 1545SOL    HW1 5016   2.003   1.359   3.765 -1.5963  1.4405 -0.7445
 1545SOL    HW2 5017   2.118   1.403   3.853  0.4222  0.0437 -2.6297
 1546SOL     OW 5018   3.749   4.198   6.352  0.3325 -0.7490  0.0466
 1546SOL    HW1 5019   3.842   4.221   6.364  0.4116 -0.2574 -1.3864
 1546SOL    HW2 5020   3.716   4.265   6.291 -0.5013 -1.9800 -0.8715
 1547SOL     OW 5021   2.076   3.307   4.264  0.0111  0.6593  0.7034
 1547SOL    HW1 5022   2.036   3.223   4.242  0.9939  0.3596  0.0299
 1547SOL    HW2 5023   2.069   3.312   4.360 -0.5256  0.0578  0.6983
 1548SOL     OW 5024   4.611   0.886   0.206  0.0516  0.1753  0.2482
 1548SOL    HW1 5025   4.681   0.951   0.215 -1.1862  1.6263 -0.2456
 1548SOL    HW2 5026   4.582   0.895   0.115 -0.3474 -0.8483  0.2692
 1549SOL     OW 5027   6.161   2.200   4.682 -0.0604  0.0563  0.2868
 1549SOL    HW1 5028   6.228   2.174   4.618 -0.7858 -2.5734  0.5648
 1549SOL    HW2 5029   6.199   2.276   4.726  2.8869 -1.5756  0.6574
 1550SOL     OW 5030   3.958   3.586   2.986 -0.4192  0.0349 -0.1561
 1550SOL    HW1 5031   3.997   3.639   3.056 -1.6550  0.9119 -0.0982
 1550SOL    HW2 5032   3.964   3.641   2.908  0.7661 -0.8571 -0.7000
 1551SOL     OW 5033   3.721   2.601   0.809  0.1347  0.0361 -0.1809
 1551SOL    HW1 5034   3.732   2.507   0.822 -0.2667  0.0264  0.1011
 1551SOL    HW2 5035   3.687   2.610   0.720  1.6097  0.0114 -0.7542
 1552SOL     OW 5036   1.483   1.379   1.332 -0.5665  0.6551 -0.1857
 1552SOL    HW1 5037   1.481   1.467   1.372  2.7464  0.0363  1.5159
 1552SOL    HW2 5038   1.568   1.375   1.289 -1.1432 -1.3550 -1.1611
 1553SOL     OW 5039   4.484   2.571   0.621  0.1405  0.0156  0.4765
 1553SOL    HW1 5040   4.547   2.499   0.627  2.2681  1.8263  0.6867
 1553SOL    HW2 5041   4.438   2.557   0.538  0.1403 -1.8732  0.7922
 1554SOL     OW 5042   5.853   4.974   2.881  0.6803  0.0062 -0.0011
 1554SOL    HW1 5043   5.868   4.892   2.835  0.1929 -0.5888  0.8845
 1554SOL    HW2 5044   5.938   4.997   2.918  0.7926 -0.1606 -0.1574
 1555SOL     OW 5045   1.696   5.681   0.937  0.1099  0.0824  0.1057
 1555SOL    HW1 5046   1.765   5.650   0.878  0.0256 -1.2422  0.6754
 1555SOL    HW2 5047   1.739   5.684   1.023 -0.3946 -0.2687  0.3726
 1556SOL     OW 5048   0.568   4.931   2.726 -0.2574 -0.2443 -0.4222
 1556SOL    HW1 5049   0.627   4.934   2.650 -0.8591  1.9664 -0.8492
 1556SOL    HW2 5050   0.603   4.999   2.784 -2.4727  1.2507 -0.7835
 1557SOL     OW 5051   0.278   5.692   5.025  0.2106  0.3294 -0.5841
 1557SOL    HW1 5052   0.314   5.780   5.012 -0.3054  0.4288 -1.4408
 1557SOL    HW2 5053   0.348   5.633   5.001  0.6228  0.4982  0.1717
 1558SOL     OW 5054   1.471   4.698   3.813  0.3738  0.4171 -0.5265
 1558SOL    HW1 5055   1.453   4.756   3.739  0.3992  0.8541 -0.1920
 1558SOL    HW2 5056   1.395   4.708   3.870 -0.8155 -1.7831 -1.6587
 1559SOL     OW 5057   5.145   2.433   5.425 -0.3761 -0.1189 -0.4348
 1559SOL    HW1 5058   5.223   2.378   5.420 -0.2588  0.1756 -2.0340
 1559SOL    HW2 5059   5.112   2.419   5.514  0.3430 -1.8099 -0.4098
 1560SOL     OW 5060   3.113   3.133   2.683  0.6190 -0.0864  0.7373
 1560SOL    HW1 5061   3.048   3.109   2.616  0.2090 -0.6803  1.3439
 1560SOL    HW2 5062   3.090   3.222   2.708  0.7322  0.1161  0.1405
 1561SOL     OW 5063   1.114   2.240   0.333  0.2592  0.2329 -0.0303
 1561SOL    HW1 5064   1.049   2.171   0.320  1.4388 -1.0134  0.6220
 1561SOL    HW2 5065   1.106   2.295   0.255 -1.0738 -0.3081 -0.2997
 1562SOL     OW 5066   0.845   4.594   4.528  0.4452  0.2583  0.1749
 1562SOL    HW1 5067   0.812   4.670   4.575  1.6529  0.5892  0.5001
 1562SOL    HW2 5068   0.921   4.626   4.480 -0.7188 -0.0948 -1.9594
 1563SOL     OW 5069   4.533   5.840   2.785  0.2141 -1.0287  0.1452
 1563SOL    HW1 5070   4.614   5.809   2.745 -0.1270 -1.2851 -0.3548
 1563SOL    HW2 5071   4.521   5.928   2.749  0.6040 -0.7451  0.7098
 1564SOL     OW 5072   6.209   5.951   0.528  0.4556 -0.5685 -0.3002
 1564SOL    HW1 5073   6.296   5.926   0.495 -0.4127 -3.9366 -0.1675
 1564SOL    HW2 5074   6.185   5.882   0.589 -3.4212 -1.1244 -2.2754
 1565SOL     OW 5075   0.045   1.098   5.286 -0.0394 -0.2575 -0.0369
 1565SOL    HW1 5076   0.062   1.171   5.346 -1.7038 -0.2876  0.5002
 1565SOL    HW2 5077  -0.042   1.066   5.312 -0.3352 -0.9156 -1.8136
 1566SOL     OW 5078   0.173   2.284   1.172  0.1578  0.2145 -0.5294
 1566SOL    HW1 5079   0.136   2.213   1.225  0.9120  0.2409  0.0441
 1566SOL    HW2 5080   0.183   2.357   1.234 -1.6290  1.1843 -1.3558
 1567SOL     OW 5081   4.776   6.360   4.644 -0.5992 -0.6008  0.1726
 1567SOL    HW1 5082   4.778   6.266   4.625  2.6295 -0.0804 -2.4458
 1567SOL    HW2 5083   4.845   6.372   4.710 -0.2837  0.0893 -0.2862
 1568SOL     OW 5084   5.756   3.060   4.176  0.1160 -0.2345 -0.9650
 1568SOL    HW1 5085   5.819   3.011   4.123  2.1093  1.0445  0.1503
 1568SOL    HW2 5086   5.696   3.099   4.113  0.2731 -1.6800 -2.0319
 1569SOL     OW 5087   3.042   5.814   5.200  0.4136  0.0242 -0.0616
 1569SOL    HW1 5088   3.025   5.872   5.127 -2.1845 -1.8626 -1.0412
 1569SOL    HW2 5089   2.976   5.838   5.266  0.4292 -0.6649  0.2106
 1570SOL     OW 5090   4.779   5.677   2.055  0.6672  0.0887  0.1252
 1570SOL    HW1 5091   4.794   5.745   1.989 -1.0610  0.9409  0.5774
 1570SOL    HW2 5092   4.718   5.717   2.117  0.0246 -1.7097  0.6732
 1571SOL     OW 5093   3.382   1.182   4.094  0.0957 -0.5529  0.0432
 1571SOL    HW1 5094   3.343   1.249   4.150  1.3165  0.7701 -0.6558
 1571SOL    HW2 5095   3.457   1.149   4.144  0.2329 -0.5242 -0.1450
 1572SOL     OW 5096   1.878   6.167   3.527  0.0862  0.4953 -0.1450
 1572SOL    HW1 5097   1.840   6.111   3.459 -0.3340  1.1230 -0.4354
 1572SOL    HW2 5098   1.973   6.157   3.516  0.0192 -0.7861  0.3415
 1573SOL     OW 5099   0.379   2.865   3.471  0.2979  0.2853  0.3229
 1573SOL    HW1 5100   0.340   2.839   3.388  0.0169  1.3333  0.1215
 1573SOL    HW2 5101   0.429   2.944   3.451 -0.3960  0.9915  1.2963
 1574SOL     OW 5102   2.329   1.083   4.824  0.4686  0.1377 -0.4187
 1574SOL    HW1 5103   2.378   1.165   4.827  2.2503 -0.9013 -0.9939
 1574SOL    HW2 5104   2.287   1.084   4.738  0.6310  0.3436 -0.4969
 1575SOL     OW 5105   3.817   5.493   2.958 -0.2882  0.1627  0.5025
 1575SOL    HW1 5106   3.839   5.576   2.915 -1.5084 -0.5155 -1.4966
 1575SOL    HW2 5107   3.781   5.518   3.042  0.3910  1.6223  0.3728
 1576SOL     OW 5108   5.416   2.902   0.965 -0.3254  0.0535  1.1091
 1576SOL    HW1 5109   5.403   2.830   0.903  1.4206 -0.0462  0.8172
 1576SOL    HW2 5110   5.493   2.876   1.015  0.4920  1.8402  0.8186
 1577SOL     OW 5111   5.081   2.706   3.113 -0.1150  0.3924  0.3874
 1577SOL    HW1 5112   5.049   2.791   3.142 -0.4871  1.0381 -1.8273
 1577SOL    HW2 5113   5.172   2.704   3.145 -0.1907  1.4852  0.7247
 1578SOL     OW 5114   4.369   1.156   6.003  0.0579  0.3568 -0.5981
 1578SOL    HW1 5115   4.378   1.251   6.005  1.2996  0.2444 -0.5857
 1578SOL    HW2 5116   4.283   1.141   5.963  0.0762  1.4657 -1.0789
 1579SOL     OW 5117   5.088   2.091   1.962  0.3784  0.1350 -0.3159
 1579SOL    HW1 5118   5.159   2.063   2.019 -0.3367  0.5597  0.8002
 1579SOL    HW2 5119   5.031   2.015   1.955  0.5263  0.0467 -0.5550
 1580SOL     OW 5120   2.716   3.100   3.280  0.2666  0.0924  0.0109
 1580SOL    HW1 5121   2.708   3.028   3.343 -0.0570 -1.6280 -1.9739
 1580SOL    HW2 5122   2.763   3.168   3.328  0.1132 -1.2227  2.0894
 1581SOL     OW 5123   0.754   4.037   2.064  0.3889 -0.1567 -0.1861
 1581SOL    HW1 5124   0.674   4.017   2.016  0.5872 -1.5965  0.0530
 1581SOL    HW2 5125   0.727   4.037   2.156  0.6406 -0.5393 -0.1116
 1582SOL     OW 5126   2.351   4.321   1.320 -0.2358 -0.7364  0.6114
 1582SOL    HW1 5127   2.340   4.307   1.414  1.4059  4.5442  1.7445
 1582SOL    HW2 5128   2.268   4.360   1.292  0.7067  1.4787  0.7917
 1583SOL     OW 5129   1.492   5.863   0.915 -0.2423 -0.0291  0.1366
 1583SOL    HW1 5130   1.544   5.791   0.951 -1.3892  0.4723  2.9031
 1583SOL    HW2 5131   1.538   5.942   0.945 -2.7406  0.4347  3.0149
 1584SOL     OW 5132   2.268   2.909   6.378 -0.1714 -0.7197 -0.0052
 1584SOL    HW1 5133   2.332   2.977   6.399  0.7931 -1.7314  0.4236
 1584SOL    HW2 5134   2.238   2.931   6.290 -0.1357  0.4481  0.2612
 1585SOL     OW 5135   4.755   5.585   2.834 -0.3937  0.1418  0.2755
 1585SOL    HW1 5136   4.828   5.525   2.845 -0.0121  0.3549 -0.9594
 1585SOL    HW2 5137   4.771   5.626   2.749 -1.5967  0.6754  0.3006
 1586SOL     OW 5138   1.039   5.824   2.028  0.2527 -0.5863 -0.0649
 1586SOL    HW1 5139   1.127   5.854   2.054 -0.4515  1.8635 -0.3351
 1586SOL    HW2 5140   1.036   5.839   1.933 -0.2702 -1.1797 -0.1428
 1587SOL     OW 5141   3.129   0.098   4.320 -0.2106 -0.3846  0.8142
 1587SOL    HW1 5142   3.063   0.044   4.275  1.5119 -0.8787 -1.1603
 1587SOL    HW2 5143   3.111   0.187   4.291 -0.9325 -0.3092  1.4596
 1588SOL     OW 5144   2.043   5.767   0.996 -0.0406 -0.1243 -0.3275
 1588SOL    HW1 5145   1.990   5.727   0.927 -2.0266  0.5680  0.7731
 1588SOL    HW2 5146   1.990   5.839   1.029  1.0531 -0.1806  1.6513
 1589SOL     OW 5147   4.771   2.159   1.561  0.2902 -0.1497  0.2157
 1589SOL    HW1 5148   4.763   2.212   1.482 -0.2182 -0.6491 -0.0711
 1589SOL    HW2 5149   4.857   2.182   1.597  1.1744 -1.0341 -1.2821
 1590SOL     OW 5150   5.637   0.431   1.388 -0.1244  0.0601 -0.1589
 1590SOL    HW1 5151   5.666   0.521   1.400 -2.2270  0.8164 -0.5126
 1590SOL    HW2 5152   5.626   0.396   1.477 -1.5319  0.9062  0.0056
 1591SOL     OW 5153   0.390   4.770   3.245 -0.0397 -0.1144  0.3799
 1591SOL    HW1 5154   0.424   4.684   3.270 -0.9707 -0.4240  0.5970
 1591SOL    HW2 5155   0.448   4.832   3.287 -0.4253 -0.6365  1.7006
 1592SOL     OW 5156   4.657   6.025   3.236 -0.3915  0.6074 -0.5045
 1592SOL    HW1 5157   4.705   5.959   3.186 -1.9448 -0.1879 -0.9871
 1592SOL    HW2 5158   4.568   6.021   3.202 -1.0333  1.3849  1.0301
 1593SOL     OW 5159   3.388   6.165   3.775 -1.0535 -0.3629  0.6519
 1593SOL    HW1 5160   3.422   6.075   3.783 -0.1604 -0.0451  0.4566
 1593SOL    HW2 5161   3.346   6.181   3.860 -1.4047 -1.0384  0.6157
 1594SOL     OW 5162   3.472   0.789   3.721  0.2284 -0.0021 -0.2111
 1594SOL    HW1 5163   3.567   0.777   3.723  0.2456 -0.1336 -1.4834
 1594SOL    HW2 5164   3.437   0.700   3.726  0.1422  0.1017  1.2612
 1595SOL     OW 5165   0.245   5.864   4.732 -0.0066 -0.2887  0.0469
 1595SOL    HW1 5166   0.265   5.794   4.669 -0.7002  0.6842 -1.2701
 1595SOL    HW2 5167   0.154   5.886   4.714  0.3789  1.3437  0.0919
 1596SOL     OW 5168   0.263   5.080   5.273 -0.1917 -0.0228  0.5574
 1596SOL    HW1 5169   0.269   4.990   5.305 -0.7569 -0.2888 -0.0715
 1596SOL    HW2 5170   0.242   5.132   5.351  0.0562 -0.4394  0.9057
 1597SOL     OW 5171   4.374   0.543   4.303 -1.1413  0.1812  0.0830
 1597SOL    HW1 5172   4.316   0.475   4.268 -0.6801  0.2937 -0.8998
 1597SOL    HW2 5173   4.403   0.507   4.387 -0.4980 -1.0789 -0.6560
 1598SOL     OW 5174   4.564   2.064   0.596  0.4754 -0.2616 -0.0366
 1598SOL    HW1 5175   4.515   1.983   0.583 -0.0839 -0.0932  0.9937
 1598SOL    HW2 5176   4.655   2.038   0.586  0.2953 -1.0038  0.1719
 1599SOL     OW 5177   5.802   5.469   3.098  0.1912  0.2578  0.0460
 1599SOL    HW1 5178   5.760   5.391   3.061  0.1785  0.7821 -1.0730
 1599SOL    HW2 5179   5.894   5.444   3.109  0.1199 -0.0224  0.0104
 1600SOL     OW 5180   4.639   5.510   1.021  0.1663  0.1964  0.7816
 1600SOL    HW1 5181   4.622   5.603   1.038  0.3777  0.2653  0.6089
 1600SOL    HW2 5182   4.611   5.466   1.101 -1.9890  0.1943  0.0601
 1601SOL     OW 5183   5.799   4.236   2.730  0.4445  0.5321 -0.3742
 1601SOL    HW1 5184   5.876   4.285   2.759  1.1275  0.7236 -2.3918
 1601SOL    HW2 5185   5.772   4.280   2.650 -0.0003 -1.3087 -1.2575
 1602SOL     OW 5186   4.192   5.432   4.359 -0.3139  0.6192 -0.2142
 1602SOL    HW1 5187   4.135   5.388   4.422 -1.4623 -0.9285 -2.2921
 1602SOL    HW2 5188   4.278   5.393   4.373 -0.4192  0.7166  0.7793
 1603SOL     OW 5189   3.712   2.405   5.887  0.4023 -0.1138 -0.1321
 1603SOL    HW1 5190   3.726   2.342   5.816  0.4101 -1.5342  1.1184
 1603SOL    HW2 5191   3.782   2.469   5.876  0.6917 -0.5893 -1.1171
 1604SOL     OW 5192   3.272   5.329   2.034  0.0589 -0.2845 -0.2590
 1604SOL    HW1 5193   3.181   5.300   2.045 -0.7547  2.4194  0.2952
 1604SOL    HW2 5194   3.308   5.329   2.122 -0.1148  0.8868 -0.1799
 1605SOL     OW 5195   6.086   6.334   1.035  0.4004  0.2273  0.0517
 1605SOL    HW1 5196   6.120   6.294   1.115 -0.9759  0.8131  0.9416
 1605SOL    HW2 5197   6.140   6.296   0.965  4.1061  2.4655  1.5308
 1606SOL     OW 5198   2.174   1.477   4.332 -0.3945 -0.4968  0.0055
 1606SOL    HW1 5199   2.223   1.501   4.410  0.3975 -0.1771 -0.5908
 1606SOL    HW2 5200   2.102   1.540   4.328  0.2950  0.2762 -0.2255
 1607SOL     OW 5201   1.442   3.089   1.305 -0.5154 -0.4653  0.1082
 1607SOL    HW1 5202   1.497   3.035   1.363 -0.1746 -1.0448 -0.7410
 1607SOL    HW2 5203   1.416   3.029   1.235 -1.6504  0.0040  0.1272
 1608SOL     OW 5204   4.772   1.952   5.468  0.2177  0.3960 -0.1068
 1608SOL    HW1 5205   4.720   1.888   5.518  1.8338  0.0096  1.1054
 1608SOL    HW2 5206   4.816   1.901   5.401  0.9659  0.3507  0.4210
 1609SOL     OW 5207   5.970   0.208   0.707 -0.0623 -0.0259  0.0624
 1609SOL    HW1 5208   5.982   0.248   0.793  1.9395  0.1555 -0.2978
 1609SOL    HW2 5209   5.875   0.196   0.701 -0.4141  1.6603  1.5198
 1610SOL     OW 5210   1.090   0.533   2.454  0.1548  1.0480 -0.0204
 1610SOL    HW1 5211   1.147   0.544   2.530  0.4522  0.5255 -0.1656
 1610SOL    HW2 5212   1.025   0.469   2.481  0.8949  0.0665 -0.5605
 1611SOL     OW 5213   1.732   2.408   5.583  0.0077 -0.2641  0.1429
 1611SOL    HW1 5214   1.683   2.407   5.665 -0.4652 -0.3153 -0.1334
 1611SOL    HW2 5215   1.818   2.374   5.606 -0.1169 -0.2606  0.6220
 1612SOL     OW 5216   2.645   5.931   2.548 -0.1722  0.4767 -1.3920
 1612SOL    HW1 5217   2.662   5.885   2.630  1.5339  0.7488 -1.5593
 1612SOL    HW2 5218   2.662   6.023   2.569 -1.2406  0.7381 -1.6617
 1613SOL     OW 5219   4.062   6.232   2.313 -0.4972  0.0230 -0.0702
 1613SOL    HW1 5220   4.062   6.137   2.324 -1.8882  0.1189  0.8633
 1613SOL    HW2 5221   4.035   6.246   2.222  1.3310 -0.5007 -0.7179
 1614SOL     OW 5222   6.204   0.938   4.713  0.1893  0.5260 -0.6334
 1614SOL    HW1 5223   6.188   0.858   4.663 -0.5620  0.5139 -0.3815
 1614SOL    HW2 5224   6.171   1.008   4.657 -1.4284  0.4385  0.1987
 1615SOL     OW 5225   3.295   2.024   5.931 -0.2770 -0.3827 -0.1360
 1615SOL    HW1 5226   3.357   2.076   5.982 -0.1844  0.2241 -0.8655
 1615SOL    HW2 5227   3.210   2.067   5.944 -0.3145 -0.4329 -0.2126
 1616SOL     OW 5228   4.741   6.168   3.807  0.4761  0.2791  0.0382
 1616SOL    HW1 5229   4.787   6.213   3.736  0.4868  0.8959  0.4414
 1616SOL    HW2 5230   4.688   6.235   3.849  0.7741  0.0040  0.8730
 1617SOL     OW 5231   2.068   1.411   5.147  0.2032  0.1985 -1.0610
 1617SOL    HW1 5232   2.121   1.484   5.116  1.0328 -0.3175 -0.8697
 1617SOL    HW2 5233   2.026   1.443   5.227  2.1973 -0.2146  0.1814
 1618SOL     OW 5234   4.107   3.581   4.608 -0.2688 -0.2406  0.6474
 1618SOL    HW1 5235   4.188   3.594   4.657  0.2998  0.8269 -0.5500
 1618SOL    HW2 5236   4.094   3.486   4.608  1.6458 -0.5308 -0.1876
 1619SOL     OW 5237   0.786   0.230   4.792  0.2490 -0.0525  0.0435
 1619SOL    HW1 5238   0.848   0.195   4.728 -1.0387 -1.7868 -0.3053
 1619SOL    HW2 5239   0.819   0.317   4.813  0.9062  0.4077 -2.6992
 1620SOL     OW 5240   5.686   2.158   6.120 -0.3362  0.3606  0.5721
 1620SOL    HW1 5241   5.706   2.128   6.031  1.1460 -1.1457  1.3773
 1620SOL    HW2 5242   5.728   2.244   6.126 -0.7908  0.6457 -0.3211
 1621SOL     OW 5243   1.103   5.621   3.000  0.3499 -0.7012 -0.7260
 1621SOL    HW1 5244   1.155   5.675   2.941  1.1262 -2.5058 -1.7263
 1621SOL    HW2 5245   1.095   5.537   2.955 -1.7248 -1.1081  0.3221
 1622SOL     OW 5246   0.729   1.568   6.057 -0.0079 -0.2950 -0.0168
 1622SOL    HW1 5247   0.709   1.476   6.074  1.6705 -0.6780 -0.0384
 1622SOL    HW2 5248   0.644   1.612   6.061 -0.8355 -1.8519 -0.0835
 1623SOL     OW 5249   1.982   3.473   4.039  0.3347  0.2687 -0.2698
 1623SOL    HW1 5250   2.033   3.417   3.980  1.9312  0.2363  1.0953
 1623SOL    HW2 5251   1.993   3.434   4.126 -0.5598  1.2914  0.3212
 1624SOL     OW 5252   1.901   2.419   2.556  0.6551 -0.4875  0.5620
 1624SOL    HW1 5253   1.864   2.505   2.534 -1.4581 -1.5495 -0.2155
 1624SOL    HW2 5254   1.856   2.394   2.637  1.0721 -0.9648  0.6461
 1625SOL     OW 5255   3.951   4.592   4.079  0.7092 -0.4277  0.1202
 1625SOL    HW1 5256   4.038   4.553   4.078  0.7446 -0.3421 -0.3641
 1625SOL    HW2 5257   3.964   4.682   4.047  0.4665 -0.3694  0.1806
 1626SOL     OW 5258   3.879   0.848   4.700 -0.3499  0.4467 -0.0960
 1626SOL    HW1 5259   3.835   0.917   4.649 -0.0542  0.1581 -0.7516
 1626SOL    HW2 5260   3.816   0.777   4.703 -0.7617  0.8453  0.8153
 1627SOL     OW 5261   1.628   4.830   5.303  0.6717  0.6610  0.1818
 1627SOL    HW1 5262   1.576   4.775   5.244  0.0676 -0.8580  2.0681
 1627SOL    HW2 5263   1.563   4.873   5.358  1.2822  1.0452  0.6048
 1628SOL     OW 5264   1.523   3.450   1.581 -0.3610  0.3038 -0.2718
 1628SOL    HW1 5265   1.464   3.375   1.580 -1.4710  1.1606  0.4317
 1628SOL    HW2 5266   1.493   3.506   1.509  1.0365 -0.3466 -1.3873
 1629SOL     OW 5267   4.019   4.232   0.037  0.4021  0.0677  0.0152
 1629SOL    HW1 5268   4.001   4.320   0.069 -0.8785  0.7012 -2.3350
 1629SOL    HW2 5269   4.082   4.246  -0.035  1.1103 -1.0495  0.4124
 1630SOL     OW 5270   1.423   6.222   5.497 -0.3417  0.2069 -0.7678
 1630SOL    HW1 5271   1.517   6.241   5.494 -0.7479  2.3640 -0.6069
 1630SOL    HW2 5272   1.411   6.177   5.581  0.5974 -0.3650 -0.9375
 1631SOL     OW 5273   0.568   0.580   3.401 -0.2824  0.0721  0.0641
 1631SOL    HW1 5274   0.610   0.648   3.454 -2.4295  2.3240 -1.0302
 1631SOL    HW2 5275   0.478   0.578   3.433 -0.5962 -1.2655 -0.9067
 1632SOL     OW 5276   0.644   2.984   4.119  0.3592  0.4713 -1.0172
 1632SOL    HW1 5277   0.594   3.049   4.168  0.5223  0.2660 -0.5738
 1632SOL    HW2 5278   0.603   2.981   4.032  0.7750  1.6594 -1.2613
 1633SOL     OW 5279   5.481   6.011   5.942  0.0806  0.5696 -0.3508
 1633SOL    HW1 5280   5.416   5.957   5.897 -0.5324  0.5708  0.5164
 1633SOL    HW2 5281   5.566   5.975   5.915 -0.2820  0.4801 -1.3856
 1634SOL     OW 5282   1.088   4.333   6.108  0.0379 -0.2405 -0.2887
 1634SOL    HW1 5283   1.029   4.286   6.167  1.6530 -1.1585  0.6542
 1634SOL    HW2 5284   1.050   4.321   6.021 -0.3507 -2.1366  0.1091
 1635SOL     OW 5285   3.734   1.783   0.824  0.4005  0.0530 -0.1738
 1635SOL    HW1 5286   3.739   1.691   0.797 -1.5762 -0.7547  2.0053
 1635SOL    HW2 5287   3.696   1.828   0.750  0.8838 -0.9715 -1.0634
 1636SOL     OW 5288   0.519   0.020   0.091 -0.5356 -0.6561  0.4658
 1636SOL    HW1 5289   0.471   0.101   0.078 -0.4451 -0.8297 -1.0283
 1636SOL    HW2 5290   0.577   0.014   0.015 -0.0146 -1.7455  0.9364
 1637SOL     OW 5291   4.195   3.114   3.503 -0.3767  0.8417 -0.3013
 1637SOL    HW1 5292   4.252   3.072   3.439 -0.5657  0.5151 -0.2573
 1637SOL    HW2 5293   4.110   3.071   3.493 -0.5332  1.1084 -0.1518
 1638SOL     OW 5294   4.403   5.565   2.051 -0.1629 -0.2990 -0.5726
 1638SOL    HW1 5295   4.472   5.506   2.079  0.0828  0.0013 -0.5388
 1638SOL    HW2 5296   4.449   5.639   2.010 -0.4754 -0.2482 -0.8343
 1639SOL     OW 5297   0.286   1.443   3.959 -0.1774 -0.7229  0.4317
 1639SOL    HW1 5298   0.304   1.454   4.052 -3.0355 -0.2540  0.9903
 1639SOL    HW2 5299   0.254   1.353   3.951  0.6808 -0.9738 -0.2045
 1640SOL     OW 5300   4.789   2.462   3.864 -0.1083  0.4144 -0.2623
 1640SOL    HW1 5301   4.817   2.380   3.904  2.9080  0.7772 -1.4664
 1640SOL    HW2 5302   4.777   2.441   3.771 -0.0109  1.1650 -0.4501
 1641SOL     OW 5303   0.494   2.421   1.343  0.4114  0.0283  0.1676
 1641SOL    HW1 5304   0.416   2.366   1.349  0.8927 -0.5040  1.9640
 1641SOL    HW2 5305   0.546   2.381   1.273 -2.0127  1.8549 -2.7576
 1642SOL     OW 5306   2.647   0.414   5.821  0.6555  0.6191 -0.1412
 1642SOL    HW1 5307   2.711   0.345   5.837 -0.5676 -0.1053  1.8141
 1642SOL    HW2 5308   2.574   0.370   5.778 -0.5667  0.4520  2.0389
 1643SOL     OW 5309   2.340   4.082   0.892 -0.2403 -0.4899 -0.2199
 1643SOL    HW1 5310   2.286   4.006   0.869 -0.9367 -0.3685  1.0175
 1643SOL    HW2 5311   2.337   4.086   0.987  1.0547  0.1831 -0.1968
 1644SOL     OW 5312   6.032   4.741   0.656  0.1339  0.3955 -0.4252
 1644SOL    HW1 5313   5.971   4.673   0.686  0.4866  0.7255  1.0647
 1644SOL    HW2 5314   6.041   4.799   0.731  0.4942  1.6322 -1.4277
 1645SOL     OW 5315   1.322   1.759   0.754 -0.4475  0.4084 -0.2077
 1645SOL    HW1 5316   1.352   1.712   0.832 -0.8687 -1.7235 -1.3192
 1645SOL    HW2 5317   1.375   1.840   0.754  1.2783 -0.6727  0.9533
 1646SOL     OW 5318   1.709   1.584   1.013  0.4416  0.4996 -0.4879
 1646SOL    HW1 5319   1.701   1.590   1.108 -1.4758 -1.1358 -0.5143
 1646SOL    HW2 5320   1.743   1.496   0.997 -0.0755  0.4549 -1.3685
 1647SOL     OW 5321   1.638   1.078   1.194  0.8672 -0.1541 -0.3306
 1647SOL    HW1 5322   1.583   0.999   1.195  0.7992 -0.1229 -1.4193
 1647SOL    HW2 5323   1.650   1.100   1.287 -1.8482  0.4407 -0.0758
 1648SOL     OW 5324   6.147   1.096   3.731 -0.0644  0.1176 -0.3401
 1648SOL    HW1 5325   6.214   1.128   3.793  0.1601 -1.4170  0.2326
 1648SOL    HW2 5326   6.064   1.121   3.771  0.1651  3.5295 -1.8774
 1649SOL     OW 5327   0.935   4.490   5.165  0.1183 -0.1544  0.0080
 1649SOL    HW1 5328   0.876   4.499   5.240  1.8521 -0.6356  1.4611
 1649SOL    HW2 5329   0.877   4.495   5.089 -1.9098 -1.4432  1.4007
 1650SOL     OW 5330   2.116   4.911   1.459  0.2141 -0.2547  0.1204
 1650SOL    HW1 5331   2.102   4.818   1.473  0.9628 -0.4640 -0.5080
 1650SOL    HW2 5332   2.038   4.953   1.497 -0.0779 -1.1200  0.4856
 1651SOL     OW 5333   4.858   2.768   6.337 -0.0595 -0.3605  0.2804
 1651SOL    HW1 5334   4.945   2.799   6.312  0.5984 -2.0425  0.4031
 1651SOL    HW2 5335   4.798   2.815   6.280  1.0655 -0.5154 -1.0584
 1652SOL     OW 5336   3.161   4.937   5.922 -0.0860  0.0552 -0.6672
 1652SOL    HW1 5337   3.214   4.945   6.001  0.3357  0.8094 -1.0150
 1652SOL    HW2 5338   3.127   4.848   5.924  3.0080 -1.1876 -1.5830
 1653SOL     OW 5339   2.089   0.675   5.613  0.5908  0.4899 -0.4687
 1653SOL    HW1 5340   2.114   0.750   5.558  0.8465 -0.8580 -2.2126
 1653SOL    HW2 5341   2.024   0.628   5.562  0.0569 -0.2194  0.8365
 1654SOL     OW 5342   0.339   3.886   2.201 -0.0775 -0.0490 -0.4690
 1654SOL    HW1 5343   0.287   3.810   2.226 -1.3464  0.8898 -0.2346
 1654SOL    HW2 5344   0.312   3.906   2.111 -2.2135  2.1389  0.6043
 1655SOL     OW 5345   3.443   0.170   3.328  0.0509 -0.0394 -0.4130
 1655SOL    HW1 5346   3.458   0.077   3.343 -0.4926 -0.1648 -0.6319
 1655SOL    HW2 5347   3.528   0.204   3.299  0.2566 -0.4605 -0.2961
 1656SOL     OW 5348   5.442   5.773   2.973 -0.2878 -0.4818  0.2411
 1656SOL    HW1 5349   5.434   5.862   3.007 -1.2248  0.1852 -1.6330
 1656SOL    HW2 5350   5.520   5.775   2.919  0.2886 -1.1036  1.0325
 1657SOL     OW 5351   2.596   3.235   2.848 -0.7770 -0.0313  0.6446
 1657SOL    HW1 5352   2.515   3.278   2.821 -2.1082 -1.9831  1.3948
 1657SOL    HW2 5353   2.586   3.223   2.942  0.5652  0.0743  0.7997
 1658SOL     OW 5354   1.689   2.590   3.092 -0.7976 -0.2420 -0.0636
 1658SOL    HW1 5355   1.688   2.500   3.124  2.8004 -0.6548 -0.8241
 1658SOL    HW2 5356   1.700   2.581   2.997  0.6340  0.9774 -0.0260
 1659SOL     OW 5357   3.798   5.362   1.713 -0.6233  0.5239  0.2691
 1659SOL    HW1 5358   3.863   5.399   1.654 -0.4705  0.3628  0.3347
 1659SOL    HW2 5359   3.761   5.437   1.759 -1.4502  0.7387 -0.7509
 1660SOL     OW 5360   5.115   4.417   1.962  0.5474  0.6576 -0.7728
 1660SOL    HW1 5361   5.070   4.375   2.036  0.9536 -1.2014 -1.5507
 1660SOL    HW2 5362   5.170   4.484   2.002  0.4361 -0.0326  0.5648
 1661SOL     OW 5363   1.468   0.443   1.984  0.1227  0.1098 -0.7699
 1661SOL    HW1 5364   1.443   0.528   2.021  0.0006  0.8197 -2.4726
 1661SOL    HW2 5365   1.410   0.380   2.027 -0.9228  1.0881 -0.7225
 1662SOL     OW 5366   0.945   3.008   4.501  0.4169 -0.4796  0.6465
 1662SOL    HW1 5367   1.020   2.988   4.557  1.3422  0.9931 -0.0545
 1662SOL    HW2 5368   0.982   3.021   4.414 -0.7068 -0.2003  0.2009
 1663SOL     OW 5369   3.728   2.192   5.653 -0.4611 -0.1478  0.2215
 1663SOL    HW1 5370   3.772   2.119   5.697  0.7380 -1.1457 -2.4687
 1663SOL    HW2 5371   3.636   2.183   5.677 -0.5543 -3.3995 -1.0691
 1664SOL     OW 5372   4.442   3.363   5.222 -0.0749  0.0012  0.4937
 1664SOL    HW1 5373   4.458   3.272   5.245  1.3772  0.0503 -0.3011
 1664SOL    HW2 5374   4.517   3.389   5.168 -0.7227  1.5076  0.2711
 1665SOL     OW 5375   1.732   5.418   0.077 -0.0317 -0.4352  0.0550
 1665SOL    HW1 5376   1.743   5.403  -0.017 -0.0398  1.2369 -0.2131
 1665SOL    HW2 5377   1.710   5.510   0.085  0.6629 -0.4001  1.7637
 1666SOL     OW 5378   0.227   2.496   3.895  0.4922 -0.0353 -0.2744
 1666SOL    HW1 5379   0.218   2.526   3.805  2.5582  0.0247 -0.4758
 1666SOL    HW2 5380   0.254   2.404   3.888 -0.1966 -0.2929  0.2983
 1667SOL     OW 5381   5.751   0.472   0.066 -0.0613  0.1631  0.2893
 1667SOL    HW1 5382   5.685   0.520   0.115 -0.2643  1.1776 -0.9526
 1667SOL    HW2 5383   5.702   0.412   0.010  0.1545 -0.6408  0.9441
 1668SOL     OW 5384   1.283   1.654   4.443 -0.0019 -0.2218 -0.1273
 1668SOL    HW1 5385   1.358   1.596   4.459  0.3747  0.5709  1.0990
 1668SOL    HW2 5386   1.249   1.673   4.531 -0.0661  1.4726 -0.5042
 1669SOL     OW 5387   0.332   2.067   2.578  0.4726 -0.3642  0.1288
 1669SOL    HW1 5388   0.317   2.089   2.670 -1.4023  0.6674 -0.3966
 1669SOL    HW2 5389   0.340   1.972   2.577  0.4577 -0.3847  1.3542
 1670SOL     OW 5390   5.891   3.048   1.172  0.2177  0.1553  0.2334
 1670SOL    HW1 5391   5.897   3.035   1.267  0.4362 -2.0597 -0.0418
 1670SOL    HW2 5392   5.978   3.075   1.146 -0.3724  2.8267  0.9224
 1671SOL     OW 5393   0.618   1.814   5.433 -0.1077 -0.2450 -0.6670
 1671SOL    HW1 5394   0.563   1.886   5.403 -0.2666 -0.2361 -0.3568
 1671SOL    HW2 5395   0.706   1.851   5.437 -0.1958 -0.0543 -0.4678
 1672SOL     OW 5396   3.860   3.598   5.733 -0.3834 -0.2489 -0.2171
 1672SOL    HW1 5397   3.901   3.640   5.657 -1.3718  0.7946 -0.1870
 1672SOL    HW2 5398   3.934   3.559   5.781  0.3840  0.1329 -1.0656
 1673SOL     OW 5399   5.527   1.109   5.888  0.2001 -0.3860  0.2374
 1673SOL    HW1 5400   5.501   1.019   5.905 -2.1839  0.0587 -0.8832
 1673SOL    HW2 5401   5.514   1.121   5.794 -0.3409  1.3819  0.5116
 1674SOL     OW 5402   5.068   1.609   4.886 -0.6380 -0.4702 -0.5577
 1674SOL    HW1 5403   4.985   1.651   4.909 -1.2736 -0.6246 -2.4625
 1674SOL    HW2 5404   5.070   1.610   4.790  0.7881 -1.9851 -0.5775
 1675SOL     OW 5405   4.302   3.456   4.982 -0.1531  0.1871  0.7212
 1675SOL    HW1 5406   4.374   3.468   5.044  0.1740 -1.5731  0.7273
 1675SOL    HW2 5407   4.223   3.471   5.033  0.1388 -0.3871  1.3515
 1676SOL     OW 5408   4.571   2.805   5.039 -0.4106 -0.0898  0.1641
 1676SOL    HW1 5409   4.521   2.724   5.038  0.1284 -0.4339  0.5061
 1676SOL    HW2 5410   4.549   2.848   4.957 -1.2395 -0.2491  0.3033
 1677SOL     OW 5411   1.811   1.878   2.734  0.4267  0.2619 -0.3477
 1677SOL    HW1 5412   1.741   1.830   2.689  0.1248  0.3519  0.0258
 1677SOL    HW2 5413   1.782   1.883   2.825  0.4727  1.1355 -0.3824
 1678SOL     OW 5414   1.880   6.379   3.320 -0.3818  0.7068  0.2650
 1678SOL    HW1 5415   1.877   6.301   3.376  0.4619 -0.4150 -1.2511
 1678SOL    HW2 5416   1.959   6.368   3.267 -0.2039  2.6432  0.0955
 1679SOL     OW 5417   6.215   1.360   1.724 -0.1571 -1.1006 -0.5515
 1679SOL    HW1 5418   6.137   1.408   1.698  0.7090  0.0787 -1.0069
 1679SOL    HW2 5419   6.273   1.363   1.648  0.3717 -1.8855 -0.1936
 1680SOL     OW 5420   5.668   5.512   1.883  0.3347  0.1367  0.2095
 1680SOL    HW1 5421   5.712   5.595   1.901  0.3888 -0.0748  1.0754
 1680SOL    HW2 5422   5.678   5.462   1.963 -0.9809 -0.1472  0.2089
 1681SOL     OW 5423   1.674   4.535   3.892 -0.3206 -0.5327  0.3696
 1681SOL    HW1 5424   1.596   4.590   3.890  1.2307  1.7579  1.8727
 1681SOL    HW2 5425   1.726   4.563   3.817 -0.2218 -0.9747  0.2711
 1682SOL     OW 5426   3.456   5.727   4.243 -0.6007 -0.1588  0.2251
 1682SOL    HW1 5427   3.398   5.654   4.221  0.6355 -1.7056  1.8166
 1682SOL    HW2 5428   3.459   5.727   4.339  0.6629  0.9798  0.2103
 1683SOL     OW 5429   5.273   1.593   5.402 -0.3189 -0.7168 -0.6599
 1683SOL    HW1 5430   5.285   1.688   5.403 -1.8909 -0.5083 -0.0537
 1683SOL    HW2 5431   5.207   1.578   5.335  0.8835 -1.5298 -1.6997
 1684SOL     OW 5432   2.378   2.891   3.898 -0.1925  0.0422  0.1396
 1684SOL    HW1 5433   2.282   2.891   3.901 -0.1388  0.6596  3.2976
 1684SOL    HW2 5434   2.404   2.842   3.976  2.0617  0.1605 -0.5182
 1685SOL     OW 5435   3.453   2.881   3.146 -0.0582  0.2911  0.6426
 1685SOL    HW1 5436   3.490   2.967   3.164  0.3980  0.4725 -1.1341
 1685SOL    HW2 5437   3.526   2.821   3.157 -0.4226  0.0843  2.0830
 1686SOL     OW 5438   5.936   3.548   0.809 -0.3385 -0.0429 -0.0845
 1686SOL    HW1 5439   5.949   3.472   0.751 -1.1975  0.2151 -0.6352
 1686SOL    HW2 5440   5.963   3.517   0.895 -0.4438 -0.9047 -0.3536
 1687SOL     OW 5441   3.652   5.831   0.351  1.0875  0.0006  0.3639
 1687SOL    HW1 5442   3.568   5.816   0.394 -0.1642  0.5397 -1.7979
 1687SOL    HW2 5443   3.647   5.921   0.318  1.8552 -0.4788 -1.1327
 1688SOL     OW 5444   4.719   1.432   0.698 -0.0485  0.0968  0.2130
 1688SOL    HW1 5445   4.643   1.404   0.647 -2.0004  0.1382  2.9559
 1688SOL    HW2 5446   4.725   1.526   0.683 -0.4194  0.0607 -0.1775
 1689SOL     OW 5447   5.260   1.827   4.315 -0.1046 -0.0863 -0.8366
 1689SOL    HW1 5448   5.220   1.912   4.334  0.8136  0.0047  0.7329
 1689SOL    HW2 5449   5.213   1.765   4.371  0.1469 -0.4082 -0.9780
 1690SOL     OW 5450   1.951   5.399   3.899 -0.2451  0.2726  0.6032
 1690SOL    HW1 5451   2.005   5.408   3.977 -1.4113  1.5211  1.3046
 1690SOL    HW2 5452   1.875   5.456   3.916 -0.3645  0.8156 -1.5706
 1691SOL     OW 5453   2.527   2.002   0.564  0.0699  0.3212 -0.6779
 1691SOL    HW1 5454   2.546   2.085   0.608 -2.9251  0.8350 -0.2890
 1691SOL    HW2 5455   2.441   2.014   0.524 -0.1277 -2.3730 -1.1662
 1692SOL     OW 5456   3.236   1.590   3.310  0.7231 -0.4257 -0.0568
 1692SOL    HW1 5457   3.167   1.640   3.353  0.5254 -0.5751 -0.1996
 1692SOL    HW2 5458   3.204   1.500   3.311  1.5485 -0.7066  1.1363
 1693SOL     OW 5459   1.885   5.455   6.125 -0.1624 -0.0300 -0.0478
 1693SOL    HW1 5460   1.797   5.470   6.090 -0.8982 -0.6108  1.4739
 1693SOL    HW2 5461   1.878   5.372   6.172  0.6784  0.8414  1.7051
 1694SOL     OW 5462   0.428   0.895   5.711  0.2969  0.1118  0.1970
 1694SOL    HW1 5463   0.473   0.813   5.733  0.8304  0.0201 -1.1854
 1694SOL    HW2 5464   0.373   0.914   5.787 -0.0040 -1.6585  0.4359
 1695SOL     OW 5465   2.261   6.044   1.134  0.1878  0.8001 -0.4104
 1695SOL    HW1 5466   2.256   6.043   1.038 -1.0889 -0.0325 -0.3452
 1695SOL    HW2 5467   2.187   6.100   1.161  1.6343  2.5449  0.0391
 1696SOL     OW 5468   2.733   5.238   5.131 -0.0829  0.5037  0.1234
 1696SOL    HW1 5469   2.771   5.286   5.058  1.5108 -0.2681  0.4114
 1696SOL    HW2 5470   2.639   5.256   5.127 -0.2199 -0.7415 -3.0266
 1697SOL     OW 5471   5.198   3.838   1.095  0.2047  0.2233 -0.0076
 1697SOL    HW1 5472   5.223   3.788   1.017 -1.3749  1.1381 -1.1416
 1697SOL    HW2 5473   5.123   3.790   1.131  0.8652 -0.1390  0.9003
 1698SOL     OW 5474   1.057   4.083   5.851  0.0495  0.0121  0.6399
 1698SOL    HW1 5475   0.981   4.104   5.906 -0.0006 -3.2000  1.9128
 1698SOL    HW2 5476   1.020   4.032   5.778  0.5681  1.2964 -0.5308
 1699SOL     OW 5477   1.293   6.195   4.876 -0.0840  0.3010  0.5006
 1699SOL    HW1 5478   1.290   6.184   4.781 -0.2747  0.4237  0.4899
 1699SOL    HW2 5479   1.373   6.245   4.892  0.7167 -0.9721  0.5395
 1700SOL     OW 5480   2.653   1.186   2.388  0.2474  0.4160 -0.4355
 1700SOL    HW1 5481   2.569   1.231   2.383  0.8968  1.5396 -1.5702
 1700SOL    HW2 5482   2.717   1.249   2.353  1.5539 -0.4350  0.3675
 1701SOL     OW 5483   5.053   3.320   3.232  0.4826 -0.7451  0.4512
 1701SOL    HW1 5484   5.027   3.287   3.146  2.5654 -0.6901 -0.2344
 1701SOL    HW2 5485   5.132   3.371   3.216 -1.0755  2.2719  1.9097
 1702SOL     OW 5486   1.564   3.055   4.754 -0.1428  0.3873 -0.0534
 1702SOL    HW1 5487   1.608   3.136   4.777 -0.2768  0.0673  1.3829
 1702SOL    HW2 5488   1.472   3.069   4.776 -0.5432  0.5845 -1.7955
 1703SOL     OW 5489   4.015   6.292   1.201 -0.0323 -0.0623  0.1955
 1703SOL    HW1 5490   4.065   6.373   1.212 -0.0013 -0.0062 -0.3163
 1703SOL    HW2 5491   4.029   6.243   1.282  1.4343 -0.3571 -0.2216
 1704SOL     OW 5492   0.100   5.668   5.281 -0.1695 -0.0519 -0.0697
 1704SOL    HW1 5493   0.131   5.731   5.347  1.9299 -0.8523 -0.2552
 1704SOL    HW2 5494   0.164   5.673   5.211 -1.1276 -0.9105 -1.0217
 1705SOL     OW 5495   6.221   5.374   2.026  0.0196  0.1185 -0.3425
 1705SOL    HW1 5496   6.191   5.300   2.079 -0.0548 -0.2107 -0.8441
 1705SOL    HW2 5497   6.217   5.449   2.086  0.1005 -0.2827  0.1648
 1706SOL     OW 5498   2.679   4.166   4.842  0.0303 -0.3438  0.1098
 1706SOL    HW1 5499   2.645   4.194   4.927 -0.3039 -1.5443  0.3726
 1706SOL    HW2 5500   2.714   4.246   4.803 -1.4445  0.5487  0.6120
 1707SOL     OW 5501   5.531   0.279   2.151 -0.0212  0.0261 -0.3468
 1707SOL    HW1 5502   5.553   0.362   2.193 -2.2779 -0.4122  1.8404
 1707SOL    HW2 5503   5.583   0.214   2.197 -0.2872 -0.1008 -0.2267
 1708SOL     OW 5504   2.205   2.627   1.493 -0.0695  0.4646  0.3514
 1708SOL    HW1 5505   2.174   2.561   1.431 -1.9500  1.5690  0.0543
 1708SOL    HW2 5506   2.271   2.582   1.546  0.7511 -0.8017 -1.7067
 1709SOL     OW 5507   1.698   2.625   2.758 -0.3691  0.4396 -0.3171
 1709SOL    HW1 5508   1.721   2.705   2.805  0.2331 -0.5295  1.0814
 1709SOL    HW2 5509   1.605   2.636   2.737 -0.4406  1.2624  0.3786
 1710SOL     OW 5510   6.376   0.088   6.117 -0.0790  0.4187  0.3230
 1710SOL    HW1 5511   6.397   0.171   6.158 -2.3085  1.1611  0.0702
 1710SOL    HW2 5512   6.282   0.078   6.132  0.0097 -1.6515 -0.3766
 1711SOL     OW 5513   5.855   5.841   3.039 -0.4566  0.1800  0.1279
 1711SOL    HW1 5514   5.832   5.933   3.049 -1.4821 -0.2976  2.4986
 1711SOL    HW2 5515   5.948   5.842   3.013 -1.2203  1.9194 -2.7402
 1712SOL     OW 5516   1.087   6.182   4.614 -0.1134  0.3420 -0.5820
 1712SOL    HW1 5517   1.160   6.120   4.607 -0.1693  0.1488  0.4406
 1712SOL    HW2 5518   1.023   6.137   4.670 -0.2854  1.2036 -0.0741
 1713SOL     OW 5519   3.214   1.800   1.991  0.6658 -0.5447  0.0471
 1713SOL    HW1 5520   3.300   1.771   1.959  1.7652  1.5157  1.0201
 1713SOL    HW2 5521   3.231   1.833   2.079 -1.4389 -1.5598  0.8609
 1714SOL     OW 5522   1.430   0.301   6.284  0.0614 -1.0409  0.6324
 1714SOL    HW1 5523   1.436   0.395   6.267  2.6139 -0.9802  1.6595
 1714SOL    HW2 5524   1.373   0.268   6.214 -0.6166  1.1889  0.0699
 1715SOL     OW 5525   4.473   0.473   4.006 -0.0407  0.2664 -0.1380
 1715SOL    HW1 5526   4.402   0.433   4.056  0.3223 -0.5569 -0.2820
 1715SOL    HW2 5527   4.518   0.529   4.069 -0.7882  0.7664 -0.0359
 1716SOL     OW 5528   3.346   0.128   4.808  0.0306 -0.7170  0.4550
 1716SOL    HW1 5529   3.373   0.190   4.875  1.4629 -0.7485 -0.0799
 1716SOL    HW2 5530   3.373   0.168   4.726 -0.0106 -1.5541  0.0296
 1717SOL     OW 5531   0.452   2.605   4.733 -0.1746  0.3345 -0.1014
 1717SOL    HW1 5532   0.524   2.559   4.689 -0.8574  0.7842 -1.6992
 1717SOL    HW2 5533   0.373   2.575   4.689 -0.8828  0.7868  0.8323
 1718SOL     OW 5534   1.308   4.717   4.073  0.9208  0.3849  0.8468
 1718SOL    HW1 5535   1.273   4.784   4.132  0.3190 -0.5083  1.5257
 1718SOL    HW2 5536   1.269   4.635   4.104 -0.5629  0.0784 -1.6681
 1719SOL     OW 5537   0.334   3.232   0.630 -0.2765  0.2623  0.1316
 1719SOL    HW1 5538   0.299   3.304   0.578 -1.8801  0.8218  1.9633
 1719SOL    HW2 5539   0.265   3.166   0.629  0.1183 -0.1587  0.6962
 1720SOL     OW 5540   0.534   5.707   1.375 -0.5332 -0.4761 -0.1467
 1720SOL    HW1 5541   0.558   5.633   1.319  1.8932  0.7846 -0.8601
 1720SOL    HW2 5542   0.477   5.761   1.320  1.0040  0.2251 -1.1133
 1721SOL     OW 5543   2.093   2.201   5.296  0.3494  0.7585 -0.2406
 1721SOL    HW1 5544   2.188   2.204   5.299  0.3586  0.2022  0.1647
 1721SOL    HW2 5545   2.072   2.120   5.250  0.0727  0.5675  0.2094
 1722SOL     OW 5546   4.329   0.798   1.349  0.0581 -0.2930 -0.2974
 1722SOL    HW1 5547   4.306   0.754   1.431  0.4274  0.2057  0.0791
 1722SOL    HW2 5548   4.245   0.826   1.312  0.0127  1.2089  0.8870
 1723SOL     OW 5549   0.429   5.672   3.029 -0.1739 -0.6334  0.2750
 1723SOL    HW1 5550   0.457   5.752   3.072 -0.1719  0.0306 -0.9536
 1723SOL    HW2 5551   0.506   5.641   2.982 -0.2916 -1.1249  0.3976
 1724SOL     OW 5552   1.353   5.116   4.124  0.8399 -0.0767 -0.0192
 1724SOL    HW1 5553   1.306   5.035   4.142  1.5669 -0.1723  1.6129
 1724SOL    HW2 5554   1.424   5.091   4.064 -0.4933 -0.1372 -1.5914
 1725SOL     OW 5555   1.468   1.387   4.397  0.2395  0.3032 -0.4318
 1725SOL    HW1 5556   1.535   1.444   4.359 -0.2845  0.7003 -0.7680
 1725SOL    HW2 5557   1.430   1.340   4.323 -0.5684  0.8481 -0.3689
 1726SOL     OW 5558   3.102   4.623   2.040 -0.2342 -0.2063 -0.3262
 1726SOL    HW1 5559   3.102   4.528   2.050 -2.5656 -0.2158 -0.1717
 1726SOL    HW2 5560   3.124   4.638   1.948  1.4145 -0.8180 -0.0578
 1727SOL     OW 5561   3.778   5.305   6.339  0.3802 -0.0222 -0.2481
 1727SOL    HW1 5562   3.757   5.398   6.344  0.6504 -0.0574  2.7261
 1727SOL    HW2 5563   3.858   5.301   6.287  1.6128  1.6531  1.4705
 1728SOL     OW 5564   5.233   5.414   3.088  0.0354  0.4027  0.0575
 1728SOL    HW1 5565   5.213   5.438   3.178 -1.2047 -2.1685  0.5148
 1728SOL    HW2 5566   5.249   5.319   3.092  0.4660  0.3501 -2.3369
 1729SOL     OW 5567   6.335   5.764   2.916  0.2207  0.2204 -0.2756
 1729SOL    HW1 5568   6.336   5.669   2.906 -0.6203  0.3667 -1.8297
 1729SOL    HW2 5569   6.337   5.778   3.011  0.4598 -1.3394 -0.0360
 1730SOL     OW 5570   4.145   2.834   3.836 -0.1686 -0.5043 -0.6403
 1730SOL    HW1 5571   4.175   2.753   3.876 -2.8905  0.2063  3.1124
 1730SOL    HW2 5572   4.083   2.805   3.768  1.4258 -1.5990 -1.6668
 1731SOL     OW 5573   0.073   0.807   0.476  0.1243 -0.3876  0.5057
 1731SOL    HW1 5574   0.011   0.769   0.413 -0.1946  1.5638 -0.4311
 1731SOL    HW2 5575   0.111   0.733   0.521 -0.3085 -1.7984 -1.3938
 1732SOL     OW 5576   6.166   4.731   3.237  0.8876 -0.7671  0.6342
 1732SOL    HW1 5577   6.181   4.825   3.230  1.0150 -0.8007  0.4595
 1732SOL    HW2 5578   6.095   4.713   3.175 -0.9200 -0.3610  2.5270
 1733SOL     OW 5579   4.765   4.610   4.212  0.2616  0.0412 -0.2353
 1733SOL    HW1 5580   4.797   4.695   4.239 -0.5675 -0.0296  1.0295
 1733SOL    HW2 5581   4.797   4.599   4.123  0.7397  1.4796 -0.2510
 1734SOL     OW 5582   4.836   3.011   2.304 -0.4128  0.2450  0.2965
 1734SOL    HW1 5583   4.783   2.935   2.327 -0.7892  0.2205 -0.6311
 1734SOL    HW2 5584   4.773   3.077   2.276  0.0376  0.1002 -1.1358
 1735SOL     OW 5585   0.540   6.307   3.337  0.2544  0.2289  0.2467
 1735SOL    HW1 5586   0.506   6.327   3.249  1.7943  1.3920 -0.1186
 1735SOL    HW2 5587   0.497   6.371   3.394 -0.9230 -0.6769  0.3973
 1736SOL     OW 5588   5.779   4.019   3.322  0.0308  0.0133 -0.0359
 1736SOL    HW1 5589   5.817   4.099   3.359 -1.9535 -0.1850  2.5846
 1736SOL    HW2 5590   5.685   4.028   3.336 -0.1885 -2.9931  0.7988
 1737SOL     OW 5591   1.374   2.055   0.788 -0.2815 -0.3154 -0.2293
 1737SOL    HW1 5592   1.353   2.065   0.881 -1.4960 -1.6113 -0.3562
 1737SOL    HW2 5593   1.300   2.096   0.742  0.2695  0.2388 -0.6387
 1738SOL     OW 5594   1.896   1.007   3.443  0.6425  0.2881 -0.0798
 1738SOL    HW1 5595   1.963   1.042   3.501 -0.3484  0.3737  1.0441
 1738SOL    HW2 5596   1.815   1.011   3.494 -0.0479 -0.7313 -1.0449
 1739SOL     OW 5597   4.771   0.281   6.257  0.1283 -0.3220 -0.0246
 1739SOL    HW1 5598   4.758   0.194   6.219 -0.5948 -0.3139  0.1859
 1739SOL    HW2 5599   4.790   0.264   6.349 -0.8864 -0.2290  0.2119
 1740SOL     OW 5600   3.937   2.529   5.825 -0.2685  0.3479  0.2201
 1740SOL    HW1 5601   3.917   2.513   5.732  1.0758 -1.7227  0.2713
 1740SOL    HW2 5602   4.024   2.569   5.824  0.1742 -0.6032  0.6502
 1741SOL     OW 5603   1.744   2.734   6.025 -0.5771 -0.1430  0.3352
 1741SOL    HW1 5604   1.721   2.821   6.058 -0.9888  0.0630 -0.4880
 1741SOL    HW2 5605   1.832   2.745   5.988 -0.5046 -0.1472  0.5077
 1742SOL     OW 5606   3.730   0.644   4.634 -0.2703  0.5615  0.0611
 1742SOL    HW1 5607   3.743   0.606   4.547  0.6366 -1.1638  0.9229
 1742SOL    HW2 5608   3.657   0.705   4.622 -1.1354 -0.7353 -1.5950
 1743SOL     OW 5609   0.406   5.548   2.698 -0.0182 -0.1190 -0.1245
 1743SOL    HW1 5610   0.318   5.584   2.709 -0.7373 -1.8131 -0.0582
 1743SOL    HW2 5611   0.396   5.483   2.627  1.5007  0.7238 -1.1327
 1744SOL     OW 5612   0.523   6.034   3.505  0.6382  0.2843  0.1197
 1744SOL    HW1 5613   0.521   6.110   3.447  1.8966  0.2198 -0.0226
 1744SOL    HW2 5614   0.597   6.051   3.564  0.7072 -0.6626  0.3112
 1745SOL     OW 5615   2.398   4.335   2.527  0.4927 -0.0163  0.3193
 1745SOL    HW1 5616   2.355   4.413   2.491 -0.8280 -0.5054  0.7827
 1745SOL    HW2 5617   2.490   4.347   2.506  0.4426  2.0844  1.1048
 1746SOL     OW 5618   3.541   1.489   3.045  0.0097  0.3958 -0.1326
 1746SOL    HW1 5619   3.496   1.571   3.067 -0.1504  0.7668 -1.8011
 1746SOL    HW2 5620   3.471   1.423   3.043 -0.0778  0.4922 -0.2338
 1747SOL     OW 5621   2.503   0.946   4.265  0.1363 -0.2486 -0.0898
 1747SOL    HW1 5622   2.563   1.010   4.301 -0.6555  2.2907 -3.1041
 1747SOL    HW2 5623   2.557   0.869   4.247  1.6700  0.5969  0.8394
 1748SOL     OW 5624   5.672   2.460   6.032  0.1305 -0.0531  0.6490
 1748SOL    HW1 5625   5.726   2.531   5.997 -0.1590 -0.2887 -0.2922
 1748SOL    HW2 5626   5.627   2.499   6.107 -0.4879  0.9450 -0.2259
 1749SOL     OW 5627   1.632   4.001   0.134 -0.3592 -0.3482 -0.4111
 1749SOL    HW1 5628   1.679   4.045   0.205 -3.0127  1.8276  0.0750
 1749SOL    HW2 5629   1.632   4.064   0.062 -0.5761 -1.2405 -1.2080
 1750SOL     OW 5630   4.223   2.404   2.319  0.1024 -0.1276 -0.4569
 1750SOL    HW1 5631   4.131   2.428   2.313  0.0159 -0.4142 -0.2804
 1750SOL    HW2 5632   4.223   2.308   2.323  0.3742 -0.1053  0.1383
 1751SOL     OW 5633   5.012   2.250   3.789  0.0352 -0.4924 -0.2697
 1751SOL    HW1 5634   5.045   2.316   3.728  1.9954 -1.9813 -0.8735
 1751SOL    HW2 5635   4.963   2.189   3.735  0.6812 -1.1090 -0.1658
 1752SOL     OW 5636   5.560   1.197   3.260 -0.4230 -0.4592  0.0344
 1752SOL    HW1 5637   5.652   1.183   3.283 -0.6793 -0.4915  1.0596
 1752SOL    HW2 5638   5.532   1.268   3.318 -0.9935 -0.3380 -0.3961
 1753SOL     OW 5639   4.901   1.150   5.250 -0.0010 -0.1048 -0.0170
 1753SOL    HW1 5640   4.896   1.058   5.276  0.2917  0.6798  2.9897
 1753SOL    HW2 5641   4.814   1.185   5.267 -0.4264 -0.0624 -2.1868
 1754SOL     OW 5642   2.437   1.973   4.251 -0.0544 -0.2273  0.4482
 1754SOL    HW1 5643   2.342   1.978   4.246  0.0750  2.5018 -0.1545
 1754SOL    HW2 5644   2.458   1.881   4.236 -2.4402 -0.3454 -2.4028
 1755SOL     OW 5645   5.048   5.662   1.547 -0.2402 -0.1490  0.3704
 1755SOL    HW1 5646   5.054   5.594   1.614  0.9117  0.3300  0.7625
 1755SOL    HW2 5647   5.074   5.618   1.466  1.1762 -0.0072  0.7450
 1756SOL     OW 5648   5.669   3.514   5.606  0.2377 -0.0455 -0.2586
 1756SOL    HW1 5649   5.745   3.555   5.566  0.4930  0.7002  0.9468
 1756SOL    HW2 5650   5.703   3.472   5.685 -0.4009 -0.7293 -0.3403
 1757SOL     OW 5651   2.080   6.362   5.586  0.8949 -0.1238  0.0705
 1757SOL    HW1 5652   2.152   6.419   5.558  0.0801  0.6523 -0.4531
 1757SOL    HW2 5653   2.072   6.379   5.680  0.0956  1.2567 -0.2455
 1758SOL     OW 5654   1.616   6.366   1.279  0.0711  0.4696 -0.0423
 1758SOL    HW1 5655   1.655   6.394   1.362 -1.3336  0.4083  0.6486
 1758SOL    HW2 5656   1.640   6.434   1.217 -0.5033  1.5249  0.8648
 1759SOL     OW 5657   2.084   2.635   1.904  0.6608 -0.1032  0.3613
 1759SOL    HW1 5658   2.045   2.549   1.892  0.7008  0.0615 -0.9656
 1759SOL    HW2 5659   2.017   2.696   1.872  1.4155  0.2638 -0.5094
 1760SOL     OW 5660   4.338   3.355   4.255 -0.0014 -0.5658 -0.6949
 1760SOL    HW1 5661   4.315   3.394   4.170 -1.5389 -0.2731 -0.1644
 1760SOL    HW2 5662   4.265   3.379   4.312  1.3704 -0.1397  0.9123
 1761SOL     OW 5663   2.515   1.723   3.261  0.4043  0.2263 -0.0079
 1761SOL    HW1 5664   2.597   1.767   3.241  0.0044 -0.1619 -2.8031
 1761SOL    HW2 5665   2.497   1.670   3.183 -1.9019 -0.5985  1.0279
 1762SOL     OW 5666   3.774   0.026   5.831 -0.0013  0.5146 -0.5273
 1762SOL    HW1 5667   3.766  -0.036   5.759  0.6007  1.0902 -1.0984
 1762SOL    HW2 5668   3.685   0.055   5.849 -0.2523 -0.2837 -0.4547
 1763SOL     OW 5669   0.365   4.203   4.691  0.3213  0.1438 -0.0583
 1763SOL    HW1 5670   0.285   4.154   4.710  1.1156 -1.1248  0.1241
 1763SOL    HW2 5671   0.340   4.266   4.624 -0.0924 -2.5424 -2.5602
 1764SOL     OW 5672   5.908   0.975   4.916  0.0957 -0.0305  0.4812
 1764SOL    HW1 5673   5.959   0.895   4.925  0.2308 -0.0300 -0.2851
 1764SOL    HW2 5674   5.887   1.000   5.006  0.3097 -0.7573  0.7335
 1765SOL     OW 5675   0.222   5.721   2.807  0.3856  0.8899 -0.1223
 1765SOL    HW1 5676   0.144   5.754   2.853  0.2193  2.8059 -1.7060
 1765SOL    HW2 5677   0.293   5.734   2.870 -0.3098  0.6134  0.7388
 1766SOL     OW 5678   3.136   4.805   2.410  0.5310 -0.5412  0.4008
 1766SOL    HW1 5679   3.144   4.829   2.502  0.8802 -0.7394  0.4261
 1766SOL    HW2 5680   3.089   4.878   2.370 -2.1424 -1.7278  1.2583
 1767SOL     OW 5681   2.381   6.200   4.730  0.6599  0.1933 -0.1769
 1767SOL    HW1 5682   2.423   6.202   4.644  0.8441 -0.2007 -0.0944
 1767SOL    HW2 5683   2.449   6.167   4.789 -0.3293 -2.2090 -0.3428
 1768SOL     OW 5684   1.860   0.528   1.410  0.1050  0.0850 -0.1602
 1768SOL    HW1 5685   1.910   0.609   1.405 -0.6531  0.5558 -0.1564
 1768SOL    HW2 5686   1.769   0.555   1.401 -0.0447 -0.9699 -2.0370
 1769SOL     OW 5687   5.067   3.350   5.254  0.0639 -0.2149  0.1346
 1769SOL    HW1 5688   5.063   3.356   5.158  0.2389 -1.0443  0.0666
 1769SOL    HW2 5689   5.160   3.355   5.274  0.0887 -0.8917  0.1962
 1770SOL     OW 5690   6.247   0.934   2.345 -0.3631 -0.1149 -0.2121
 1770SOL    HW1 5691   6.265   0.959   2.254 -0.3352  1.0710  0.1202
 1770SOL    HW2 5692   6.233   0.839   2.341 -0.4837 -0.0503 -1.4738
 1771SOL     OW 5693   2.659   1.373   1.883  0.2635 -0.6276  0.4287
 1771SOL    HW1 5694   2.611   1.426   1.947 -0.0067 -0.3840  0.0245
 1771SOL    HW2 5695   2.617   1.393   1.800 -1.3485 -3.2044  0.5600
 1772SOL     OW 5696   0.198   5.114   5.755  0.2063  0.4578 -0.0745
 1772SOL    HW1 5697   0.293   5.117   5.746  0.3931 -0.9097  1.0900
 1772SOL    HW2 5698   0.180   5.157   5.838 -0.0979 -0.0426  0.1260
 1773SOL     OW 5699   4.576   1.730   1.727  0.1416  0.0700  0.1249
 1773SOL    HW1 5700   4.490   1.772   1.714 -0.3739 -1.2751 -0.8383
 1773SOL    HW2 5701   4.637   1.804   1.735 -0.9050  1.0263 -0.5206
 1774SOL     OW 5702   1.957   2.236   4.569  0.5552  0.0201 -0.0795
 1774SOL    HW1 5703   1.882   2.222   4.628 -1.1289  1.6656 -1.7623
 1774SOL    HW2 5704   2.016   2.163   4.589 -1.5046 -1.3563  1.2699
 1775SOL     OW 5705   4.829   2.539   0.392 -0.1778  0.1038  0.1291
 1775SOL    HW1 5706   4.835   2.512   0.301 -2.4503 -1.6008  0.4434
 1775SOL    HW2 5707   4.838   2.458   0.442 -1.1015  0.7150  1.3202
 1776SOL     OW 5708   0.031   5.412   5.611 -0.3616 -0.6243  0.2758
 1776SOL    HW1 5709  -0.058   5.439   5.590 -0.0831 -1.2034 -1.7582
 1776SOL    HW2 5710   0.077   5.494   5.630 -0.4564  0.0595 -2.2081
 1777SOL     OW 5711   4.838   3.540   5.505  0.3574 -0.0696 -0.5880
 1777SOL    HW1 5712   4.808   3.600   5.437  1.1711  1.3249  0.2481
 1777SOL    HW2 5713   4.929   3.565   5.520  0.1588 -0.2943  1.0662
 1778SOL     OW 5714   0.055   1.491   1.054  0.1081  0.5860  0.3267
 1778SOL    HW1 5715   0.033   1.421   1.116 -1.3623  0.0788 -0.7426
 1778SOL    HW2 5716   0.142   1.519   1.080  0.3121 -0.9738  1.4096
 1779SOL     OW 5717   0.316   0.041   1.717 -0.7150  0.0188  0.0353
 1779SOL    HW1 5718   0.284  -0.046   1.739  3.5342 -1.6288  0.1789
 1779SOL    HW2 5719   0.299   0.051   1.624  0.4421 -1.7707 -0.3814
 1780SOL     OW 5720   5.335   0.998   6.365  0.4091 -0.1398 -0.0811
 1780SOL    HW1 5721   5.239   0.993   6.363  0.4035 -0.9962  1.1424
 1780SOL    HW2 5722   5.363   0.906   6.366  1.2486  0.1113 -0.6998
 1781SOL     OW 5723   1.239   2.203   6.336  0.0034 -0.2843  0.1429
 1781SOL    HW1 5724   1.307   2.185   6.400 -0.0705 -0.2617  0.2265
 1781SOL    HW2 5725   1.157   2.180   6.380  0.1004 -2.1941 -0.6188
 1782SOL     OW 5726   1.084   5.807   3.210 -0.0738 -0.1746  0.3175
 1782SOL    HW1 5727   1.089   5.738   3.144  0.6453  0.0304  0.1543
 1782SOL    HW2 5728   1.165   5.856   3.199 -0.3369  0.3666  0.7987
 1783SOL     OW 5729   1.220   4.755   0.811 -0.1569 -0.0277  0.0605
 1783SOL    HW1 5730   1.196   4.840   0.774  3.3639 -0.4433 -3.4727
 1783SOL    HW2 5731   1.313   4.762   0.831  0.2714 -3.1063 -0.5629
 1784SOL     OW 5732   0.701   1.855   1.905  0.4242 -0.1937  0.3135
 1784SOL    HW1 5733   0.682   1.939   1.946 -0.7385 -0.0623 -0.4846
 1784SOL    HW2 5734   0.797   1.848   1.908  0.6010  1.6491 -0.5700
 1785SOL     OW 5735   5.726   3.702   5.824  0.8002  0.1925 -0.5350
 1785SOL    HW1 5736   5.673   3.745   5.891 -0.0852 -1.8437  0.0969
 1785SOL    HW2 5737   5.662   3.654   5.770  1.5934  1.0102 -2.2510
 1786SOL     OW 5738   3.094   3.173   5.135 -0.2352  0.7127  0.4575
 1786SOL    HW1 5739   3.053   3.236   5.076  0.7682  1.1033  0.1631
 1786SOL    HW2 5740   3.178   3.213   5.159  0.2867 -0.3782  0.4950
 1787SOL     OW 5741   3.874   0.354   0.331  0.0871  0.0825 -0.2934
 1787SOL    HW1 5742   3.800   0.398   0.372  0.3780  0.4676 -0.1745
 1787SOL    HW2 5743   3.887   0.401   0.248 -0.1299 -0.3155 -0.5497
 1788SOL     OW 5744   1.760   6.278   5.618 -0.6893 -0.6068  0.2636
 1788SOL    HW1 5745   1.752   6.363   5.575  0.8427  1.5581  3.9992
 1788SOL    HW2 5746   1.845   6.244   5.590 -2.0403 -1.7815 -2.5809
 1789SOL     OW 5747   1.940   1.005   2.637 -0.1851  0.5779  0.5728
 1789SOL    HW1 5748   2.017   1.018   2.582 -0.4318 -1.9688 -0.4047
 1789SOL    HW2 5749   1.976   0.993   2.725  0.4872  0.2494  0.2574
 1790SOL     OW 5750   1.364   5.629   1.095  0.9256  0.0920  0.3105
 1790SOL    HW1 5751   1.419   5.691   1.144  0.7412 -1.0399  1.9951
 1790SOL    HW2 5752   1.375   5.546   1.142  1.1102 -1.1466 -1.8711
 1791SOL     OW 5753   1.429   3.565   4.006 -0.0146 -0.6100 -0.1164
 1791SOL    HW1 5754   1.385   3.591   4.086 -1.4006 -0.4679 -0.9151
 1791SOL    HW2 5755   1.449   3.647   3.961 -0.1918 -0.7295 -0.4164
 1792SOL     OW 5756   5.066   1.727   4.485  0.0323 -1.0108 -0.4495
 1792SOL    HW1 5757   5.017   1.768   4.556  1.1462  2.4397 -1.5661
 1792SOL    HW2 5758   4.999   1.699   4.423 -0.7186  1.8269 -1.0094
 1793SOL     OW 5759   1.176   2.282   3.191 -0.4632 -0.1526  0.0495
 1793SOL    HW1 5760   1.114   2.316   3.127 -0.6668  0.3562  0.5149
 1793SOL    HW2 5761   1.182   2.351   3.258  0.2487 -0.3943  0.2374
 1794SOL     OW 5762   0.729   4.450   0.309 -0.2910 -0.6587  0.1568
 1794SOL    HW1 5763   0.769   4.403   0.236 -1.0083  0.6061 -1.0733
 1794SOL    HW2 5764   0.776   4.418   0.386  2.3382 -0.0525 -1.1249
 1795SOL     OW 5765   1.183   1.585   3.741  0.0305  0.1314  0.8126
 1795SOL    HW1 5766   1.124   1.660   3.737  0.8781  0.7512 -0.4884
 1795SOL    HW2 5767   1.171   1.541   3.657  0.1299 -0.7430  1.2492
 1796SOL     OW 5768   1.757   0.796   5.650  0.4459 -0.0001 -0.0918
 1796SOL    HW1 5769   1.693   0.813   5.719 -0.1469 -0.1092 -0.6137
 1796SOL    HW2 5770   1.752   0.873   5.593  0.3697 -0.2650 -0.4446
 1797SOL     OW 5771   0.363   5.217   4.063  0.3626  0.3686 -0.1821
 1797SOL    HW1 5772   0.272   5.247   4.071  0.7566  1.6951 -0.6001
 1797SOL    HW2 5773   0.409   5.289   4.021  1.7791  0.0133  0.7175
 1798SOL     OW 5774   5.295   0.162   0.704 -0.6250 -0.4067 -0.6031
 1798SOL    HW1 5775   5.255   0.079   0.677  1.4437 -1.6324  0.0167
 1798SOL    HW2 5776   5.322   0.203   0.621 -0.7476 -0.8145 -0.8485
 1799SOL     OW 5777   3.308   3.562   1.573 -0.3137 -0.0672 -0.3761
 1799SOL    HW1 5778   3.262   3.487   1.534  1.1819 -1.0894 -0.2164
 1799SOL    HW2 5779   3.370   3.523   1.635  1.8109  1.1684 -1.6595
 1800SOL     OW 5780   5.494   1.288   2.003  0.4006  0.1213  0.3439
 1800SOL    HW1 5781   5.436   1.363   1.997 -0.7740 -0.8790 -0.8975
 1800SOL    HW2 5782   5.570   1.320   2.053 -1.4764  1.2545  2.5300
 1801SOL     OW 5783   1.031   1.991   2.443  0.4173  0.0512  0.3741
 1801SOL    HW1 5784   1.072   2.077   2.434  3.7465 -1.4589  0.1098
 1801SOL    HW2 5785   1.087   1.933   2.390 -2.5372 -2.0395 -0.5922
 1802SOL     OW 5786   5.391   6.358   0.100 -0.3682 -0.0817 -0.7409
 1802SOL    HW1 5787   5.323   6.308   0.054 -0.8654 -0.7864  0.7600
 1802SOL    HW2 5788   5.460   6.295   0.119 -0.1571  0.2179 -0.5047
 1803SOL     OW 5789   5.374   0.283   3.506  0.3887  0.1322  0.5069
 1803SOL    HW1 5790   5.427   0.361   3.522  0.3509  0.4472 -0.8793
 1803SOL    HW2 5791   5.290   0.316   3.475 -0.4475 -0.3928  2.1578
 1804SOL     OW 5792   1.047   4.664   3.918 -0.4100  0.2159  0.2219
 1804SOL    HW1 5793   1.052   4.634   3.828 -2.6733  1.6936 -0.4388
 1804SOL    HW2 5794   1.106   4.606   3.966  0.8168 -0.5945 -2.1854
 1805SOL     OW 5795   6.380   5.636   1.172 -0.0912 -0.1487 -0.4273
 1805SOL    HW1 5796   6.441   5.667   1.239  1.4492 -1.8717 -0.9883
 1805SOL    HW2 5797   6.310   5.593   1.221 -0.2793  0.8272  0.1700
 1806SOL     OW 5798   6.290   2.093   4.050 -0.2101  0.4015 -0.7507
 1806SOL    HW1 5799   6.313   2.064   3.962 -2.7022 -0.2439 -1.2308
 1806SOL    HW2 5800   6.194   2.100   4.048 -0.2181  1.2243  1.6480
 1807SOL     OW 5801   2.130   4.201   4.579 -0.1428  0.3245  0.0198
 1807SOL    HW1 5802   2.063   4.137   4.553  2.0600 -2.1127  0.0647
 1807SOL    HW2 5803   2.141   4.257   4.503  0.3077 -1.5150 -1.2927
 1808SOL     OW 5804   0.067   1.323   2.052 -0.7847  0.2242  0.1015
 1808SOL    HW1 5805   0.029   1.264   1.988  3.8832 -1.9347 -0.9240
 1808SOL    HW2 5806   0.039   1.410   2.025 -2.1364 -0.9853 -2.5371
 1809SOL     OW 5807   0.788   2.927   6.192 -0.3280  0.0915  0.4877
 1809SOL    HW1 5808   0.756   2.997   6.135  1.2610  0.7690  0.3897
 1809SOL    HW2 5809   0.748   2.847   6.158 -2.4212  0.9975  0.7980
 1810SOL     OW 5810   0.785   4.607   2.735 -0.0910  0.2592 -0.3814
 1810SOL    HW1 5811   0.814   4.679   2.679  0.5214 -1.5888 -2.5453
 1810SOL    HW2 5812   0.768   4.535   2.674  1.8098 -2.2419  1.9318
 1811SOL     OW 5813   0.537   2.229   3.789 -0.2019 -0.7367  0.0450
 1811SOL    HW1 5814   0.519   2.317   3.756 -2.2075 -0.9099  0.6314
 1811SOL    HW2 5815   0.600   2.243   3.860 -0.4763  0.2326  0.1117
 1812SOL     OW 5816   4.492   2.521   5.055  0.3166  0.0166 -0.1723
 1812SOL    HW1 5817   4.583   2.552   5.055  0.4228 -0.2647  0.9909
 1812SOL    HW2 5818   4.500   2.426   5.065 -0.0806 -0.1017 -0.9984
 1813SOL     OW 5819   5.110   1.170   5.581  0.3558  0.1501  0.2305
 1813SOL    HW1 5820   5.033   1.153   5.525  1.5183  2.2815 -2.1245
 1813SOL    HW2 5821   5.083   1.243   5.637  0.8884  1.4481 -1.1651
 1814SOL     OW 5822   4.698   1.414   1.100  0.2118 -0.5510  0.2642
 1814SOL    HW1 5823   4.747   1.332   1.113  0.7346 -0.4211 -0.8703
 1814SOL    HW2 5824   4.649   1.401   1.019 -0.2633 -0.0018  0.4554
 1815SOL     OW 5825   4.265   1.746   5.046  0.2871  0.1011  0.1056
 1815SOL    HW1 5826   4.320   1.735   4.969 -0.2741 -1.9415 -0.0480
 1815SOL    HW2 5827   4.326   1.760   5.118  1.0403 -1.8741 -0.1036
 1816SOL     OW 5828   3.952   0.195   6.316 -0.4347  0.1088  0.3892
 1816SOL    HW1 5829   3.920   0.130   6.253  2.1388  0.8571 -1.7642
 1816SOL    HW2 5830   3.959   0.146   6.398  1.9021 -2.5263 -1.2786
 1817SOL     OW 5831   3.586   3.061   5.534 -0.2787 -0.0860 -0.4595
 1817SOL    HW1 5832   3.656   3.118   5.501  1.1278 -2.1307 -1.1167
 1817SOL    HW2 5833   3.569   3.000   5.462 -2.7528  0.3622 -0.2914
 1818SOL     OW 5834   5.766   0.823   3.093  0.0657 -0.1963  0.1669
 1818SOL    HW1 5835   5.672   0.831   3.111  0.2785  1.0795  0.7680
 1818SOL    HW2 5836   5.808   0.844   3.176  0.9691  2.4468 -0.9199
 1819SOL     OW 5837   2.211   4.331   3.656 -0.1715 -0.0355  0.0729
 1819SOL    HW1 5838   2.283   4.354   3.714 -2.2063  0.2458  2.5803
 1819SOL    HW2 5839   2.252   4.322   3.569  3.0158 -0.9298  1.5838
 1820SOL     OW 5840   1.195   2.025   3.351 -0.3865  0.4687  0.5392
 1820SOL    HW1 5841   1.119   1.981   3.389 -0.6451 -0.7863 -1.3393
 1820SOL    HW2 5842   1.157   2.093   3.295 -0.1196  0.3490  0.2084
 1821SOL     OW 5843   5.974   4.920   1.395  0.0134 -0.2317 -0.3296
 1821SOL    HW1 5844   6.030   4.993   1.370  0.8854 -0.8809 -0.3073
 1821SOL    HW2 5845   5.965   4.868   1.315 -1.1650  0.2513 -0.5235
 1822SOL     OW 5846   3.863   5.162   4.703 -0.1620  0.3115 -0.2509
 1822SOL    HW1 5847   3.940   5.106   4.710 -0.7475 -0.1677  3.5494
 1822SOL    HW2 5848   3.789   5.102   4.704 -0.6789  0.9377  0.4199
 1823SOL     OW 5849   1.562   5.679   5.229 -0.5296 -0.6775 -0.2369
 1823SOL    HW1 5850   1.651   5.714   5.223 -0.7445 -0.1026 -0.0544
 1823SOL    HW2 5851   1.510   5.750   5.267 -1.6660  0.0715 -3.0593
 1824SOL     OW 5852   0.714   2.845   0.777 -0.6503 -0.6641  0.1244
 1824SOL    HW1 5853   0.716   2.928   0.824 -0.5856 -0.6680  0.1289
 1824SOL    HW2 5854   0.784   2.852   0.712 -0.9164 -0.5495 -0.1535
 1825SOL     OW 5855   4.614   4.053   1.046 -0.2238  0.3715  0.0679
 1825SOL    HW1 5856   4.548   4.121   1.029  0.5077  0.4132 -2.8198
 1825SOL    HW2 5857   4.641   4.023   0.959  0.8693 -2.2894  1.2677
 1826SOL     OW 5858   5.664   4.637   2.080  0.0707  0.2779 -0.3086
 1826SOL    HW1 5859   5.744   4.689   2.088  0.8998 -1.0797  0.3827
 1826SOL    HW2 5860   5.682   4.576   2.008 -1.5983  2.1628 -2.3772
 1827SOL     OW 5861   4.411   5.874   3.953 -0.2556 -0.5966  0.0006
 1827SOL    HW1 5862   4.332   5.822   3.969 -0.1195 -0.5601  0.7790
 1827SOL    HW2 5863   4.431   5.859   3.860 -2.5094  1.2533 -0.8052
 1828SOL     OW 5864   2.316   4.063   5.935  0.1203 -0.3233 -0.1176
 1828SOL    HW1 5865   2.246   4.038   5.874 -0.1901  0.9041 -0.2813
 1828SOL    HW2 5866   2.379   4.110   5.880 -1.6797  3.6020  1.0247
 1829SOL     OW 5867   3.952   2.015   3.065  0.2131 -0.1479 -0.0024
 1829SOL    HW1 5868   3.985   1.953   3.130  0.9508  0.7874  0.5351
 1829SOL    HW2 5869   3.858   2.018   3.080  0.4606  0.5681  1.4931
 1830SOL     OW 5870   4.622   5.832   3.703  0.1077  0.2595  0.0673
 1830SOL    HW1 5871   4.676   5.888   3.758 -0.1873  0.9696 -0.3679
 1830SOL    HW2 5872   4.680   5.802   3.633  0.7480 -1.4201  1.2762
 1831SOL     OW 5873   5.139   0.854   5.869  0.0950  0.1521  0.1398
 1831SOL    HW1 5874   5.208   0.824   5.928 -1.0826 -1.9291  0.4950
 1831SOL    HW2 5875   5.175   0.933   5.828  1.7792  0.3833  2.0032
 1832SOL     OW 5876   6.214   3.136   1.761 -0.0956  0.4024  0.0199
 1832SOL    HW1 5877   6.251   3.096   1.683 -0.5919 -1.1407  0.5505
 1832SOL    HW2 5878   6.119   3.121   1.754 -0.3292  1.8245  0.0482
 1833SOL     OW 5879   3.216   2.606   5.679 -0.2123  0.9811 -0.2378
 1833SOL    HW1 5880   3.294   2.572   5.724 -0.9861 -0.8814 -0.2675
 1833SOL    HW2 5881   3.228   2.701   5.679  2.3968  0.6730 -0.8785
 1834SOL     OW 5882   2.979   2.399   1.715 -0.4179 -0.1428  0.1666
 1834SOL    HW1 5883   2.906   2.338   1.722 -2.9177  2.7211  0.0343
 1834SOL    HW2 5884   2.974   2.451   1.795  0.5802  1.0520 -0.5344
 1835SOL     OW 5885   3.926   6.206   2.860  0.1934 -0.1524  0.3541
 1835SOL    HW1 5886   4.020   6.196   2.877 -0.1415 -1.5383  1.4440
 1835SOL    HW2 5887   3.912   6.160   2.777  0.0494 -2.0263  1.4140
 1836SOL     OW 5888   2.078   4.077   5.771  0.2527  0.1454  0.2097
 1836SOL    HW1 5889   2.119   4.117   5.695 -1.4776 -2.0121 -1.9362
 1836SOL    HW2 5890   1.984   4.089   5.758 -0.2398 -3.1417  0.2757
 1837SOL     OW 5891   1.519   4.678   5.781 -0.8642  0.1354  0.1240
 1837SOL    HW1 5892   1.427   4.653   5.792 -1.0524  1.3169  1.2563
 1837SOL    HW2 5893   1.546   4.712   5.866  0.8625 -0.9418  0.0316
 1838SOL     OW 5894   0.085   5.280   1.544  0.1695 -0.3029 -0.1871
 1838SOL    HW1 5895   0.152   5.213   1.559  0.8352  0.5516  0.6690
 1838SOL    HW2 5896   0.053   5.302   1.631 -1.2410 -0.7058 -0.5927
 1839SOL     OW 5897   1.481   5.664   1.843  0.4380 -0.3685 -0.0289
 1839SOL    HW1 5898   1.565   5.657   1.889  1.3277 -1.5336 -1.7599
 1839SOL    HW2 5899   1.428   5.593   1.879  1.4059 -1.7725 -1.3289
 1840SOL     OW 5900   1.102   2.605   3.977 -0.0842 -0.0345  0.5886
 1840SOL    HW1 5901   1.174   2.633   3.921 -3.1502  4.4498 -1.4025
 1840SOL    HW2 5902   1.115   2.653   4.059 -0.4660  0.2085  0.5033
 1841SOL     OW 5903   3.744   2.972   5.755  0.1114  0.1012  0.6286
 1841SOL    HW1 5904   3.834   3.002   5.748 -0.1147  0.9931  1.3917
 1841SOL    HW2 5905   3.701   3.007   5.677  0.4891 -0.6072  0.0915
 1842SOL     OW 5906   6.299   4.507   1.566 -0.1457 -0.0750  0.3805
 1842SOL    HW1 5907   6.295   4.564   1.489  0.3239 -1.8538 -0.9876
 1842SOL    HW2 5908   6.222   4.451   1.558 -0.2805 -0.0449  1.4016
 1843SOL     OW 5909   6.138   4.297   5.638  0.1238  0.2911  0.8269
 1843SOL    HW1 5910   6.222   4.264   5.670  0.7400  1.3323  0.3238
 1843SOL    HW2 5911   6.087   4.218   5.618  1.9963 -0.3639 -1.4983
 1844SOL     OW 5912   3.264   2.214   3.466  0.3445  0.5227  0.1414
 1844SOL    HW1 5913   3.197   2.274   3.433  2.8780  3.0420 -0.6683
 1844SOL    HW2 5914   3.280   2.154   3.393 -1.6453 -0.7126  0.6744
 1845SOL     OW 5915   0.760   0.889   1.478  0.4063 -0.1180 -0.2364
 1845SOL    HW1 5916   0.767   0.815   1.538  2.9185  0.3962  0.1905
 1845SOL    HW2 5917   0.686   0.940   1.511  0.5033 -0.8994  1.2151
 1846SOL     OW 5918   1.093   1.224   6.281 -0.7308 -0.5466  0.5778
 1846SOL    HW1 5919   1.140   1.183   6.353  1.9967  0.7517 -0.4008
 1846SOL    HW2 5920   1.050   1.151   6.235  0.3223 -1.7483  1.4732
 1847SOL     OW 5921   0.217   0.200   1.098 -0.2505 -0.6957  1.0422
 1847SOL    HW1 5922   0.162   0.125   1.075 -0.2830 -0.9458  1.9365
 1847SOL    HW2 5923   0.159   0.260   1.144 -0.2248 -0.1143  0.3261
 1848SOL     OW 5924   4.145   2.466   1.334  0.1012 -0.2078 -0.1078
 1848SOL    HW1 5925   4.142   2.461   1.430  2.4367  0.1751  0.0147
 1848SOL    HW2 5926   4.090   2.540   1.311 -0.5114 -0.3354  0.9255
 1849SOL     OW 5927   2.360   3.964   2.961 -0.1527 -0.1162  0.2051
 1849SOL    HW1 5928   2.358   3.890   3.023  1.7724  0.5433  1.1234
 1849SOL    HW2 5929   2.314   4.035   3.007 -1.1304 -0.4450 -0.2645
 1850SOL     OW 5930   3.910   1.638   5.292  0.1309  0.0137  0.3243
 1850SOL    HW1 5931   3.852   1.591   5.232 -1.5571  2.0269  0.2904
 1850SOL    HW2 5932   3.959   1.698   5.235  1.3518 -0.8134  0.5036
 1851SOL     OW 5933   5.678   1.575   5.629 -0.0157 -0.2710  0.0130
 1851SOL    HW1 5934   5.715   1.623   5.556  1.8963  0.4551  1.4250
 1851SOL    HW2 5935   5.583   1.580   5.615  0.1874  2.5950 -0.6874
 1852SOL     OW 5936   4.584   2.159   3.057 -0.3352  0.2925  0.1552
 1852SOL    HW1 5937   4.526   2.089   3.088 -0.0873  0.5553  1.2288
 1852SOL    HW2 5938   4.672   2.130   3.082 -0.0045  0.0033 -1.2729
 1853SOL     OW 5939   5.746   5.639   4.422 -0.1676 -0.1704 -0.5137
 1853SOL    HW1 5940   5.718   5.589   4.345  0.3202  0.2657 -0.9774
 1853SOL    HW2 5941   5.809   5.582   4.466  0.3613  0.0161 -1.0228
 1854SOL     OW 5942   4.849   6.180   5.205  0.2512 -0.5606 -0.2128
 1854SOL    HW1 5943   4.773   6.195   5.262  0.0403 -1.7007 -0.1875
 1854SOL    HW2 5944   4.905   6.256   5.219 -0.3803 -0.2416  0.5951
 1855SOL     OW 5945   3.827   0.855   3.116 -0.2580  0.3019 -0.1167
 1855SOL    HW1 5946   3.805   0.931   3.170  1.2222  1.2646 -0.8269
 1855SOL    HW2 5947   3.912   0.876   3.078  0.5888 -2.1088  0.3733
 1856SOL     OW 5948   2.109   5.612   3.024 -0.5972  0.0889  0.2017
 1856SOL    HW1 5949   2.038   5.648   2.971  0.2854  0.7686 -0.5395
 1856SOL    HW2 5950   2.068   5.544   3.076 -1.7755  0.4083 -0.2937
 1857SOL     OW 5951   2.236   3.472   5.728  0.4670  0.2765 -0.1797
 1857SOL    HW1 5952   2.330   3.471   5.710  0.5713  2.1304  0.1537
 1857SOL    HW2 5953   2.212   3.565   5.730 -2.0626 -0.1968 -3.7062
 1858SOL     OW 5954   4.941   0.335   1.542 -0.1621 -0.8224  0.1003
 1858SOL    HW1 5955   4.968   0.424   1.567 -1.1400 -0.7355  0.8789
 1858SOL    HW2 5956   4.848   0.344   1.520 -0.2938 -1.6888  0.3112
 1859SOL     OW 5957   4.789   1.569   5.373 -0.1471  0.3217 -0.0686
 1859SOL    HW1 5958   4.790   1.647   5.429 -0.2754 -0.0806  0.5016
 1859SOL    HW2 5959   4.823   1.500   5.429  2.3425  0.4704 -1.3209
 1860SOL     OW 5960   4.322   1.503   2.272 -0.2483  0.0496  0.0332
 1860SOL    HW1 5961   4.314   1.483   2.365 -0.3961  0.3636  0.0912
 1860SOL    HW2 5962   4.410   1.474   2.248 -0.1667  0.0737  0.3008
 1861SOL     OW 5963   4.444   1.288   3.390 -0.3249  0.1303  0.3639
 1861SOL    HW1 5964   4.446   1.266   3.297 -0.5425  0.0277  0.3846
 1861SOL    HW2 5965   4.367   1.244   3.424  0.2740 -0.6027  0.7908
 1862SOL     OW 5966   3.530   2.495   3.625  0.8385 -0.2495 -0.2081
 1862SOL    HW1 5967   3.574   2.427   3.677  2.8009  0.6095 -0.6898
 1862SOL    HW2 5968   3.564   2.483   3.537 -2.2305 -1.4746 -1.2804
 1863SOL     OW 5969   0.955   2.877   2.251  0.3604  0.1914  0.1172
 1863SOL    HW1 5970   0.966   2.924   2.167 -2.1913  0.8589  0.1169
 1863SOL    HW2 5971   0.968   2.945   2.317 -1.2551  0.4819  0.1591
 1864SOL     OW 5972   5.238   3.724   4.034  0.2581  1.4019 -0.3108
 1864SOL    HW1 5973   5.240   3.819   4.025  1.4580  1.3383 -0.8573
 1864SOL    HW2 5974   5.253   3.708   4.127 -1.9166  1.7895  0.1305
 1865SOL     OW 5975   3.781   3.273   0.760  0.1734  0.1554 -0.1406
 1865SOL    HW1 5976   3.755   3.365   0.761 -0.3576  0.0125 -0.8065
 1865SOL    HW2 5977   3.824   3.260   0.845 -0.3985  0.8271  0.2619
 1866SOL     OW 5978   6.309   1.171   6.256  0.0581  0.2043 -0.3631
 1866SOL    HW1 5979   6.264   1.251   6.283 -0.1319  0.6963 -2.0353
 1866SOL    HW2 5980   6.343   1.134   6.337 -2.4665  0.3620  0.8388
 1867SOL     OW 5981   5.443   5.945   3.792  0.3347 -0.2856 -0.0128
 1867SOL    HW1 5982   5.382   5.996   3.738  0.9175  1.1190  0.6111
 1867SOL    HW2 5983   5.421   5.854   3.774 -1.7113  0.1949 -0.0893
 1868SOL     OW 5984   0.659   1.774   1.660  0.4203  0.3863  0.1896
 1868SOL    HW1 5985   0.673   1.798   1.752  1.0533 -1.7578  0.6856
 1868SOL    HW2 5986   0.724   1.706   1.644 -1.2412 -0.9001 -1.1720
 1869SOL     OW 5987   5.614   3.974   0.803  0.0708 -0.1177  0.4461
 1869SOL    HW1 5988   5.665   3.919   0.862  0.7835 -1.4251 -1.3240
 1869SOL    HW2 5989   5.676   4.041   0.774  0.0430 -0.1371  0.3416
 1870SOL     OW 5990   4.209   1.798   1.955 -0.8000 -0.0024 -0.0235
 1870SOL    HW1 5991   4.296   1.837   1.952 -0.7008 -0.2545 -0.4969
 1870SOL    HW2 5992   4.151   1.869   1.981 -0.5535  0.3426 -0.4123
 1871SOL     OW 5993   6.057   3.542   3.092  0.8222 -0.3205  0.2207
 1871SOL    HW1 5994   6.029   3.512   3.005 -1.8075 -0.0646  0.9269
 1871SOL    HW2 5995   6.127   3.605   3.074  0.7609 -0.7586 -1.6883
 1872SOL     OW 5996   4.051   3.926   3.570  0.1173  0.5158 -0.3963
 1872SOL    HW1 5997   4.047   3.873   3.650  0.7538  1.2478  0.1330
 1872SOL    HW2 5998   4.012   4.009   3.595 -1.1094  0.2264 -1.2947
 1873SOL     OW 5999   3.571   4.060   3.361 -0.2793 -0.1904 -0.1073
 1873SOL    HW1 6000   3.482   4.092   3.343  0.7357  3.7812  1.3615
 1873SOL    HW2 6001   3.617   4.070   3.278 -0.3548  0.9294 -0.0244
 1874SOL     OW 6002   0.439   4.491   2.347 -0.3606 -0.6170  0.0036
 1874SOL    HW1 6003   0.344   4.485   2.348 -0.5242  1.7436  1.0825
 1874SOL    HW2 6004   0.461   4.548   2.420  1.7876  0.2031 -1.2183
 1875SOL     OW 6005   3.410   4.766   4.343 -0.1798 -0.1631 -0.8605
 1875SOL    HW1 6006   3.323   4.734   4.366  0.1514 -0.4127  0.0585
 1875SOL    HW2 6007   3.453   4.692   4.301 -0.7480  0.2607 -2.2213
 1876SOL     OW 6008   4.888   2.132   3.582  0.0538  0.5600 -0.1597
 1876SOL    HW1 6009   4.831   2.150   3.507  1.1819  2.1201 -0.6710
 1876SOL    HW2 6010   4.942   2.058   3.553 -0.9068 -0.1869 -0.0920
 1877SOL     OW 6011   1.296   2.889   2.221 -0.3504 -0.0539  0.1368
 1877SOL    HW1 6012   1.265   2.976   2.248 -1.6863 -0.4456 -0.1056
 1877SOL    HW2 6013   1.369   2.907   2.162 -0.4280  0.9007  0.3202
 1878SOL     OW 6014   1.530   4.546   4.414  0.6555  0.1333  0.1145
 1878SOL    HW1 6015   1.517   4.549   4.509  0.4894 -1.9686  0.1829
 1878SOL    HW2 6016   1.621   4.518   4.403  0.5055 -0.1733 -0.3543
 1879SOL     OW 6017   1.229   1.600   1.218  0.3454  0.1807 -0.5071
 1879SOL    HW1 6018   1.167   1.641   1.278  1.4564 -0.0305  0.8071
 1879SOL    HW2 6019   1.191   1.514   1.199  0.2850  0.0027  0.3840
 1880SOL     OW 6020   4.485   3.477   0.122  0.5560  0.3933  0.2881
 1880SOL    HW1 6021   4.414   3.422   0.153  0.8670 -0.3362 -0.2938
 1880SOL    HW2 6022   4.484   3.553   0.180  0.5959 -0.5631  1.5523
 1881SOL     OW 6023   1.811   2.465   0.544 -0.1104 -0.2187 -0.6064
 1881SOL    HW1 6024   1.804   2.536   0.480 -0.2112  0.0645 -0.2817
 1881SOL    HW2 6025   1.743   2.484   0.608 -0.1070 -0.5851 -0.4936
 1882SOL     OW 6026   5.871   1.589   5.260  0.6140 -0.4050  0.2693
 1882SOL    HW1 6027   5.869   1.625   5.171 -0.4614  0.1099  0.4946
 1882SOL    HW2 6028   5.964   1.576   5.278  0.9460  0.9318 -0.3682
 1883SOL     OW 6029   2.185   0.728   4.434 -0.6685  0.1197  0.2554
 1883SOL    HW1 6030   2.262   0.708   4.380  0.6440  1.3271  1.6181
 1883SOL    HW2 6031   2.137   0.794   4.383  0.9957  1.8777  0.8734
 1884SOL     OW 6032   5.110   2.040   4.675 -0.3086  0.3918  0.2304
 1884SOL    HW1 6033   5.160   1.965   4.706 -0.0625  1.6786  3.1833
 1884SOL    HW2 6034   5.160   2.116   4.705 -1.1650  1.7290 -1.6442
 1885SOL     OW 6035   5.621   6.375   5.280  0.0569  0.0104 -0.2428
 1885SOL    HW1 6036   5.527   6.380   5.263 -0.0191 -0.6098 -0.0623
 1885SOL    HW2 6037   5.657   6.326   5.206  0.0152 -0.9809  0.3663
 1886SOL     OW 6038   4.489   2.018   1.429 -0.2206  0.0063  0.0582
 1886SOL    HW1 6039   4.569   1.970   1.413 -0.8413 -0.1748 -2.7841
 1886SOL    HW2 6040   4.513   2.085   1.493  2.7355  1.3196 -2.3467
 1887SOL     OW 6041   3.746   0.090   0.405  0.1814  0.1197 -0.1915
 1887SOL    HW1 6042   3.772   0.174   0.366 -2.0761  1.2109  0.5287
 1887SOL    HW2 6043   3.823   0.061   0.453  0.6652  2.3331  0.4286
 1888SOL     OW 6044   0.462   3.964   5.015 -0.1197 -0.0856 -0.2587
 1888SOL    HW1 6045   0.419   4.039   5.055  0.6332  0.9604 -1.4030
 1888SOL    HW2 6046   0.555   3.977   5.033  0.0289 -0.6622 -0.5932
 1889SOL     OW 6047   3.529   5.138   5.036  0.1957 -0.3783  0.0820
 1889SOL    HW1 6048   3.442   5.119   5.072  0.3164 -1.9266 -0.4272
 1889SOL    HW2 6049   3.583   5.157   5.113  0.0813 -2.1855  0.6392
 1890SOL     OW 6050   4.498   1.140   1.884  0.8101 -0.1267  0.1727
 1890SOL    HW1 6051   4.564   1.210   1.883  1.5085 -0.7565  0.8109
 1890SOL    HW2 6052   4.462   1.143   1.972  0.3553 -0.1230 -0.0144
 1891SOL     OW 6053   0.328   2.230   0.280 -0.2554 -0.4557  0.4860
 1891SOL    HW1 6054   0.369   2.315   0.266 -0.0668 -0.2876  1.9884
 1891SOL    HW2 6055   0.280   2.239   0.362 -0.8403 -1.5798  0.2886
 1892SOL     OW 6056   0.131   1.741   5.809  0.3666 -0.2456 -0.3832
 1892SOL    HW1 6057   0.172   1.824   5.834  1.8714 -1.4932  1.3878
 1892SOL    HW2 6058   0.051   1.767   5.763 -0.1991  2.1858  1.8530
 1893SOL     OW 6059   5.374   4.685   4.263 -0.1179 -0.0212  0.1758
 1893SOL    HW1 6060   5.382   4.774   4.298 -0.1436 -0.5589  1.6033
 1893SOL    HW2 6061   5.306   4.644   4.317 -1.8199 -0.1761 -2.0504
 1894SOL     OW 6062   5.066   6.297   0.184 -0.3022 -0.0584 -0.2515
 1894SOL    HW1 6063   5.107   6.370   0.230 -3.0283  1.8881 -0.7280
 1894SOL    HW2 6064   5.110   6.294   0.099  0.3911  0.5031  0.0839
 1895SOL     OW 6065   3.926   4.314   1.646 -0.2362 -0.0453  0.2127
 1895SOL    HW1 6066   4.004   4.258   1.654 -0.2327  0.2412  2.6278
 1895SOL    HW2 6067   3.961   4.403   1.640 -0.3581  0.0320  0.6453
 1896SOL     OW 6068   2.849   5.559   1.484 -0.6059  0.3405  0.1310
 1896SOL    HW1 6069   2.878   5.646   1.512  1.1102 -0.3249  0.5149
 1896SOL    HW2 6070   2.900   5.498   1.538 -1.0628 -0.9192 -0.8183
 1897SOL     OW 6071   2.247   3.496   5.357 -0.4646  0.1712 -0.1831
 1897SOL    HW1 6072   2.261   3.448   5.438 -1.4332 -0.9940 -0.6957
 1897SOL    HW2 6073   2.315   3.564   5.357  1.0580 -1.3111  0.4626
 1898SOL     OW 6074   2.653   4.353   3.703 -0.2175  0.5582 -0.4058
 1898SOL    HW1 6075   2.728   4.410   3.722 -1.9115  2.1640  1.7880
 1898SOL    HW2 6076   2.654   4.288   3.773 -0.8023  0.4985 -0.4546
 1899SOL     OW 6077   5.451   5.748   2.359 -0.3360  0.0814 -0.0789
 1899SOL    HW1 6078   5.365   5.740   2.399 -0.0614  0.0002  0.5059
 1899SOL    HW2 6079   5.451   5.684   2.288 -0.3374 -0.7706  0.6777
 1900SOL     OW 6080   3.179   0.441   2.111  0.4128  1.0393  0.7373
 1900SOL    HW1 6081   3.161   0.525   2.155  0.2620  0.4948  1.7448
 1900SOL    HW2 6082   3.210   0.384   2.181  2.6157  0.8819 -0.3445
 1901SOL     OW 6083   2.642   2.216   3.925  0.1446  0.0178  0.0936
 1901SOL    HW1 6084   2.573   2.273   3.891  0.0180  0.0536  0.4139
 1901SOL    HW2 6085   2.644   2.142   3.864 -1.4296 -0.8836  1.1233
 1902SOL     OW 6086   3.648   6.313   1.164  0.0307 -0.3179 -0.6819
 1902SOL    HW1 6087   3.702   6.265   1.101 -0.6609  2.3057 -3.3430
 1902SOL    HW2 6088   3.694   6.395   1.178 -1.4893  0.4735 -0.2275
 1903SOL     OW 6089   0.114   4.470   2.870 -0.1591 -0.0790 -0.4779
 1903SOL    HW1 6090   0.080   4.419   2.797  0.4373 -1.7902  0.4299
 1903SOL    HW2 6091   0.053   4.454   2.942 -0.1187  0.7053 -0.2598
 1904SOL     OW 6092   2.937   0.734   3.587 -0.0279 -0.6730  0.0594
 1904SOL    HW1 6093   3.015   0.788   3.603 -1.0329  0.7411  0.3540
 1904SOL    HW2 6094   2.906   0.710   3.675  1.6489 -3.6076 -0.1022
 1905SOL     OW 6095   1.165   3.256   2.597 -0.2638 -0.2135  0.4168
 1905SOL    HW1 6096   1.105   3.194   2.557  1.0377 -0.6690 -0.8595
 1905SOL    HW2 6097   1.191   3.214   2.679 -2.6723  0.5801  1.6426
 1906SOL     OW 6098   3.451   2.212   6.080 -0.6040  0.2625 -0.1886
 1906SOL    HW1 6099   3.530   2.158   6.088 -1.1064 -0.2929  1.1464
 1906SOL    HW2 6100   3.482   2.302   6.097 -0.5832 -0.1845  2.4377
 1907SOL     OW 6101   2.413   1.335   4.807  0.2769  0.6516  0.0885
 1907SOL    HW1 6102   2.458   1.312   4.726  0.0827  0.5274  0.0168
 1907SOL    HW2 6103   2.457   1.415   4.837  0.0413  0.9611 -0.3824
 1908SOL     OW 6104   1.870   1.339   1.528  0.7427  0.2181 -0.5197
 1908SOL    HW1 6105   1.861   1.294   1.444 -1.2006  1.0634 -0.8043
 1908SOL    HW2 6106   1.964   1.338   1.547  1.0993 -0.7526 -2.2689
 1909SOL     OW 6107   0.361   3.127   6.345 -0.1908 -0.3725 -0.5772
 1909SOL    HW1 6108   0.295   3.066   6.314 -0.9908 -0.6518  1.5799
 1909SOL    HW2 6109   0.438   3.073   6.363 -0.9139 -0.7810  1.3776
 1910SOL     OW 6110   4.842   0.141   4.433 -0.0661 -0.6183  0.3226
 1910SOL    HW1 6111   4.908   0.197   4.475 -1.0857 -0.2750  1.5038
 1910SOL    HW2 6112   4.816   0.079   4.501  0.4709 -2.0441 -0.7412
 1911SOL     OW 6113   2.676   1.831   1.027 -0.2470 -0.5561  0.3171
 1911SOL    HW1 6114   2.761   1.793   1.005 -0.7568 -2.6743  1.9210
 1911SOL    HW2 6115   2.684   1.858   1.118 -0.9403  0.3041  0.1357
 1912SOL     OW 6116   2.878   4.151   5.463  0.8763  0.0880  0.7491
 1912SOL    HW1 6117   2.839   4.148   5.550 -0.5903 -2.9331  0.0624
 1912SOL    HW2 6118   2.814   4.108   5.406  2.5346  0.5083 -1.5121
 1913SOL     OW 6119   2.248   4.613   1.167  0.1430  0.1497 -0.8170
 1913SOL    HW1 6120   2.263   4.610   1.073 -0.2104 -2.5943 -0.8104
 1913SOL    HW2 6121   2.199   4.534   1.187  1.9036 -0.3294  1.9596
 1914SOL     OW 6122   3.335   4.818   5.026  0.1063  0.2555 -0.1647
 1914SOL    HW1 6123   3.269   4.751   5.041 -0.4366  0.9297  0.5346
 1914SOL    HW2 6124   3.412   4.787   5.074  0.1502 -0.2911 -0.5774
 1915SOL     OW 6125   0.207   4.062   6.316  0.4873  0.4486 -0.2682
 1915SOL    HW1 6126   0.269   3.990   6.328 -0.4116 -0.1408  1.0564
 1915SOL    HW2 6127   0.240   4.132   6.372  1.3817  1.0774 -1.5857
 1916SOL     OW 6128   5.690   1.471   4.125  0.7558  0.2070 -0.2416
 1916SOL    HW1 6129   5.604   1.445   4.090  0.3708  0.7190  0.3052
 1916SOL    HW2 6130   5.742   1.493   4.048  0.6312 -0.8066 -0.6261
 1917SOL     OW 6131   3.217   2.884   2.109  0.1083 -0.1401  0.4253
 1917SOL    HW1 6132   3.155   2.915   2.175  0.2358 -0.3601  0.6553
 1917SOL    HW2 6133   3.300   2.877   2.157  0.4105  0.5866  0.0088
 1918SOL     OW 6134   4.851   1.094   0.230  0.0770  0.1360 -0.3465
 1918SOL    HW1 6135   4.929   1.051   0.194  0.0201 -0.3885  0.1562
 1918SOL    HW2 6136   4.885   1.173   0.272  0.4530 -0.5354  0.6295
 1919SOL     OW 6137   2.049   0.291   0.911  0.7243 -0.4567  0.1137
 1919SOL    HW1 6138   2.100   0.243   0.847  0.3250 -0.7203 -0.0082
 1919SOL    HW2 6139   2.114   0.326   0.973  1.0191 -1.0874  0.1611
 1920SOL     OW 6140   5.701   5.028   4.911 -0.4618 -0.0893  0.6186
 1920SOL    HW1 6141   5.660   5.037   4.825  0.7884  1.2996  0.1470
 1920SOL    HW2 6142   5.696   4.934   4.930 -0.5524 -0.4475 -1.0797
 1921SOL     OW 6143   3.424   4.996   0.513  0.0131  0.1225  0.0217
 1921SOL    HW1 6144   3.355   5.061   0.496  0.9502  1.1247  0.0212
 1921SOL    HW2 6145   3.376   4.916   0.536 -1.1517  0.8400  0.1333
 1922SOL     OW 6146   2.316   3.856   5.053  0.3884 -0.1983 -0.2452
 1922SOL    HW1 6147   2.342   3.930   4.999  1.8064  0.0945  0.8077
 1922SOL    HW2 6148   2.245   3.891   5.108 -0.3616 -0.2184 -1.1908
 1923SOL     OW 6149   1.622   6.188   4.216 -0.3123 -0.2807  0.0430
 1923SOL    HW1 6150   1.626   6.141   4.133  1.3497  0.0108 -0.0663
 1923SOL    HW2 6151   1.709   6.228   4.225 -0.5198 -0.1856  1.8434
 1924SOL     OW 6152   6.020   1.378   4.887 -0.8303  0.0246 -0.7481
 1924SOL    HW1 6153   6.060   1.292   4.879  0.7101  0.7810 -1.4023
 1924SOL    HW2 6154   5.964   1.372   4.965  0.3493 -1.1240  0.0264
 1925SOL     OW 6155   5.325   1.047   0.763  0.0947 -0.9604 -0.6787
 1925SOL    HW1 6156   5.261   1.116   0.775  1.3141  0.3412 -1.4384
 1925SOL    HW2 6157   5.347   1.050   0.669  1.6831 -0.9765 -0.3273
 1926SOL     OW 6158   4.949   4.440   3.094  0.0904  0.0052  0.1838
 1926SOL    HW1 6159   4.954   4.432   2.999  0.9123  0.7674  0.1635
 1926SOL    HW2 6160   4.901   4.361   3.121 -1.3332  0.4421 -0.9550
 1927SOL     OW 6161   5.477   4.203   0.332 -0.2046 -0.4885  0.2763
 1927SOL    HW1 6162   5.571   4.205   0.316 -0.1888  1.3680  0.5093
 1927SOL    HW2 6163   5.466   4.252   0.414 -1.5381  0.7252 -0.6148
 1928SOL     OW 6164   1.106   3.549   1.975  0.0460 -0.6074  0.6306
 1928SOL    HW1 6165   1.160   3.572   2.051  1.2430 -0.1437 -0.3411
 1928SOL    HW2 6166   1.035   3.613   1.976  2.2197  1.9541 -0.8654
 1929SOL     OW 6167   1.018   2.456   3.009 -0.2079  0.2966  0.3569
 1929SOL    HW1 6168   1.071   2.448   2.930  0.4566 -1.1871  0.9207
 1929SOL    HW2 6169   0.930   2.429   2.983 -0.3675  1.3721 -0.2446
 1930SOL     OW 6170   0.221   4.064   4.221 -0.2116 -0.2216  0.5184
 1930SOL    HW1 6171   0.177   4.007   4.284  1.2659  0.9403  2.6723
 1930SOL    HW2 6172   0.178   4.149   4.231 -0.4697 -0.2026 -0.6180
 1931SOL     OW 6173   3.347   0.178   0.878 -0.1043  0.3843 -0.2801
 1931SOL    HW1 6174   3.261   0.184   0.920 -0.0497  0.5837 -0.1930
 1931SOL    HW2 6175   3.398   0.248   0.919  0.0882  0.2889 -0.3572
 1932SOL     OW 6176   6.091   5.034   3.008  0.2352  0.2529 -0.3601
 1932SOL    HW1 6177   6.100   5.039   3.103 -1.6020  0.3286 -0.1752
 1932SOL    HW2 6178   6.137   5.112   2.976 -0.8116  1.2793  0.5941
 1933SOL     OW 6179   3.923   4.693   0.018 -0.0613  0.1149 -0.0483
 1933SOL    HW1 6180   3.947   4.777  -0.019 -0.5886  0.3739  0.1863
 1933SOL    HW2 6181   3.850   4.713   0.077 -0.3061 -0.5280 -0.1298
 1934SOL     OW 6182   1.321   6.314   3.305  0.0797  0.0795  0.2442
 1934SOL    HW1 6183   1.265   6.391   3.289 -0.4232 -0.3532 -0.0803
 1934SOL    HW2 6184   1.279   6.269   3.378 -1.1147 -1.2955 -1.2302
 1935SOL     OW 6185   3.132   4.579   0.638  0.2076  0.2997 -0.0214
 1935SOL    HW1 6186   3.118   4.562   0.732 -0.4351  0.0597 -0.1595
 1935SOL    HW2 6187   3.168   4.497   0.605  2.9139  1.2128  0.5183
 1936SOL     OW 6188   6.231   3.291   2.795  0.1375 -0.7451 -0.2047
 1936SOL    HW1 6189   6.288   3.255   2.728  1.7696 -2.1166  1.8562
 1936SOL    HW2 6190   6.152   3.238   2.791  0.7863 -1.7179 -0.1122
 1937SOL     OW 6191   5.101   3.669   5.794 -0.7997  0.7689 -0.2262
 1937SOL    HW1 6192   5.106   3.582   5.832  1.0467  1.1847  0.5844
 1937SOL    HW2 6193   5.187   3.707   5.811 -0.4768  1.6039 -3.3871
 1938SOL     OW 6194   4.700   2.191   3.368 -0.1318 -0.0975  0.1243
 1938SOL    HW1 6195   4.780   2.198   3.317 -0.8372 -0.5075 -1.0577
 1938SOL    HW2 6196   4.630   2.183   3.303 -0.9221 -1.9518  1.1473
 1939SOL     OW 6197   5.250   3.949   1.749 -0.1066 -0.0124 -0.3942
 1939SOL    HW1 6198   5.190   3.896   1.697 -0.2020  0.2330 -0.5371
 1939SOL    HW2 6199   5.193   3.999   1.807  0.0423 -0.8044  0.4360
 1940SOL     OW 6200   1.076   0.503   1.095  0.0596  0.1995 -0.1435
 1940SOL    HW1 6201   1.060   0.543   1.180 -1.1421 -0.3819 -0.0802
 1940SOL    HW2 6202   1.032   0.561   1.032  0.3993  0.2861 -0.3017
 1941SOL     OW 6203   6.225   3.594   1.990 -0.2334 -0.3071  0.7393
 1941SOL    HW1 6204   6.198   3.517   1.940  0.2000 -0.2030  0.3401
 1941SOL    HW2 6205   6.321   3.595   1.983 -0.4155  2.2750 -2.2745
 1942SOL     OW 6206   5.914   4.937   0.163  0.0240 -0.3648 -0.7340
 1942SOL    HW1 6207   5.930   5.023   0.203 -0.8348  0.0453 -1.2585
 1942SOL    HW2 6208   5.958   4.942   0.078 -1.2256  0.0791 -1.3705
 1943SOL     OW 6209   0.633   3.282   0.177  0.3424  0.1120  0.3124
 1943SOL    HW1 6210   0.639   3.246   0.089 -4.0271 -0.2619  0.0463
 1943SOL    HW2 6211   0.634   3.206   0.235 -0.6649  0.0722  0.2918
 1944SOL     OW 6212   1.078   4.447   2.798  0.2728  0.0070 -0.1190
 1944SOL    HW1 6213   1.141   4.393   2.750  0.1909 -0.3353  0.1630
 1944SOL    HW2 6214   1.004   4.456   2.739  0.0795 -0.5991  0.0283
 1945SOL     OW 6215   3.819   3.944   5.678 -0.9299 -0.4448 -0.3427
 1945SOL    HW1 6216   3.875   3.911   5.607  0.0135 -0.1160  0.2413
 1945SOL    HW2 6217   3.828   4.039   5.673 -0.9554 -0.4166  0.1492
 1946SOL     OW 6218   4.005   2.033   5.939  0.0017  0.1809 -0.3853
 1946SOL    HW1 6219   4.046   1.986   6.011 -0.3339 -0.6438 -0.7257
 1946SOL    HW2 6220   3.947   2.097   5.982  1.6047  1.3446  0.0902
 1947SOL     OW 6221   2.453   4.029   2.693 -0.8013 -0.2852  0.1226
 1947SOL    HW1 6222   2.410   4.045   2.777 -0.1795 -0.6583  0.5105
 1947SOL    HW2 6223   2.488   3.941   2.700 -2.6106 -1.1446 -1.3413
 1948SOL     OW 6224   3.445   5.549   2.846  0.5822  0.4040  0.0015
 1948SOL    HW1 6225   3.435   5.535   2.752 -2.5854  1.3592  0.1422
 1948SOL    HW2 6226   3.480   5.466   2.879  0.6088 -0.3531 -1.8645
 1949SOL     OW 6227   6.018   3.096   5.736  0.4857 -0.3508 -0.0977
 1949SOL    HW1 6228   6.113   3.087   5.742  0.7773  2.6130  0.3558
 1949SOL    HW2 6229   6.004   3.166   5.672 -1.2615  1.6880  2.4452
 1950SOL     OW 6230   3.243   4.611   1.471 -0.3843  0.4027  0.1626
 1950SOL    HW1 6231   3.251   4.628   1.377  1.3982  0.8071  0.3579
 1950SOL    HW2 6232   3.288   4.686   1.512 -1.2629  0.2909  1.3338
 1951SOL     OW 6233   4.339   2.491   3.384 -0.0973 -0.0188  0.0570
 1951SOL    HW1 6234   4.314   2.564   3.440 -2.4802 -2.0986  1.8364
 1951SOL    HW2 6235   4.412   2.449   3.431 -0.8472 -0.6501  0.6683
 1952SOL     OW 6236   3.965   4.346   3.897 -0.8790  0.9176  1.0031
 1952SOL    HW1 6237   3.893   4.392   3.941 -2.0364 -1.8505  2.1213
 1952SOL    HW2 6238   3.982   4.270   3.952  0.5002 -0.3814 -1.1574
 1953SOL     OW 6239   3.580   4.076   0.990 -0.4304  0.0993 -0.2829
 1953SOL    HW1 6240   3.552   4.167   0.982 -0.7951  0.0172  0.0466
 1953SOL    HW2 6241   3.506   4.032   1.032  0.4440  0.0077  1.1905
 1954SOL     OW 6242   1.244   5.571   0.857 -0.8430  0.3933  0.0281
 1954SOL    HW1 6243   1.327   5.576   0.809 -0.9562 -0.6576 -0.2815
 1954SOL    HW2 6244   1.263   5.610   0.942 -0.2334  0.8699 -0.3208
 1955SOL     OW 6245   5.996   3.726   5.876 -0.1601  0.1855  0.8437
 1955SOL    HW1 6246   6.034   3.813   5.892  0.3606  0.0378  0.4467
 1955SOL    HW2 6247   5.903   3.742   5.862 -0.1456  0.6269  1.2367
 1956SOL     OW 6248   0.779   4.347   3.640  0.4263 -0.2264 -0.6357
 1956SOL    HW1 6249   0.828   4.332   3.559 -0.2995 -0.4636 -1.0385
 1956SOL    HW2 6250   0.693   4.377   3.611 -0.4374 -2.0349 -0.0056
 1957SOL     OW 6251   1.781   6.319   2.963 -0.4892  0.4564  0.0631
 1957SOL    HW1 6252   1.727   6.345   3.038  0.8283  0.9750  0.8474
 1957SOL    HW2 6253   1.845   6.390   2.954 -0.0181 -0.0893 -0.9396
 1958SOL     OW 6254   2.989   3.585   0.249  0.2603 -0.0537 -0.5493
 1958SOL    HW1 6255   3.010   3.551   0.335 -2.2766 -0.0080  0.1192
 1958SOL    HW2 6256   2.895   3.603   0.252  0.6894  2.8397 -2.3055
 1959SOL     OW 6257   1.206   0.327   0.139 -0.1131 -0.1089  0.3661
 1959SOL    HW1 6258   1.229   0.360   0.226  0.7732  1.1296 -0.3176
 1959SOL    HW2 6259   1.286   0.338   0.087 -0.6982 -0.6352 -0.6710
 1960SOL     OW 6260   5.553   2.861   6.380 -0.2908  0.7576  0.4106
 1960SOL    HW1 6261   5.609   2.852   6.456 -0.3487  1.2939  0.5240
 1960SOL    HW2 6262   5.613   2.874   6.307 -0.2637  2.2332  0.6604
 1961SOL     OW 6263   2.889   0.744   5.932 -0.3696  0.1934 -0.3405
 1961SOL    HW1 6264   2.867   0.706   5.847  1.1458  0.4700 -0.8677
 1961SOL    HW2 6265   2.983   0.729   5.941 -0.7739 -1.2600  1.9945
 1962SOL     OW 6266   1.722   0.070   0.736  0.0836  0.2646  0.8690
 1962SOL    HW1 6267   1.771   0.152   0.725 -0.3089  0.5342  1.0734
 1962SOL    HW2 6268   1.727   0.052   0.830 -2.5855  1.8379  1.3821
 1963SOL     OW 6269   2.414   4.918   3.071  0.1608 -0.1136  0.5094
 1963SOL    HW1 6270   2.418   5.002   3.116  1.8137  0.2238 -0.2488
 1963SOL    HW2 6271   2.502   4.904   3.038 -0.5013 -1.3752 -0.7718
 1964SOL     OW 6272   1.874   2.730   1.485 -0.0671  0.1698 -0.0241
 1964SOL    HW1 6273   1.819   2.759   1.558  0.6087  2.3804 -0.3596
 1964SOL    HW2 6274   1.953   2.697   1.527 -0.2365  0.1798  0.3061
 1965SOL     OW 6275   3.361   5.301   4.068 -0.0555  0.1434  0.3555
 1965SOL    HW1 6276   3.347   5.365   4.138  0.1019 -0.5264  1.0096
 1965SOL    HW2 6277   3.356   5.352   3.987 -3.1218  0.4591  0.6919
 1966SOL     OW 6278   2.269   4.577   2.421  0.1030 -0.2642  0.4873
 1966SOL    HW1 6279   2.229   4.520   2.356  2.0474  0.6317 -1.5268
 1966SOL    HW2 6280   2.230   4.663   2.406  0.9338  0.0598  0.1306
 1967SOL     OW 6281   1.287   6.230   1.143 -0.1129  0.0310  0.0553
 1967SOL    HW1 6282   1.372   6.207   1.181 -0.1665 -0.4652 -0.1200
 1967SOL    HW2 6283   1.223   6.204   1.209 -0.1722 -0.2965 -0.1293
 1968SOL     OW 6284   4.969   0.590   1.647  0.4024 -0.1085 -0.2739
 1968SOL    HW1 6285   5.054   0.595   1.603  0.9928  0.9624  0.9410
 1968SOL    HW2 6286   4.917   0.661   1.609  0.0586 -0.7317 -0.9807
 1969SOL     OW 6287   0.423   3.569   6.068 -0.5264 -0.1058  0.3555
 1969SOL    HW1 6288   0.509   3.565   6.027 -0.1108  0.5546  1.1517
 1969SOL    HW2 6289   0.362   3.545   5.998  0.3282 -0.9445 -0.1084
 1970SOL     OW 6290   0.178   2.490   0.042 -0.0755  0.4896 -0.1534
 1970SOL    HW1 6291   0.093   2.457   0.015  0.2116  0.4389 -1.0088
 1970SOL    HW2 6292   0.237   2.468  -0.030  0.5016  1.2209  0.0812
 1971SOL     OW 6293   1.034   2.653   6.279  0.3135  0.4503  0.4725
 1971SOL    HW1 6294   1.028   2.605   6.196  0.4216  0.6601  0.3426
 1971SOL    HW2 6295   1.121   2.631   6.313 -0.2058 -0.5869  1.1157
 1972SOL     OW 6296   6.365   5.793   3.434 -0.2175  0.3346  0.1912
 1972SOL    HW1 6297   6.346   5.849   3.509  0.9268  0.5319  0.3420
 1972SOL    HW2 6298   6.322   5.710   3.454  1.2488 -0.0714  1.6999
 1973SOL     OW 6299   5.858   1.456   1.211  0.4577 -0.0723  0.7169
 1973SOL    HW1 6300   5.931   1.424   1.265 -0.3073 -2.3785  0.4197
 1973SOL    HW2 6301   5.888   1.542   1.180  2.5726 -0.4716  1.5306
 1974SOL     OW 6302   4.537   0.907   3.440  0.9876  0.3536  0.0034
 1974SOL    HW1 6303   4.571   0.940   3.523  0.6905  0.7651 -0.0367
 1974SOL    HW2 6304   4.606   0.927   3.376 -0.0099  2.6902 -0.3856
 1975SOL     OW 6305   6.094   1.032   6.166 -0.4375 -0.0785 -0.3830
 1975SOL    HW1 6306   6.020   1.031   6.227 -0.5166  2.2592 -0.4226
 1975SOL    HW2 6307   6.168   1.064   6.218 -0.2721  0.9617 -1.2539
 1976SOL     OW 6308   5.086   3.212   1.327  0.1252 -0.3925  0.6624
 1976SOL    HW1 6309   5.012   3.244   1.275 -0.5136 -1.5162  0.8599
 1976SOL    HW2 6310   5.064   3.120   1.345  1.3847 -0.6204  1.0542
 1977SOL     OW 6311   2.889   3.166   0.217 -0.1123  0.2557  0.1543
 1977SOL    HW1 6312   2.983   3.174   0.199 -0.4748  2.0872 -0.9847
 1977SOL    HW2 6313   2.863   3.087   0.169  1.1727 -1.3137  1.9420
 1978SOL     OW 6314   2.220   4.932   2.577 -0.6757  0.2810  0.1517
 1978SOL    HW1 6315   2.150   4.982   2.619  0.0830  0.4777  1.2134
 1978SOL    HW2 6316   2.282   4.915   2.648  0.6696  0.6740 -0.9323
 1979SOL     OW 6317   4.451   3.719   3.942 -0.0575  0.3869 -0.6538
 1979SOL    HW1 6318   4.532   3.717   3.891 -0.7351  1.6395 -1.7857
 1979SOL    HW2 6319   4.389   3.667   3.892 -1.0548  2.5488 -1.7025
 1980SOL     OW 6320   3.020   1.350   4.383 -0.0540 -0.1633  0.3543
 1980SOL    HW1 6321   2.941   1.403   4.374 -0.8086 -1.4280 -0.7506
 1980SOL    HW2 6322   3.004   1.296   4.461 -0.1115 -0.1275  0.3676
 1981SOL     OW 6323   4.055   6.246   6.174  0.0661  0.0500 -0.3180
 1981SOL    HW1 6324   3.969   6.271   6.207  0.5572 -0.6553  1.6015
 1981SOL    HW2 6325   4.040   6.162   6.129 -0.0464 -0.7566  1.1865
 1982SOL     OW 6326   4.917   3.988   5.289  0.0075 -0.4132  0.1631
 1982SOL    HW1 6327   4.869   4.069   5.304  0.3324 -0.1165 -0.3885
 1982SOL    HW2 6328   5.007   4.008   5.315  0.2506 -0.3563 -0.7175
 1983SOL     OW 6329   5.353   3.179   3.129  0.3901 -0.4424  0.1171
 1983SOL    HW1 6330   5.327   3.226   3.049 -0.8825 -0.5501  0.4533
 1983SOL    HW2 6331   5.442   3.149   3.112  0.7184  0.9279 -0.6370
 1984SOL     OW 6332   4.778   4.348   1.594 -0.1745 -0.0735 -0.0649
 1984SOL    HW1 6333   4.788   4.418   1.530  0.9882 -0.8684 -0.7860
 1984SOL    HW2 6334   4.833   4.375   1.668 -0.1626  0.0310 -0.1118
 1985SOL     OW 6335   3.007   0.634   5.273 -0.3923 -0.0015  0.7352
 1985SOL    HW1 6336   2.976   0.678   5.353  0.0111 -2.3704  2.2532
 1985SOL    HW2 6337   2.943   0.565   5.258  0.8203 -1.0519  0.3576
 1986SOL     OW 6338   2.384   0.010   3.552  0.3434  0.9180 -0.1609
 1986SOL    HW1 6339   2.445  -0.064   3.546  0.9046  1.2200  1.7664
 1986SOL    HW2 6340   2.307  -0.026   3.595  0.3483  1.2985  0.1620
 1987SOL     OW 6341   0.267   1.967   0.297  0.1811 -0.0048 -0.1346
 1987SOL    HW1 6342   0.360   1.948   0.308  0.2627 -0.4664 -1.5036
 1987SOL    HW2 6343   0.262   2.063   0.293  0.3161  0.1258  2.1611
 1988SOL     OW 6344   2.414   5.098   5.519  0.1451 -0.1290 -0.6377
 1988SOL    HW1 6345   2.445   5.030   5.459  0.4623 -0.4547 -0.1036
 1988SOL    HW2 6346   2.471   5.173   5.502  0.5277 -0.3679 -0.4314
 1989SOL     OW 6347   0.831   3.572   1.045  0.4094  0.0136  0.0654
 1989SOL    HW1 6348   0.765   3.641   1.037  0.3753 -0.0293 -0.0181
 1989SOL    HW2 6349   0.858   3.554   0.955 -0.8029 -1.2738 -0.0371
 1990SOL     OW 6350   1.761   4.208   1.409 -0.0002  0.4736 -0.6796
 1990SOL    HW1 6351   1.756   4.196   1.314  0.5867  2.4476 -0.9868
 1990SOL    HW2 6352   1.672   4.192   1.439 -0.6478  1.7530 -1.8281
 1991SOL     OW 6353   2.681   1.320   3.277  0.6644  0.0712 -0.0495
 1991SOL    HW1 6354   2.708   1.229   3.287 -0.2540 -0.0475  1.5660
 1991SOL    HW2 6355   2.632   1.322   3.195  1.7449 -0.6216 -0.7227
 1992SOL     OW 6356   4.176   0.102   0.611 -0.6054 -0.3002  0.4312
 1992SOL    HW1 6357   4.136   0.037   0.669 -2.1480  2.1990  2.2652
 1992SOL    HW2 6358   4.267   0.107   0.641 -0.4780 -1.5553  0.2983
 1993SOL     OW 6359   5.793   1.918   5.217  0.2793  0.1774  0.1329
 1993SOL    HW1 6360   5.858   1.860   5.176  0.1034  0.2717 -0.2843
 1993SOL    HW2 6361   5.842   1.964   5.285  0.9864  1.2219 -1.0607
 1994SOL     OW 6362   4.139   1.130   0.935  0.2484 -0.0197 -0.3831
 1994SOL    HW1 6363   4.148   1.144   0.841  0.8534 -0.1156 -0.3380
 1994SOL    HW2 6364   4.229   1.127   0.968  0.0654 -1.0650  0.0375
 1995SOL     OW 6365   2.414   0.274   3.330  0.2578 -0.6740 -0.3662
 1995SOL    HW1 6366   2.406   0.280   3.234 -0.5406 -1.7722 -0.3815
 1995SOL    HW2 6367   2.323   0.267   3.361  0.5082 -0.1855  0.4846
 1996SOL     OW 6368   5.164   1.563   5.776  0.3572 -0.0973  0.2387
 1996SOL    HW1 6369   5.073   1.534   5.764 -0.0146  1.8444 -2.0390
 1996SOL    HW2 6370   5.158   1.632   5.842 -0.1019  1.1483 -1.0655
 1997SOL     OW 6371   3.925   6.019   2.010  0.2773  1.1384 -0.2032
 1997SOL    HW1 6372   3.871   6.009   1.931  3.4648 -0.6654 -2.2293
 1997SOL    HW2 6373   3.890   5.953   2.071  1.2834 -1.2777 -2.1592
 1998SOL     OW 6374   4.009   1.755   5.548 -0.4150  0.4117  0.4064
 1998SOL    HW1 6375   4.097   1.744   5.585 -0.5074 -1.7622  0.0397
 1998SOL    HW2 6376   4.013   1.712   5.463 -0.8126  3.5649 -1.2750
 1999SOL     OW 6377   3.808   5.560   6.001 -0.2395 -0.0361 -0.1056
 1999SOL    HW1 6378   3.730   5.586   6.051  1.3885  1.0034  2.0104
 1999SOL    HW2 6379   3.807   5.617   5.924 -0.5161  1.3804  0.9161
 2000SOL     OW 6380   4.188   4.157   1.157 -0.3970  0.0278  0.4232
 2000SOL    HW1 6381   4.257   4.190   1.099  0.0794 -0.0126  0.9668
 2000SOL    HW2 6382   4.230   4.089   1.209 -0.0747  1.9308  2.7325
 2001SOL     OW 6383   2.190   5.277   6.179 -0.4458 -0.0398 -0.0552
 2001SOL    HW1 6384   2.166   5.339   6.248 -0.8392 -1.4527  1.1068
 2001SOL    HW2 6385   2.107   5.239   6.151 -0.2300  0.1162 -0.9222
 2002SOL     OW 6386   2.321   1.296   5.141 -0.2242  0.4785  0.0575
 2002SOL    HW1 6387   2.353   1.347   5.067 -1.8868 -2.0233 -2.4623
 2002SOL    HW2 6388   2.236   1.335   5.162 -0.0351  0.7832  0.2695
 2003SOL     OW 6389   2.785   0.661   6.171 -0.3164 -0.2622 -0.4294
 2003SOL    HW1 6390   2.807   0.707   6.090  0.8942  1.6970  0.9707
 2003SOL    HW2 6391   2.751   0.729   6.229  1.0667 -1.2047  1.5345
 2004SOL     OW 6392   4.392   6.352   5.602  0.1607  0.2128 -0.1718
 2004SOL    HW1 6393   4.396   6.401   5.519 -0.8618  1.9924  0.8073
 2004SOL    HW2 6394   4.480   6.358   5.638  0.2428  0.6467 -0.4479
 2005SOL     OW 6395   2.578   1.561   3.654 -0.0303  0.6529 -0.4267
 2005SOL    HW1 6396   2.560   1.654   3.667 -2.0520  0.1054  0.7728
 2005SOL    HW2 6397   2.541   1.541   3.568 -0.6123  0.7028 -0.1894
 2006SOL     OW 6398   0.837   0.564   5.615 -0.4332  0.1077  0.0469
 2006SOL    HW1 6399   0.814   0.512   5.538 -0.4622 -0.3866  0.3880
 2006SOL    HW2 6400   0.835   0.502   5.687 -0.4215  0.5749  0.4502
 2007SOL     OW 6401   0.990   1.842   1.928 -0.1480 -0.2828 -0.0288
 2007SOL    HW1 6402   0.972   1.753   1.957 -1.1764  0.3777  1.4556
 2007SOL    HW2 6403   1.086   1.848   1.924 -0.0722 -1.3491  0.1921
 2008SOL     OW 6404   5.932   0.437   1.621 -0.8138  0.0302 -0.1876
 2008SOL    HW1 6405   5.921   0.355   1.573 -0.5413 -0.9509  1.4028
 2008SOL    HW2 6406   5.864   0.433   1.689 -0.3093  0.7807  0.3585
 2009SOL     OW 6407   1.650   0.493   3.006  0.0498  0.2657 -0.0804
 2009SOL    HW1 6408   1.709   0.469   3.076  0.9618  1.9313 -0.2377
 2009SOL    HW2 6409   1.589   0.555   3.046  0.1078  0.6429 -0.5610
 2010SOL     OW 6410   4.879   3.852   3.277 -0.4728 -0.4534 -0.4096
 2010SOL    HW1 6411   4.867   3.882   3.367 -1.1998  0.2985 -0.7578
 2010SOL    HW2 6412   4.791   3.847   3.241 -0.1200  0.2018 -1.3896
 2011SOL     OW 6413   3.201   4.488   0.056 -0.1810  0.5697 -0.0060
 2011SOL    HW1 6414   3.260   4.558   0.083  0.8487  1.2438 -3.7037
 2011SOL    HW2 6415   3.260   4.416   0.030 -1.1231 -0.3861  0.4841
 2012SOL     OW 6416   4.550   2.843   0.291 -0.5695  0.4497 -0.0182
 2012SOL    HW1 6417   4.519   2.904   0.223 -1.0773  1.1742  0.8494
 2012SOL    HW2 6418   4.526   2.885   0.373  0.2980 -0.2877  0.6227
 2013SOL     OW 6419   4.019   5.546   0.013 -0.0426  0.0332 -0.2374
 2013SOL    HW1 6420   3.968   5.580   0.086 -0.1363 -0.8765  0.1228
 2013SOL    HW2 6421   4.032   5.622  -0.044  3.0181  1.6233  2.3950
 2014SOL     OW 6422   3.962   1.306   5.478  0.1050 -0.0663 -0.3309
 2014SOL    HW1 6423   3.908   1.340   5.406 -0.1521  1.8622  0.7408
 2014SOL    HW2 6424   3.905   1.244   5.523 -0.5459  0.4674 -0.4108
 2015SOL     OW 6425   0.893   3.486   3.089  0.5461  0.3310 -0.0870
 2015SOL    HW1 6426   0.824   3.450   3.034 -0.1284  1.0738  0.2636
 2015SOL    HW2 6427   0.850   3.504   3.173  1.6099 -0.9983  0.7576
 2016SOL     OW 6428   3.737   6.195   4.928  0.2194 -0.3988 -0.2538
 2016SOL    HW1 6429   3.743   6.247   4.848  0.1652 -1.3694 -0.9004
 2016SOL    HW2 6430   3.643   6.187   4.945  0.2877  2.0586  1.4135
 2017SOL     OW 6431   5.819   1.347   6.199  0.0790  0.9483 -0.3607
 2017SOL    HW1 6432   5.770   1.299   6.265  0.8999 -1.5373 -1.5300
 2017SOL    HW2 6433   5.763   1.348   6.122  1.1310 -0.4505 -1.1656
 2018SOL     OW 6434   5.529   2.162   5.157 -0.4408 -0.4344 -0.3736
 2018SOL    HW1 6435   5.586   2.105   5.208 -0.5983 -0.1942  0.0698
 2018SOL    HW2 6436   5.579   2.243   5.145 -1.2009  0.2812  1.1592
 2019SOL     OW 6437   0.217   1.226   5.824  0.3412 -0.3132 -0.3633
 2019SOL    HW1 6438   0.155   1.198   5.890 -0.9631 -1.3218 -1.9778
 2019SOL    HW2 6439   0.177   1.302   5.783  0.1946 -0.8910 -1.3239
 2020SOL     OW 6440   2.481   0.215   0.975 -0.3861 -0.2946  0.3510
 2020SOL    HW1 6441   2.504   0.197   1.066 -0.5959  0.2947  0.5244
 2020SOL    HW2 6442   2.503   0.307   0.963 -1.8622  0.0644  0.2751
 2021SOL     OW 6443   3.275   2.242   1.425 -0.3681 -0.4759  0.5563
 2021SOL    HW1 6444   3.213   2.262   1.355 -0.7572  0.2296  1.0928
 2021SOL    HW2 6445   3.299   2.328   1.460  2.4935 -0.5970 -0.9786
 2022SOL     OW 6446   1.757   2.488   1.277  0.1949  0.5144  0.4783
 2022SOL    HW1 6447   1.816   2.517   1.207  1.2456  0.1355  1.1777
 2022SOL    HW2 6448   1.787   2.535   1.355 -0.6078  0.5171  0.7891
 2023SOL     OW 6449   3.374   3.627   3.693  0.2015 -0.3737  0.2142
 2023SOL    HW1 6450   3.363   3.722   3.693  0.4344 -0.3343  1.5020
 2023SOL    HW2 6451   3.386   3.604   3.601  1.2054  0.9741 -0.0103
 2024SOL     OW 6452   4.806   4.719   2.914 -0.4031  0.2633  0.0679
 2024SOL    HW1 6453   4.892   4.678   2.908 -1.2743 -1.3001 -2.7909
 2024SOL    HW2 6454   4.782   4.737   2.823 -2.2847  2.4357  0.9462
 2025SOL     OW 6455   1.090   0.173   5.405 -0.0718 -0.3197  0.0694
 2025SOL    HW1 6456   1.078   0.111   5.477 -2.3207  0.3601  0.3167
 2025SOL    HW2 6457   1.116   0.119   5.331  0.0743 -1.3089  0.8364
 2026SOL     OW 6458   0.005   0.535   5.808 -0.4393  0.2878 -0.0193
 2026SOL    HW1 6459   0.050   0.494   5.734  0.2389  2.9686 -1.1290
 2026SOL    HW2 6460  -0.075   0.570   5.771 -1.1878 -0.3199  1.0029
 2027SOL     OW 6461   5.055   0.951   3.744  0.8999 -0.1442 -0.3742
 2027SOL    HW1 6462   4.995   0.950   3.670 -1.2045 -1.2547  1.2761
 2027SOL    HW2 6463   5.112   1.026   3.728 -0.6201  0.6565 -2.2240
 2028SOL     OW 6464   5.182   4.166   5.725  0.2844  0.1384 -0.4103
 2028SOL    HW1 6465   5.200   4.255   5.695  1.2200  0.6340  1.5223
 2028SOL    HW2 6466   5.117   4.132   5.663  0.4769  1.8958 -1.6055
 2029SOL     OW 6467   3.431   4.090   0.367  0.5172 -0.7962 -0.1558
 2029SOL    HW1 6468   3.441   4.011   0.314 -2.8914 -0.6723 -1.0727
 2029SOL    HW2 6469   3.477   4.158   0.318 -1.3257 -1.0012 -2.2280
 2030SOL     OW 6470   1.391   6.215   2.234 -0.2639  0.1814  0.0018
 2030SOL    HW1 6471   1.368   6.199   2.325  1.7814 -0.0193  0.5045
 2030SOL    HW2 6472   1.326   6.165   2.184 -0.6287 -0.7340  1.3623
 2031SOL     OW 6473   3.883   3.197   0.519 -0.0260 -0.0849  0.1454
 2031SOL    HW1 6474   3.855   3.266   0.459 -0.6434 -0.9313 -0.5541
 2031SOL    HW2 6475   3.845   3.221   0.603 -0.5072  0.2627 -0.1693
 2032SOL     OW 6476   6.147   2.887   0.758 -0.3004 -0.2717  0.3590
 2032SOL    HW1 6477   6.062   2.844   0.760  0.1811 -1.3032 -0.8191
 2032SOL    HW2 6478   6.128   2.977   0.731 -1.0347 -0.4386  0.3127
 2033SOL     OW 6479   5.266   5.799   0.627  0.1830 -0.2310 -0.3170
 2033SOL    HW1 6480   5.256   5.749   0.546  0.6355  0.4039 -0.7676
 2033SOL    HW2 6481   5.279   5.733   0.695  1.9385 -0.7103 -1.0751
 2034SOL     OW 6482   1.211   4.173   2.023 -0.3625 -0.0900  0.0092
 2034SOL    HW1 6483   1.141   4.111   2.000  0.3010 -1.0090  0.4466
 2034SOL    HW2 6484   1.291   4.122   2.017  0.0192  0.2209  2.1734
 2035SOL     OW 6485   6.155   3.863   4.222 -0.2293  0.3848  0.3716
 2035SOL    HW1 6486   6.089   3.932   4.217  0.1813  0.8372  1.0730
 2035SOL    HW2 6487   6.184   3.851   4.131 -0.2018  1.2352  0.2642
 2036SOL     OW 6488   5.815   3.992   2.283  0.2664 -0.4816  0.4030
 2036SOL    HW1 6489   5.768   4.056   2.230 -1.1020 -1.0751  0.8784
 2036SOL    HW2 6490   5.880   4.043   2.331 -0.5785  0.5000  0.5131
 2037SOL     OW 6491   2.891   1.450   0.064  0.0857  0.0250 -0.0070
 2037SOL    HW1 6492   2.824   1.489   0.121  1.2589  1.6345  0.2824
 2037SOL    HW2 6493   2.893   1.358   0.090 -0.8861  0.2994  1.0868
 2038SOL     OW 6494   3.512   2.539   4.620  0.5739  0.3471  0.1616
 2038SOL    HW1 6495   3.507   2.596   4.697 -1.1723 -0.0669  0.3825
 2038SOL    HW2 6496   3.532   2.599   4.548 -0.8360  1.2025  0.4532
 2039SOL     OW 6497   3.833   0.461   2.643  0.2737  0.5559  0.0257
 2039SOL    HW1 6498   3.813   0.535   2.585 -1.0384  1.8996  2.1457
 2039SOL    HW2 6499   3.866   0.393   2.584 -0.6427  2.0299 -2.2573
 2040SOL     OW 6500   4.113   0.400   5.656  0.0168 -0.0841  0.1244
 2040SOL    HW1 6501   4.150   0.327   5.705  0.2712 -0.3320 -0.4423
 2040SOL    HW2 6502   4.019   0.383   5.654  0.0563 -0.3066  0.1441
 2041SOL     OW 6503   0.038   6.007   1.798  0.1412  0.2189 -0.1011
 2041SOL    HW1 6504   0.001   5.961   1.723  0.2065 -0.3817  0.2369
 2041SOL    HW2 6505  -0.038   6.038   1.847  0.0984  0.9827 -0.6391
 2042SOL     OW 6506   2.343   2.140   1.783 -0.3645 -0.5545 -0.5926
 2042SOL    HW1 6507   2.415   2.087   1.746  1.5968  0.8572  1.0960
 2042SOL    HW2 6508   2.315   2.091   1.860 -0.6466 -0.6787 -0.7743
 2043SOL     OW 6509   3.629   3.199   6.282  0.7499 -0.3214 -0.6057
 2043SOL    HW1 6510   3.659   3.191   6.373  2.4985  2.0352 -0.9041
 2043SOL    HW2 6511   3.707   3.178   6.230  1.1340  2.9550 -1.4535
 2044SOL     OW 6512   0.608   2.711   5.523 -0.2566 -0.2325  0.2539
 2044SOL    HW1 6513   0.638   2.789   5.571 -0.5873 -1.1651  2.0128
 2044SOL    HW2 6514   0.522   2.692   5.561 -0.9263 -0.4573 -1.3666
 2045SOL     OW 6515   2.346   5.077   1.450  0.6527  0.5742  0.4031
 2045SOL    HW1 6516   2.276   5.013   1.431  0.5855  0.5753  0.6524
 2045SOL    HW2 6517   2.405   5.069   1.375  1.0107 -0.2776  0.7723
 2046SOL     OW 6518   6.074   1.420   1.364 -0.0134 -0.5004 -0.5117
 2046SOL    HW1 6519   6.151   1.450   1.315  0.5672 -0.0924  0.6334
 2046SOL    HW2 6520   6.064   1.485   1.433 -1.6591 -0.3133 -0.9166
 2047SOL     OW 6521   0.458   3.194   2.191  0.0334 -0.0466 -0.2713
 2047SOL    HW1 6522   0.382   3.252   2.195 -0.6906 -0.9265 -1.0102
 2047SOL    HW2 6523   0.524   3.237   2.245 -0.7230  1.1236 -0.2582
 2048SOL     OW 6524   3.652   4.331   2.950 -0.7153 -0.8188 -0.1017
 2048SOL    HW1 6525   3.672   4.256   3.006 -1.5645 -0.6733  0.4126
 2048SOL    HW2 6526   3.570   4.366   2.986  0.5298  1.3659  0.7483
 2049SOL     OW 6527   5.405   2.974   3.804  0.4933 -0.8672 -0.2177
 2049SOL    HW1 6528   5.415   3.065   3.775  1.1614 -1.1095 -0.7819
 2049SOL    HW2 6529   5.335   2.977   3.869  0.7537  0.1063  0.0286
 2050SOL     OW 6530   5.947   1.393   1.948  0.4459 -0.0119  0.3132
 2050SOL    HW1 6531   5.933   1.319   1.888  1.9405 -0.7946  0.9050
 2050SOL    HW2 6532   5.945   1.353   2.035 -0.1953  0.8849  0.7135
 2051SOL     OW 6533   2.973   6.316   4.161 -0.1091 -0.2967 -0.3018
 2051SOL    HW1 6534   3.015   6.238   4.197  0.8623  1.8278  3.5078
 2051SOL    HW2 6535   2.881   6.307   4.184 -0.3885 -1.2936 -1.7598
 2052SOL     OW 6536   2.675   3.990   0.939  0.2493 -0.5228  0.6955
 2052SOL    HW1 6537   2.687   4.003   1.033  1.3213 -4.2419  1.1394
 2052SOL    HW2 6538   2.584   3.965   0.929 -1.1280  4.1933  0.1198
 2053SOL     OW 6539   0.148   6.338   3.091  0.2672  0.4162  0.0696
 2053SOL    HW1 6540   0.095   6.403   3.045  1.0587 -0.3911 -2.0564
 2053SOL    HW2 6541   0.238   6.372   3.086  0.2758  0.6258  1.5766
 2054SOL     OW 6542   3.448   6.070   5.708 -0.1239 -0.3670 -0.3386
 2054SOL    HW1 6543   3.357   6.044   5.723  0.1569 -1.5734 -0.6759
 2054SOL    HW2 6544   3.499   6.012   5.764  0.4959 -0.2255 -0.7566
 2055SOL     OW 6545   0.793   0.199   0.866  0.4506  0.2167 -0.0562
 2055SOL    HW1 6546   0.754   0.265   0.809  2.5405  1.8387  0.3551
 2055SOL    HW2 6547   0.749   0.118   0.842 -1.1589  1.4932 -1.5453
 2056SOL     OW 6548   4.904   5.827   2.828  0.5378  0.7303 -0.0860
 2056SOL    HW1 6549   4.942   5.754   2.780 -0.0862  0.3391  0.0052
 2056SOL    HW2 6550   4.936   5.817   2.918  1.1214  1.0502 -0.2519
 2057SOL     OW 6551   5.040   4.036   1.974  0.0614 -0.0738  0.5765
 2057SOL    HW1 6552   5.070   4.059   2.062  2.0090  2.2102 -0.6388
 2057SOL    HW2 6553   4.965   4.093   1.958 -1.8829 -2.2226  1.6409
 2058SOL     OW 6554   1.871   0.768   2.053  0.6230 -0.2334 -0.9398
 2058SOL    HW1 6555   1.837   0.679   2.058  1.5174 -0.5306  0.3523
 2058SOL    HW2 6556   1.966   0.758   2.065  0.3200  1.2169  3.6397
 2059SOL     OW 6557   1.075   5.152   1.621  0.0182  0.1981  0.1644
 2059SOL    HW1 6558   1.110   5.097   1.551  0.0016 -0.7965  0.9279
 2059SOL    HW2 6559   1.099   5.106   1.701 -0.0440  1.2861  0.8055
 2060SOL     OW 6560   0.130   1.807   0.139  0.6294  0.3657 -0.2386
 2060SOL    HW1 6561   0.083   1.867   0.082 -0.1348  0.1363  0.1544
 2060SOL    HW2 6562   0.195   1.862   0.184  0.6486  0.6996 -0.6711
 2061SOL     OW 6563   0.116   1.843   1.618  0.0325  0.4558  0.2559
 2061SOL    HW1 6564   0.189   1.790   1.587  0.3693 -0.5782  2.7718
 2061SOL    HW2 6565   0.067   1.865   1.538  0.8711 -2.1472 -1.0130
 2062SOL     OW 6566   3.631   4.158   5.493  0.0274 -0.4387 -0.1044
 2062SOL    HW1 6567   3.672   4.227   5.544 -2.7055 -0.0101  1.6422
 2062SOL    HW2 6568   3.560   4.201   5.446 -0.7748 -1.7731 -0.1631
 2063SOL     OW 6569   6.152   5.133   2.168 -0.3009 -0.2894 -0.0590
 2063SOL    HW1 6570   6.098   5.055   2.159  0.1726 -0.8267  1.6225
 2063SOL    HW2 6571   6.240   5.101   2.186  0.0296  0.6284  0.0124
 2064SOL     OW 6572   3.381   1.398   4.995 -0.3041  0.0926  0.3020
 2064SOL    HW1 6573   3.293   1.412   4.961 -0.6055  0.9734  1.4048
 2064SOL    HW2 6574   3.368   1.352   5.078  0.2568  0.3384  0.5296
 2065SOL     OW 6575   5.760   4.471   1.871  0.0596 -0.2848 -0.5885
 2065SOL    HW1 6576   5.694   4.409   1.841 -0.6218 -0.1920  0.6918
 2065SOL    HW2 6577   5.841   4.420   1.874  0.1565 -0.2902 -2.5743
 2066SOL     OW 6578   1.385   4.845   1.999  0.3288  0.0227 -0.6271
 2066SOL    HW1 6579   1.388   4.781   1.927  1.5947  0.0969 -0.6448
 2066SOL    HW2 6580   1.462   4.825   2.052  0.4926  1.2615 -0.3906
 2067SOL     OW 6581   4.888   3.328   1.140 -0.3130 -0.1897  0.5808
 2067SOL    HW1 6582   4.851   3.416   1.145  0.4863  0.1791  0.1199
 2067SOL    HW2 6583   4.812   3.271   1.124 -0.4154  0.8275 -2.8305
 2068SOL     OW 6584   5.729   3.010   1.593  0.7152  1.0191  0.8038
 2068SOL    HW1 6585   5.710   2.967   1.676  1.5489  0.9067  0.9442
 2068SOL    HW2 6586   5.656   2.987   1.536  0.6596  0.2465  1.1891
 2069SOL     OW 6587   2.374   5.428   0.522 -0.9042  0.1558 -0.2578
 2069SOL    HW1 6588   2.403   5.338   0.504  0.0945 -0.2046  2.8931
 2069SOL    HW2 6589   2.450   5.482   0.504 -0.8789  0.1445 -0.1843
 2070SOL     OW 6590   3.345   2.494   5.091  0.4728 -0.1556  0.1287
 2070SOL    HW1 6591   3.271   2.536   5.136  1.2749 -0.3569  1.6676
 2070SOL    HW2 6592   3.310   2.470   5.005 -1.5455 -1.0758  1.1609
 2071SOL     OW 6593   2.678   4.508   6.116  0.5429  0.1868  0.3217
 2071SOL    HW1 6594   2.626   4.582   6.148  0.4889  0.0918  0.4538
 2071SOL    HW2 6595   2.622   4.432   6.127  0.4807  0.1656 -0.1020
 2072SOL     OW 6596   4.593   2.921   0.949 -0.0692  0.6296 -0.5466
 2072SOL    HW1 6597   4.685   2.897   0.942 -0.0276  0.1991  1.0598
 2072SOL    HW2 6598   4.549   2.871   0.881  0.3832 -2.1038  1.1118
 2073SOL     OW 6599   4.900   6.294   1.053 -0.1110 -0.1411  0.0534
 2073SOL    HW1 6600   4.826   6.353   1.040  1.2967  1.6595  0.0695
 2073SOL    HW2 6601   4.933   6.315   1.140  0.4535 -0.9128  0.0347
 2074SOL     OW 6602   2.506   0.852   2.134  0.4608 -0.3868  0.2495
 2074SOL    HW1 6603   2.564   0.878   2.205  0.3931 -0.1985  0.2379
 2074SOL    HW2 6604   2.551   0.880   2.054 -0.2016  0.8608  0.3032
 2075SOL     OW 6605   4.967   2.568   1.737 -0.0244  0.3343 -0.0943
 2075SOL    HW1 6606   4.980   2.494   1.795 -0.9398 -0.2004 -0.5522
 2075SOL    HW2 6607   4.951   2.642   1.795  1.1790  0.2376  0.3691
 2076SOL     OW 6608   4.247   5.665   4.084 -0.2279  0.0461 -0.0407
 2076SOL    HW1 6609   4.216   5.704   4.166 -0.9014 -1.4112  0.4030
 2076SOL    HW2 6610   4.198   5.712   4.016 -0.8201  0.1761  0.4717
 2077SOL     OW 6611   4.812   5.820   0.477  0.0055 -0.2824  0.0929
 2077SOL    HW1 6612   4.831   5.803   0.385  1.1140 -1.9139  0.6076
 2077SOL    HW2 6613   4.759   5.746   0.505 -2.3499  1.4025  0.1716
 2078SOL     OW 6614   6.268   5.128   0.039 -0.6080 -1.1031  0.3584
 2078SOL    HW1 6615   6.200   5.186   0.074  1.5165  0.3083  2.3550
 2078SOL    HW2 6616   6.311   5.093   0.117  2.9877  0.5385 -0.7485
 2079SOL     OW 6617   5.088   1.050   4.658  0.2197  0.0604  0.1891
 2079SOL    HW1 6618   5.140   1.016   4.731 -0.7110 -0.8502  0.4296
 2079SOL    HW2 6619   5.066   1.139   4.684  0.3255 -0.0866  0.7909
 2080SOL     OW 6620   3.310   1.000   0.316 -0.8963 -0.1345  0.1165
 2080SOL    HW1 6621   3.279   0.997   0.406 -0.5122 -0.8023  0.2243
 2080SOL    HW2 6622   3.387   0.944   0.314  0.3220  1.5104 -0.1696
 2081SOL     OW 6623   1.650   3.263   3.425  0.0889  0.1894 -0.5710
 2081SOL    HW1 6624   1.649   3.185   3.369 -3.3882  0.3048 -0.7926
 2081SOL    HW2 6625   1.564   3.304   3.410 -0.3475  1.0372  3.6674
 2082SOL     OW 6626   0.010   5.182   3.240  0.3660 -0.1130 -0.1674
 2082SOL    HW1 6627   0.011   5.271   3.275 -1.6174 -0.8107  1.8082
 2082SOL    HW2 6628   0.039   5.191   3.149 -0.3076  2.6210 -0.1605
 2083SOL     OW 6629   4.489   3.421   1.074  0.0756 -0.0728  0.7222
 2083SOL    HW1 6630   4.531   3.475   1.141 -0.9534 -0.3069  1.5630
 2083SOL    HW2 6631   4.527   3.334   1.087 -0.4230 -0.2096  1.2682
 2084SOL     OW 6632   6.099   0.149   5.728 -0.1383  0.0971  0.6121
 2084SOL    HW1 6633   6.185   0.182   5.755  0.2385  0.1290 -0.5621
 2084SOL    HW2 6634   6.037   0.212   5.764  0.3986  0.6153  0.6463
 2085SOL     OW 6635   5.149   1.898   6.135  0.3387 -0.2686  0.4787
 2085SOL    HW1 6636   5.106   1.916   6.218  1.2175  0.1564  0.8462
 2085SOL    HW2 6637   5.212   1.828   6.155 -1.3438 -2.0970 -0.4150
 2086SOL     OW 6638   2.403   1.039   5.302 -0.4824  0.2548 -0.0675
 2086SOL    HW1 6639   2.485   1.066   5.344  0.1127  0.5935 -1.4131
 2086SOL    HW2 6640   2.358   1.121   5.283 -0.4041  0.1361 -0.7623
 2087SOL     OW 6641   5.832   5.414   6.370 -0.3845 -0.2404  0.2507
 2087SOL    HW1 6642   5.754   5.463   6.394  0.9619  1.1280  1.9741
 2087SOL    HW2 6643   5.883   5.474   6.315 -0.5056 -1.1048 -0.8226
 2088SOL     OW 6644   1.348   3.540   2.214 -0.1003 -0.2851  0.0013
 2088SOL    HW1 6645   1.380   3.468   2.160 -2.5118 -1.0763 -0.4369
 2088SOL    HW2 6646   1.377   3.518   2.303 -0.6470 -1.7150 -0.1605
 2089SOL     OW 6647   1.205   0.749   5.266  0.2000 -0.0225 -0.0977
 2089SOL    HW1 6648   1.128   0.755   5.210  0.6030 -0.4342 -0.7079
 2089SOL    HW2 6649   1.262   0.819   5.235 -0.0554  0.4790  0.5559
 2090SOL     OW 6650   4.122   5.800   4.943  0.0400  0.6776 -0.4267
 2090SOL    HW1 6651   4.059   5.816   5.013 -0.3648 -2.8482  0.1176
 2090SOL    HW2 6652   4.204   5.781   4.989  0.0832 -0.4051 -0.9403
 2091SOL     OW 6653   0.329   0.278   0.106 -0.2145 -0.2594  0.3099
 2091SOL    HW1 6654   0.244   0.237   0.089 -1.1518  0.0675  3.8909
 2091SOL    HW2 6655   0.351   0.252   0.195  2.7596  0.8774 -0.0532
 2092SOL     OW 6656   2.048   5.823   3.792  0.1724 -0.6811  0.0054
 2092SOL    HW1 6657   2.023   5.789   3.878 -2.6713 -1.5503 -1.1245
 2092SOL    HW2 6658   1.965   5.834   3.745  1.7312 -1.0015 -2.9326
 2093SOL     OW 6659   4.164   3.771   6.007 -0.2400  0.5110  0.1311
 2093SOL    HW1 6660   4.111   3.850   5.998 -2.0580 -0.5401  1.0158
 2093SOL    HW2 6661   4.120   3.721   6.077  0.0120 -1.9015 -1.3648
 2094SOL     OW 6662   2.560   2.741   6.311 -0.1592  0.3954  0.7416
 2094SOL    HW1 6663   2.622   2.787   6.255 -0.0507  1.2472  1.5363
 2094SOL    HW2 6664   2.613   2.677   6.359  0.0022  0.6899  0.9584
 2095SOL     OW 6665   5.033   1.794   5.925  0.0580 -1.0248 -0.0528
 2095SOL    HW1 6666   5.107   1.824   5.978 -0.6251  1.2319 -0.2910
 2095SOL    HW2 6667   4.957   1.803   5.982 -0.4759 -0.0559 -0.8896
 2096SOL     OW 6668   5.383   4.929   4.391  0.3147  0.2941 -0.0622
 2096SOL    HW1 6669   5.465   4.974   4.371  1.0854 -0.9163  0.3055
 2096SOL    HW2 6670   5.315   4.984   4.352  1.2631  1.5356 -0.0074
 2097SOL     OW 6671   4.414   1.663   3.520 -0.0034  0.2219  0.4147
 2097SOL    HW1 6672   4.409   1.606   3.597  1.3142 -0.3093  0.1112
 2097SOL    HW2 6673   4.333   1.645   3.472  0.0723 -0.8731  0.6789
 2098SOL     OW 6674   6.070   2.508   4.337 -0.3714  0.6513 -0.7859
 2098SOL    HW1 6675   5.974   2.504   4.343 -0.3404  0.5525 -0.3088
 2098SOL    HW2 6676   6.097   2.416   4.339 -0.2279  0.7046 -0.2378
 2099SOL     OW 6677   3.252   1.105   4.685  0.0989  0.6948 -0.0806
 2099SOL    HW1 6678   3.208   1.029   4.724  1.9791  0.2969  1.3204
 2099SOL    HW2 6679   3.185   1.173   4.683 -0.6825  0.0184  1.7672
 2100SOL     OW 6680   0.618   2.099   2.006  0.0530 -0.1565 -0.5776
 2100SOL    HW1 6681   0.604   2.149   2.087  1.0402  0.4743 -0.7849
 2100SOL    HW2 6682   0.535   2.054   1.990 -0.1865 -0.1985  0.7304
 2101SOL     OW 6683   2.037   2.467   6.125 -0.0674 -0.5411 -0.3008
 2101SOL    HW1 6684   2.044   2.561   6.107  1.4530 -0.7050 -0.5997
 2101SOL    HW2 6685   1.963   2.460   6.186  0.6990  0.9958  0.8342
 2102SOL     OW 6686   5.466   6.002   3.118  0.3322 -0.0839 -0.1819
 2102SOL    HW1 6687   5.521   6.077   3.140  0.1792 -0.4529  1.5355
 2102SOL    HW2 6688   5.483   5.939   3.188 -2.5336 -0.0464  0.6246
 2103SOL     OW 6689   0.036   6.362   1.057 -0.1391 -0.5335  0.1634
 2103SOL    HW1 6690   0.108   6.322   1.008 -1.1510 -1.1085 -0.8648
 2103SOL    HW2 6691  -0.011   6.288   1.095 -1.0711 -0.2578 -0.4169
 2104SOL     OW 6692   0.530   3.677   0.619 -0.3742 -0.0199  0.0398
 2104SOL    HW1 6693   0.562   3.690   0.530 -1.7174  0.6200 -0.3675
 2104SOL    HW2 6694   0.526   3.582   0.630  3.7371 -0.1866  0.9081
 2105SOL     OW 6695   2.495   4.912   5.981  0.3198 -0.4023  0.6337
 2105SOL    HW1 6696   2.523   5.002   6.000  0.7883 -0.0723 -1.4721
 2105SOL    HW2 6697   2.400   4.919   5.970  0.6371  0.3703 -2.0875
 2106SOL     OW 6698   1.098   0.717   1.669  0.2177  0.5013 -0.2842
 2106SOL    HW1 6699   1.021   0.683   1.714  1.7034 -1.5147  0.8249
 2106SOL    HW2 6700   1.094   0.811   1.683 -1.8928  0.4113 -0.0324
 2107SOL     OW 6701   1.065   2.445   1.167  0.3928  1.0977 -0.7581
 2107SOL    HW1 6702   1.145   2.457   1.116  2.4068  0.3130  2.1167
 2107SOL    HW2 6703   1.061   2.522   1.224  0.3834 -0.0071  0.7512
 2108SOL     OW 6704   6.009   4.396   2.788 -0.0773 -0.0588 -0.2699
 2108SOL    HW1 6705   6.082   4.359   2.837 -0.4424  0.7710  0.9173
 2108SOL    HW2 6706   6.046   4.471   2.742  0.0312 -0.1996 -0.4107
 2109SOL     OW 6707   4.735   5.206   2.671 -0.2325  0.1942  0.6973
 2109SOL    HW1 6708   4.646   5.238   2.686 -0.3796  0.1533 -0.0438
 2109SOL    HW2 6709   4.788   5.249   2.738 -0.6867  0.7860  0.6803
 2110SOL     OW 6710   2.649   4.067   2.490 -0.6986 -0.0002  0.1325
 2110SOL    HW1 6711   2.567   4.096   2.530 -0.0545  1.6107  0.3166
 2110SOL    HW2 6712   2.716   4.088   2.556  0.1623  1.1064 -1.0752
 2111SOL     OW 6713   2.577   1.253   6.226 -0.2693 -0.3766  0.5166
 2111SOL    HW1 6714   2.641   1.261   6.155 -1.3738 -0.8998 -0.5714
 2111SOL    HW2 6715   2.628   1.225   6.302  0.9538  0.3238 -0.0388
 2112SOL     OW 6716   3.042   2.827   0.680  0.5910 -0.3926 -0.1463
 2112SOL    HW1 6717   3.032   2.736   0.707  0.6007 -0.1750  0.6069
 2112SOL    HW2 6718   2.997   2.833   0.596 -1.8438 -0.4315  1.1246
 2113SOL     OW 6719   3.543   1.046   1.819  0.6812 -0.1057 -0.2674
 2113SOL    HW1 6720   3.619   1.105   1.815  0.8129 -0.2913 -0.4760
 2113SOL    HW2 6721   3.532   1.028   1.913 -0.1231  1.2426 -0.0864
 2114SOL     OW 6722   5.362   3.167   1.654  0.7655 -0.4611 -0.2457
 2114SOL    HW1 6723   5.316   3.224   1.592  2.1465 -0.5599 -1.3769
 2114SOL    HW2 6724   5.448   3.207   1.663  1.3060 -1.6531 -0.0580
 2115SOL     OW 6725   5.293   2.831   6.293  0.5978 -0.0429 -0.4966
 2115SOL    HW1 6726   5.369   2.859   6.343  1.1451  0.7986 -1.7882
 2115SOL    HW2 6727   5.319   2.840   6.201 -0.5492 -1.1313 -0.9528
 2116SOL     OW 6728   6.202   6.156   2.907  0.0742 -0.1757 -0.4467
 2116SOL    HW1 6729   6.295   6.160   2.883  0.2644 -0.6526  0.2016
 2116SOL    HW2 6730   6.157   6.144   2.823  0.6121 -0.1397 -0.7463
 2117SOL     OW 6731   5.017   5.400   5.382 -0.2359 -0.7156  0.4357
 2117SOL    HW1 6732   4.982   5.314   5.405 -0.1022 -1.0964 -0.7531
 2117SOL    HW2 6733   5.065   5.428   5.460 -1.0183 -1.3325  1.1441
 2118SOL     OW 6734   1.484   1.149   4.560  0.0184  0.0771  0.1418
 2118SOL    HW1 6735   1.566   1.111   4.529 -0.1258  1.1276 -1.6015
 2118SOL    HW2 6736   1.486   1.239   4.528 -2.3969 -0.2579 -1.0878
 2119SOL     OW 6737   5.873   3.682   1.564  0.1261 -0.2180  0.1426
 2119SOL    HW1 6738   5.793   3.636   1.540  0.5880 -0.8404 -0.2279
 2119SOL    HW2 6739   5.899   3.728   1.485 -0.4728  0.8983  0.5862
 2120SOL     OW 6740   1.889   1.322   2.036 -0.0068 -1.0440 -0.4729
 2120SOL    HW1 6741   1.965   1.368   2.002  0.3713  1.0193  2.9290
 2120SOL    HW2 6742   1.922   1.235   2.059  0.3598 -1.5024 -2.7060
 2121SOL     OW 6743   4.515   2.953   0.523  0.0791  0.5204 -0.3750
 2121SOL    HW1 6744   4.516   3.038   0.565  0.6748  1.0747 -1.4865
 2121SOL    HW2 6745   4.520   2.890   0.595  0.8926  1.4401  0.3797
 2122SOL     OW 6746   5.232   1.999   1.008 -0.4217  0.6671  0.1997
 2122SOL    HW1 6747   5.278   1.915   1.018 -1.3590  0.1985  0.6456
 2122SOL    HW2 6748   5.149   1.986   1.053  0.0076  2.3130  1.4889
 2123SOL     OW 6749   0.566   2.924   5.087 -0.1419 -0.1469  0.2283
 2123SOL    HW1 6750   0.556   2.845   5.139 -0.5989 -0.8872 -0.9512
 2123SOL    HW2 6751   0.611   2.895   5.008 -0.8546  0.6523 -0.4836
 2124SOL     OW 6752   4.715   3.343   3.722  0.4706  0.2569 -0.1350
 2124SOL    HW1 6753   4.701   3.410   3.655  1.5544  0.2936 -0.3338
 2124SOL    HW2 6754   4.809   3.346   3.739  0.3939 -0.6519  0.4505
 2125SOL     OW 6755   5.540   3.239   3.336 -0.1276 -0.0851 -0.2597
 2125SOL    HW1 6756   5.477   3.217   3.267 -0.8532  0.1150  0.3295
 2125SOL    HW2 6757   5.486   3.275   3.407  0.4684 -1.4522  0.9134
 2126SOL     OW 6758   3.273   1.036   1.740 -0.0851  0.1287 -0.0786
 2126SOL    HW1 6759   3.272   0.987   1.822  1.5503  0.0919 -0.0606
 2126SOL    HW2 6760   3.366   1.044   1.718 -0.2207  3.8872  0.3403
 2127SOL     OW 6761   2.033   1.703   5.598  0.0058  0.7655 -0.3214
 2127SOL    HW1 6762   1.973   1.776   5.582 -1.9161 -0.3771  1.5689
 2127SOL    HW2 6763   2.004   1.665   5.680  2.0486 -1.1274 -0.4272
 2128SOL     OW 6764   5.745   0.968   0.759 -0.5110 -0.0422  0.4585
 2128SOL    HW1 6765   5.764   0.900   0.822 -0.7580  0.9260  1.6013
 2128SOL    HW2 6766   5.784   1.047   0.796 -0.0200  0.3963 -0.9560
 2129SOL     OW 6767   5.117   3.082   2.348 -0.2706  0.8022  0.1601
 2129SOL    HW1 6768   5.106   3.123   2.261  0.7641  0.4031 -0.1654
 2129SOL    HW2 6769   5.038   3.031   2.360  0.8969 -1.6090 -1.9127
 2130SOL     OW 6770   3.474   2.894   2.192 -0.5075  0.2356  0.6196
 2130SOL    HW1 6771   3.497   2.985   2.210 -1.7437  0.3607  1.6143
 2130SOL    HW2 6772   3.555   2.846   2.208  0.0471  1.1065  0.4834
 2131SOL     OW 6773   3.923   0.076   3.701  0.0463  0.2146 -0.3588
 2131SOL    HW1 6774   3.898   0.013   3.634 -2.5702 -0.1726  0.9010
 2131SOL    HW2 6775   3.972   0.024   3.766  0.1607  0.0267 -0.5955
 2132SOL     OW 6776   0.971   5.840   6.352 -0.0783  0.5272  0.3802
 2132SOL    HW1 6777   0.974   5.798   6.266  0.4407  0.8773  0.2260
 2132SOL    HW2 6778   0.883   5.878   6.356 -0.4868 -0.4094  0.4453
 2133SOL     OW 6779   2.219   2.812   5.055  0.5422 -0.6564 -0.2233
 2133SOL    HW1 6780   2.133   2.833   5.091  1.1140  1.1196  0.1622
 2133SOL    HW2 6781   2.233   2.720   5.080 -0.4485 -0.4202  1.3196
 2134SOL     OW 6782   6.126   3.820   3.093 -0.2772 -0.0457  0.6235
 2134SOL    HW1 6783   6.101   3.904   3.133 -0.1751  0.1411  0.2988
 2134SOL    HW2 6784   6.063   3.807   3.023  0.4276  0.3444 -0.0869
 2135SOL     OW 6785   5.767   3.865   5.124  0.2614 -0.7884  0.6594
 2135SOL    HW1 6786   5.842   3.896   5.073 -2.7325  1.4916 -2.5886
 2135SOL    HW2 6787   5.746   3.779   5.087  0.2711 -0.7034  0.4567
 2136SOL     OW 6788   5.696   0.432   0.508 -0.6782 -0.2555  0.0555
 2136SOL    HW1 6789   5.696   0.353   0.455  1.5268  0.4685 -1.0901
 2136SOL    HW2 6790   5.674   0.402   0.596 -1.9256 -1.8197 -0.7723
 2137SOL     OW 6791   0.215   2.964   1.883 -0.0487 -0.0244  0.1112
 2137SOL    HW1 6792   0.222   2.904   1.958 -0.2176  0.0216  0.1654
 2137SOL    HW2 6793   0.140   3.020   1.905  0.8413  0.9898  0.6185
 2138SOL     OW 6794   4.065   2.016   2.064  0.1517 -0.4071  0.2189
 2138SOL    HW1 6795   3.970   2.006   2.061  0.0653  0.8006 -1.0866
 2138SOL    HW2 6796   4.085   2.031   2.157 -0.9872 -0.0910  0.4131
 2139SOL     OW 6797   5.185   1.261   0.910 -0.5106 -0.1162 -0.4478
 2139SOL    HW1 6798   5.236   1.231   0.985 -2.0250 -0.5386  0.4300
 2139SOL    HW2 6799   5.235   1.334   0.874  0.3201 -0.0425  0.8448
 2140SOL     OW 6800   2.524   0.278   2.893 -0.1445 -0.0867 -0.0609
 2140SOL    HW1 6801   2.609   0.269   2.937  0.2456 -0.3738 -0.8613
 2140SOL    HW2 6802   2.470   0.329   2.954 -0.0490 -1.6296  1.3668
 2141SOL     OW 6803   3.234   1.493   0.210  0.5416 -0.4232 -0.0733
 2141SOL    HW1 6804   3.253   1.569   0.155  0.1300  0.3148  0.7874
 2141SOL    HW2 6805   3.293   1.502   0.285  0.6516 -1.0752 -0.0825
 2142SOL     OW 6806   0.132   2.165   2.413  0.1290  0.3114 -0.2195
 2142SOL    HW1 6807   0.225   2.154   2.433  0.0382  0.8201  0.4927
 2142SOL    HW2 6808   0.128   2.160   2.317  0.6775 -1.2785 -0.1751
 2143SOL     OW 6809   2.892   3.838   5.533  0.0453  0.6954  0.0105
 2143SOL    HW1 6810   2.850   3.908   5.583  2.6573  2.1475  0.2960
 2143SOL    HW2 6811   2.949   3.794   5.597 -1.1317 -1.3506 -0.3040
 2144SOL     OW 6812   4.171   5.024   1.813 -0.6915  0.3192  0.3428
 2144SOL    HW1 6813   4.207   4.972   1.741  2.0465  0.4920  1.5322
 2144SOL    HW2 6814   4.149   4.960   1.880 -2.5629  0.2298 -0.3159
 2145SOL     OW 6815   3.313   2.365   0.176 -0.3387  0.7690  0.0091
 2145SOL    HW1 6816   3.267   2.439   0.215 -2.0119  0.0464 -0.5474
 2145SOL    HW2 6817   3.381   2.404   0.122 -0.6499  1.8749  0.4103
 2146SOL     OW 6818   5.381   2.288   0.146  0.0222  0.0726  0.0202
 2146SOL    HW1 6819   5.361   2.381   0.148  0.9451  0.3024 -0.7817
 2146SOL    HW2 6820   5.474   2.285   0.123 -0.5012 -1.0978 -2.0698
 2147SOL     OW 6821   5.163   5.943   4.385 -0.0442  0.4166  0.0886
 2147SOL    HW1 6822   5.171   6.034   4.356 -2.0477  0.2827 -1.0518
 2147SOL    HW2 6823   5.196   5.892   4.311 -0.7729  0.1839 -0.0816
 2148SOL     OW 6824   4.977   3.692   2.726 -0.0128  0.3876  0.2987
 2148SOL    HW1 6825   4.983   3.741   2.808  0.4536  0.1596  0.4059
 2148SOL    HW2 6826   4.887   3.704   2.698 -0.0957  0.7209  0.6882
 2149SOL     OW 6827   4.451   4.895   1.670  0.0701 -0.2810 -0.2698
 2149SOL    HW1 6828   4.406   4.953   1.609 -1.5589  0.6182  1.7609
 2149SOL    HW2 6829   4.422   4.807   1.645 -0.3220  0.0564 -1.0032
 2150SOL     OW 6830   4.561   4.047   4.331  0.0128 -0.1214  0.0521
 2150SOL    HW1 6831   4.610   4.067   4.251 -1.0688 -0.9664 -0.8404
 2150SOL    HW2 6832   4.487   3.994   4.301 -1.6643  1.4413  1.3011
 2151SOL     OW 6833   3.964   3.639   6.153  0.0880  0.1656 -0.1883
 2151SOL    HW1 6834   3.872   3.617   6.138 -0.0362 -1.3559  2.4265
 2151SOL    HW2 6835   3.974   3.633   6.248  2.7617  0.8839 -0.3952
 2152SOL     OW 6836   1.725   2.480   1.646  0.7624 -0.0422  0.4546
 2152SOL    HW1 6837   1.632   2.459   1.651  0.6687  0.1650 -0.4059
 2152SOL    HW2 6838   1.764   2.407   1.599  0.4549  1.5806 -2.4404
 2153SOL     OW 6839   1.704   0.201   3.271  0.5467  0.2770  0.1196
 2153SOL    HW1 6840   1.767   0.132   3.289 -0.4318 -0.6700  0.0015
 2153SOL    HW2 6841   1.727   0.273   3.330 -0.2707 -1.3002  2.4087
 2154SOL     OW 6842   2.930   1.668   6.007 -0.0710 -0.3552 -0.5156
 2154SOL    HW1 6843   2.971   1.720   5.938  0.3087  0.0607  0.0219
 2154SOL    HW2 6844   2.944   1.719   6.087 -2.2044  0.1157 -0.4200
 2155SOL     OW 6845   4.763   0.806   4.286  0.4790  0.3117 -0.6168
 2155SOL    HW1 6846   4.827   0.871   4.258 -0.7278  1.9679  0.4020
 2155SOL    HW2 6847   4.751   0.823   4.379  1.3068 -2.3928  0.0126
 2156SOL     OW 6848   2.624   5.489   4.054  1.0043 -0.3341 -0.4630
 2156SOL    HW1 6849   2.611   5.451   4.141  0.5137 -0.1675 -0.4631
 2156SOL    HW2 6850   2.691   5.556   4.068  0.5004  0.1022 -0.0892
 2157SOL     OW 6851   0.009   2.461   2.097 -0.3283  0.6050 -0.7410
 2157SOL    HW1 6852   0.100   2.491   2.085 -0.4771  1.1447 -0.5576
 2157SOL    HW2 6853   0.015   2.366   2.099  0.5364  0.6551  1.4927
 2158SOL     OW 6854   5.635   1.236   4.522  0.2030  0.0409 -0.5742
 2158SOL    HW1 6855   5.555   1.221   4.572 -0.2441 -0.0635 -1.3166
 2158SOL    HW2 6856   5.702   1.183   4.566 -0.7645 -2.0789 -1.6401
 2159SOL     OW 6857   4.619   5.808   3.071 -0.3279  0.0508  0.9104
 2159SOL    HW1 6858   4.523   5.806   3.071 -0.3358  0.5001  0.7008
 2159SOL    HW2 6859   4.644   5.741   3.007 -0.4877 -0.7386  1.6650
 2160SOL     OW 6860   0.460   6.168   0.245  0.5163 -0.4607  0.3709
 2160SOL    HW1 6861   0.475   6.249   0.197  0.3924 -0.8611 -0.3533
 2160SOL    HW2 6862   0.429   6.196   0.331  0.4246  0.2519  0.1081
 2161SOL     OW 6863   2.188   5.922   2.205 -0.1573 -0.4436  0.4392
 2161SOL    HW1 6864   2.143   6.001   2.235 -0.4302  0.2187 -1.6178
 2161SOL    HW2 6865   2.256   5.907   2.271  0.1961  1.7683  0.6368
 2162SOL     OW 6866   4.944   3.191   2.977  0.0807  0.0087  0.3533
 2162SOL    HW1 6867   4.926   3.283   2.957  1.6346  0.3815  0.6138
 2162SOL    HW2 6868   5.013   3.167   2.915  1.0943 -0.3992  1.6298
 2163SOL     OW 6869   5.995   3.930   4.585 -0.0348  0.2276 -0.3877
 2163SOL    HW1 6870   5.940   3.868   4.537 -0.0530  1.0240 -1.3941
 2163SOL    HW2 6871   5.933   3.991   4.625 -0.0148 -0.3704  0.5650
 2164SOL     OW 6872   3.927   1.009   1.027  0.1447  0.1107  0.5432
 2164SOL    HW1 6873   3.897   1.047   1.110  0.7810  0.1866  0.7428
 2164SOL    HW2 6874   3.998   1.066   0.999 -0.5619  0.5092 -0.4374
 2165SOL     OW 6875   5.819   1.070   2.947  0.0249 -0.1014 -0.1939
 2165SOL    HW1 6876   5.895   1.085   2.891 -0.6296  1.4228 -0.7039
 2165SOL    HW2 6877   5.855   1.029   3.025  1.3666  0.5352 -0.4570
 2166SOL     OW 6878   1.038   5.995   5.743 -0.0559 -0.5839  0.0024
 2166SOL    HW1 6879   1.123   5.952   5.744 -0.9462 -2.3983 -0.6669
 2166SOL    HW2 6880   0.997   5.968   5.825  0.2233  0.7656  0.6038
 2167SOL     OW 6881   3.901   2.308   6.363 -0.2830  0.1727 -0.4836
 2167SOL    HW1 6882   3.875   2.261   6.285 -1.1078  1.7870 -1.2032
 2167SOL    HW2 6883   3.923   2.396   6.332  1.9937  0.0777  0.7013
 2168SOL     OW 6884   5.603   4.463   1.024  0.1865  0.0684 -0.3475
 2168SOL    HW1 6885   5.684   4.510   1.042  0.0052  0.2170  0.0859
 2168SOL    HW2 6886   5.631   4.374   1.001  0.4426 -0.0355  0.3510
 2169SOL     OW 6887   5.520   5.772   4.066  0.0521  0.7118 -0.1727
 2169SOL    HW1 6888   5.545   5.718   3.991 -1.3756 -0.8475  0.4110
 2169SOL    HW2 6889   5.493   5.855   4.028 -4.1338 -1.2294 -1.8748
 2170SOL     OW 6890   5.740   2.314   1.285  0.0029  0.0153 -0.2318
 2170SOL    HW1 6891   5.826   2.282   1.312 -0.4073 -1.3596 -0.5107
 2170SOL    HW2 6892   5.753   2.344   1.195  0.3647  0.5514 -0.0055
 2171SOL     OW 6893   0.919   4.360   1.894 -0.1607  0.1500  0.2493
 2171SOL    HW1 6894   0.925   4.373   1.988  1.0324  0.6600  0.1106
 2171SOL    HW2 6895   0.826   4.345   1.878 -0.0826 -2.2561  1.7908
 2172SOL     OW 6896   1.301   1.943   5.904  0.5034 -0.3005 -0.1095
 2172SOL    HW1 6897   1.298   1.866   5.961  1.4150  1.1425  1.9370
 2172SOL    HW2 6898   1.250   1.918   5.827 -1.3912 -2.0315  1.6566
 2173SOL     OW 6899   5.480   3.895   2.553  0.3193 -0.5011  0.1752
 2173SOL    HW1 6900   5.525   3.968   2.594  0.3865 -1.3986  1.7612
 2173SOL    HW2 6901   5.546   3.852   2.499  0.1760  0.8162 -1.0857
 2174SOL     OW 6902   2.717   3.595   1.685 -0.1121  0.0986 -0.1376
 2174SOL    HW1 6903   2.788   3.626   1.629 -0.4460 -0.8639 -1.1191
 2174SOL    HW2 6904   2.752   3.518   1.729  0.0861  0.7444  0.8468
 2175SOL     OW 6905   1.718   5.555   3.911 -0.4585  0.0829  0.0428
 2175SOL    HW1 6906   1.686   5.566   4.001 -1.5748 -0.1168 -0.3205
 2175SOL    HW2 6907   1.655   5.495   3.870  0.5729 -0.5864 -0.6019
 2176SOL     OW 6908   1.336   5.030   1.013 -0.4592  0.2315  0.7377
 2176SOL    HW1 6909   1.295   5.113   0.988 -0.5086 -0.4018 -1.3850
 2176SOL    HW2 6910   1.403   5.054   1.076 -1.0830  1.7744  0.8286
 2177SOL     OW 6911   1.514   3.598   2.965 -0.0051  0.1959  0.2531
 2177SOL    HW1 6912   1.423   3.571   2.950 -0.2310  1.1685 -0.1198
 2177SOL    HW2 6913   1.514   3.633   3.054 -0.5340  2.4885 -0.6329
 2178SOL     OW 6914   4.701   0.659   5.971 -0.0532 -1.2059 -0.1746
 2178SOL    HW1 6915   4.693   0.565   5.983  1.3230 -1.4336 -1.0266
 2178SOL    HW2 6916   4.726   0.692   6.058 -1.7245 -1.4666  0.4216
 2179SOL     OW 6917   3.324   0.855   2.288 -0.4052  0.0476  0.5086
 2179SOL    HW1 6918   3.231   0.860   2.310 -0.4938  1.4015 -0.0841
 2179SOL    HW2 6919   3.356   0.944   2.304  0.6067 -0.2185 -0.0518
 2180SOL     OW 6920   5.199   0.152   5.550 -0.3707  1.0813 -0.2987
 2180SOL    HW1 6921   5.147   0.205   5.610 -0.4189  0.5070  0.1791
 2180SOL    HW2 6922   5.219   0.072   5.600  0.5723  1.0993 -0.6361
 2181SOL     OW 6923   0.905   2.588   3.342  0.0750 -0.0712  0.3847
 2181SOL    HW1 6924   0.881   2.503   3.304 -0.2788 -0.2045  0.9064
 2181SOL    HW2 6925   0.822   2.627   3.368  0.1785  0.7021 -0.3947
 2182SOL     OW 6926   3.977   2.139   3.822  0.2101 -0.2779  0.1655
 2182SOL    HW1 6927   3.886   2.167   3.817  0.0170 -0.5060  1.8512
 2182SOL    HW2 6928   3.991   2.121   3.915  1.9085 -0.4737 -0.1073
 2183SOL     OW 6929   0.148   2.851   4.809 -0.5781  0.2745  0.5412
 2183SOL    HW1 6930   0.230   2.888   4.777 -1.0687  0.7681 -0.1635
 2183SOL    HW2 6931   0.100   2.927   4.843 -0.7638 -0.0034  0.8916
 2184SOL     OW 6932   4.718   2.247   5.568 -0.1317  0.3198  0.0851
 2184SOL    HW1 6933   4.811   2.225   5.559  0.2277  1.6700  0.4095
 2184SOL    HW2 6934   4.703   2.248   5.663 -0.2370  1.0925  0.0587
 2185SOL     OW 6935   5.034   5.151   2.250 -0.4502 -0.1956  0.1258
 2185SOL    HW1 6936   5.085   5.223   2.214  0.0326 -0.0654  1.0771
 2185SOL    HW2 6937   5.067   5.138   2.339 -2.1701 -0.0095  0.8216
 2186SOL     OW 6938   0.709   3.823   5.715 -0.3061  0.0905 -0.3978
 2186SOL    HW1 6939   0.660   3.742   5.699 -2.4084  1.1952  0.2417
 2186SOL    HW2 6940   0.724   3.823   5.810  1.9398 -0.7693 -0.7228
 2187SOL     OW 6941   2.305   2.557   6.063  0.1514 -0.4649 -0.6787
 2187SOL    HW1 6942   2.241   2.486   6.064  1.2311 -1.4718 -1.4588
 2187SOL    HW2 6943   2.372   2.527   6.001  1.6599  0.3080  0.5563
 2188SOL     OW 6944   4.270   0.653   5.165  0.0810 -0.4090 -0.3551
 2188SOL    HW1 6945   4.343   0.715   5.165  1.0309 -1.4734 -1.9206
 2188SOL    HW2 6946   4.300   0.581   5.220 -0.4345 -0.1361  0.2831
 2189SOL     OW 6947   1.651   5.229   2.750  0.0017 -0.3155 -0.3816
 2189SOL    HW1 6948   1.651   5.313   2.704 -1.4653 -0.7823 -1.2745
 2189SOL    HW2 6949   1.580   5.237   2.814  0.2170 -0.6857 -0.0946
 2190SOL     OW 6950   1.242   6.186   5.981  0.0054 -0.2598 -0.7741
 2190SOL    HW1 6951   1.225   6.256   6.045  0.3945  0.3538 -1.3385
 2190SOL    HW2 6952   1.172   6.196   5.916  0.4494  0.0289 -1.2087
 2191SOL     OW 6953   1.339   3.673   4.928  0.6561  0.3849 -0.0605
 2191SOL    HW1 6954   1.287   3.631   4.996  0.3770 -0.5083 -0.8144
 2191SOL    HW2 6955   1.280   3.680   4.853  0.9243  1.4564 -0.1742
 2192SOL     OW 6956   4.627   4.729   5.344 -0.5111  0.2974  0.6182
 2192SOL    HW1 6957   4.582   4.813   5.349 -0.0054  0.5191  1.5602
 2192SOL    HW2 6958   4.589   4.686   5.268 -0.6331  1.4614  0.0031
 2193SOL     OW 6959   3.829   5.679   0.166  0.0680 -0.0928  0.0979
 2193SOL    HW1 6960   3.816   5.597   0.214 -0.0539 -0.1916 -0.1029
 2193SOL    HW2 6961   3.753   5.732   0.188 -0.9457 -0.8455 -1.4423
 2194SOL     OW 6962   3.198   1.837   3.715 -0.1956 -0.4398 -0.3181
 2194SOL    HW1 6963   3.213   1.931   3.727  0.6639 -0.6902  0.6561
 2194SOL    HW2 6964   3.176   1.828   3.623  2.2058  0.4275 -1.0130
 2195SOL     OW 6965   5.202   4.717   0.957 -0.6090  0.2403  0.1800
 2195SOL    HW1 6966   5.220   4.656   0.886  0.9553  0.8401  0.0506
 2195SOL    HW2 6967   5.272   4.702   1.020 -0.4756  1.5921  0.3557
 2196SOL     OW 6968   4.234   0.224   6.239 -0.4637  0.2355  0.3920
 2196SOL    HW1 6969   4.152   0.260   6.273 -1.2684 -1.5807  0.4750
 2196SOL    HW2 6970   4.241   0.138   6.282  0.6358 -0.3262 -0.8900
 2197SOL     OW 6971   5.148   5.527   0.519 -0.2628 -0.5447 -0.3898
 2197SOL    HW1 6972   5.094   5.568   0.586 -1.0210  0.8690 -1.8214
 2197SOL    HW2 6973   5.237   5.532   0.554 -0.6317  0.2542  0.4602
 2198SOL     OW 6974   2.769   2.771   1.830 -0.6323  0.2397 -0.3162
 2198SOL    HW1 6975   2.733   2.701   1.775 -1.1387  0.9385 -0.8737
 2198SOL    HW2 6976   2.822   2.725   1.894 -0.4725 -0.6258 -1.0546
 2199SOL     OW 6977   3.243   5.524   4.244 -0.3973  0.3175 -0.0286
 2199SOL    HW1 6978   3.150   5.507   4.231 -0.2671  0.9123 -1.7862
 2199SOL    HW2 6979   3.268   5.463   4.313 -1.6389 -1.2563 -0.9170
 2200SOL     OW 6980   5.854   0.173   2.235  0.8044 -0.4227 -0.1385
 2200SOL    HW1 6981   5.916   0.127   2.178  0.6413  1.1305 -1.6055
 2200SOL    HW2 6982   5.860   0.265   2.208 -0.7365  0.0320  1.0066
 2201SOL     OW 6983   2.739   4.779   3.576 -0.7082  0.9013  0.0992
 2201SOL    HW1 6984   2.685   4.776   3.497  0.4568 -0.3077 -0.6813
 2201SOL    HW2 6985   2.676   4.783   3.648 -1.8397  0.1627 -0.8209
 2202SOL     OW 6986   2.131   5.000   1.203 -0.4252 -0.1525 -0.2902
 2202SOL    HW1 6987   2.095   5.087   1.220  0.9161  0.2740  0.4257
 2202SOL    HW2 6988   2.166   4.972   1.288 -0.7825 -1.3571 -0.5329
 2203SOL     OW 6989   6.020   0.437   0.054  0.2248 -0.4740  0.6488
 2203SOL    HW1 6990   5.929   0.467   0.060  0.4320  0.3468 -0.2234
 2203SOL    HW2 6991   6.063   0.476   0.129 -0.3225 -1.5180  1.5144
 2204SOL     OW 6992   3.126   3.055   1.408  0.4281  0.1263 -0.5343
 2204SOL    HW1 6993   3.060   2.987   1.421  2.6756 -2.3153 -1.2687
 2204SOL    HW2 6994   3.140   3.056   1.313  0.9387  1.1158 -0.4544
 2205SOL     OW 6995   2.313   4.839   6.278  0.7218  0.2654 -0.8533
 2205SOL    HW1 6996   2.252   4.802   6.214 -0.5495  1.6544 -0.4868
 2205SOL    HW2 6997   2.262   4.846   6.359  0.7327  3.1604 -1.0282
 2206SOL     OW 6998   0.213   0.053   4.858 -0.3652 -0.5960 -0.2923
 2206SOL    HW1 6999   0.231   0.119   4.924  2.1147 -0.9375 -0.5680
 2206SOL    HW2 7000   0.235  -0.030   4.901 -2.0307 -1.1390 -0.4398
 2207SOL     OW 7001   1.143   5.492   5.566 -0.1141 -0.1342  0.0749
 2207SOL    HW1 7002   1.207   5.437   5.611 -1.9363 -2.1278  0.2989
 2207SOL    HW2 7003   1.161   5.478   5.473 -0.1898 -0.6792  0.1382
 2208SOL     OW 7004   1.017   5.865   2.514 -0.4685 -0.4410 -0.3651
 2208SOL    HW1 7005   0.963   5.806   2.462  1.1910 -2.4730  0.1631
 2208SOL    HW2 7006   1.101   5.867   2.469 -0.7852  2.3870 -0.9682
 2209SOL     OW 7007   3.540   1.758   4.013 -0.4366 -0.1558  0.3270
 2209SOL    HW1 7008   3.479   1.721   4.078  1.0419 -1.0976  1.2133
 2209SOL    HW2 7009   3.626   1.736   4.047  0.3641 -2.1309 -2.8333
 2210SOL     OW 7010   2.503   4.266   3.478  0.3383  0.2526  0.1380
 2210SOL    HW1 7011   2.565   4.311   3.536  0.8007  0.4120 -0.4735
 2210SOL    HW2 7012   2.507   4.174   3.505 -0.3531  0.5098  1.1648
 2211SOL     OW 7013   5.774   2.605   5.426  0.2031  0.1459 -0.1890
 2211SOL    HW1 7014   5.867   2.583   5.424  0.1720 -0.2324  1.3808
 2211SOL    HW2 7015   5.739   2.557   5.502 -0.8459  1.8431  0.4604
 2212SOL     OW 7016   5.853   1.394   2.868 -0.0043  0.0299 -0.1497
 2212SOL    HW1 7017   5.885   1.310   2.836 -1.2646 -0.2332 -0.7602
 2212SOL    HW2 7018   5.898   1.407   2.952 -0.0722 -1.4131  0.1147
 2213SOL     OW 7019   5.234   2.497   1.678 -0.3931 -0.1459 -0.3716
 2213SOL    HW1 7020   5.147   2.529   1.704  0.1670  1.1238  0.0025
 2213SOL    HW2 7021   5.240   2.410   1.718 -1.4399 -0.1874 -0.2860
 2214SOL     OW 7022   1.307   6.012   3.539 -0.3443 -0.1589 -0.7416
 2214SOL    HW1 7023   1.366   6.014   3.464 -0.2400 -1.1593 -0.6974
 2214SOL    HW2 7024   1.256   6.093   3.532  1.7950  1.2939 -0.1531
 2215SOL     OW 7025   6.039   2.543   0.239 -0.0612 -0.3965 -0.5810
 2215SOL    HW1 7026   6.032   2.583   0.152  0.8291  2.8144  0.7578
 2215SOL    HW2 7027   5.949   2.519   0.262 -0.6627  1.0425 -1.3681
 2216SOL     OW 7028   6.166   6.028   0.231  0.1141 -0.4151  0.2834
 2216SOL    HW1 7029   6.187   6.120   0.246  2.6191 -0.8758 -0.2549
 2216SOL    HW2 7030   6.250   5.987   0.213 -1.2700 -2.3435 -2.0066
 2217SOL     OW 7031   0.372   3.049   1.049  0.3766 -0.0937 -0.0372
 2217SOL    HW1 7032   0.313   3.068   1.121  1.6007 -0.2318  1.0226
 2217SOL    HW2 7033   0.371   2.954   1.041 -0.9900  0.0064 -1.2755
 2218SOL     OW 7034   0.035   2.148   2.159 -0.3830  0.4145  0.3414
 2218SOL    HW1 7035   0.108   2.136   2.098 -0.8209  1.3956 -0.3845
 2218SOL    HW2 7036  -0.039   2.173   2.103 -1.1505 -0.0900  1.1256
 2219SOL     OW 7037   2.018   3.844   0.905 -0.0330 -0.6061  0.4563
 2219SOL    HW1 7038   1.958   3.777   0.874 -1.3264  1.4666 -1.6697
 2219SOL    HW2 7039   2.088   3.847   0.840 -0.3032  0.4928  0.1970
 2220SOL     OW 7040   3.820   4.345   5.595  0.2153 -0.7262  0.0478
 2220SOL    HW1 7041   3.910   4.326   5.620  0.3633 -0.2461 -0.1079
 2220SOL    HW2 7042   3.815   4.440   5.594  0.1613 -0.7299 -1.5356
 2221SOL     OW 7043   0.447   2.145   1.722 -0.2228 -0.0338  0.3703
 2221SOL    HW1 7044   0.353   2.129   1.724 -0.1207 -0.5747  1.6386
 2221SOL    HW2 7045   0.483   2.088   1.791  1.1831 -0.7831 -0.9328
 2222SOL     OW 7046   2.584   2.681   2.611  0.2787  0.4564  0.5233
 2222SOL    HW1 7047   2.556   2.595   2.640  0.4435  0.5258  0.8884
 2222SOL    HW2 7048   2.640   2.664   2.535  0.8442  0.2047  0.9942
 2223SOL     OW 7049   4.609   3.881   0.265 -0.0465  1.0153  0.4863
 2223SOL    HW1 7050   4.656   3.919   0.191 -0.9609  2.0065  0.4099
 2223SOL    HW2 7051   4.666   3.809   0.294 -0.1427 -0.0184 -1.7599
 2224SOL     OW 7052   3.190   1.309   3.278  0.2161 -0.1441  0.7601
 2224SOL    HW1 7053   3.213   1.236   3.336 -0.8696 -2.0388 -1.1090
 2224SOL    HW2 7054   3.149   1.267   3.202  4.1338  2.0154 -2.7316
 2225SOL     OW 7055   3.204   0.645   0.182  0.5135  0.1057  0.3078
 2225SOL    HW1 7056   3.233   0.730   0.149 -0.1302 -0.1138 -0.8762
 2225SOL    HW2 7057   3.284   0.601   0.210  1.2521 -0.1109 -2.0075
 2226SOL     OW 7058   0.666   2.605   5.931 -0.0212  0.1229  0.1730
 2226SOL    HW1 7059   0.709   2.614   6.016 -0.8747 -0.3753  0.6671
 2226SOL    HW2 7060   0.686   2.686   5.885  2.0793 -0.4157  0.1006
 2227SOL     OW 7061   3.749   5.229   1.281 -0.0356  0.0627  0.2513
 2227SOL    HW1 7062   3.671   5.212   1.228 -0.6665  0.6044  1.0043
 2227SOL    HW2 7063   3.749   5.324   1.295  1.8508  0.3648 -1.4315
 2228SOL     OW 7064   1.738   1.895   4.783  0.1910 -0.1810 -0.0270
 2228SOL    HW1 7065   1.651   1.859   4.763  0.5403 -0.3991 -1.2021
 2228SOL    HW2 7066   1.780   1.903   4.697  1.6523 -0.8954  0.6135
 2229SOL     OW 7067   4.061   1.376   3.230 -0.0894 -0.1576 -0.3788
 2229SOL    HW1 7068   4.085   1.292   3.190 -0.4200  0.2513 -1.4658
 2229SOL    HW2 7069   3.994   1.411   3.172 -1.2423  0.0406  1.0367
 2230SOL     OW 7070   2.740   4.435   2.776  0.4525  0.2503 -0.3480
 2230SOL    HW1 7071   2.749   4.490   2.854  0.2552  0.4208 -0.4436
 2230SOL    HW2 7072   2.737   4.346   2.810 -0.4480  0.3719 -0.0909
 2231SOL     OW 7073   3.284   0.583   5.000 -0.1631 -0.2282 -0.4478
 2231SOL    HW1 7074   3.353   0.619   5.055 -0.7478 -0.4507  0.4373
 2231SOL    HW2 7075   3.331   0.536   4.930  0.5808 -0.8294  0.4429
 2232SOL     OW 7076   2.697   1.339   4.281  0.5284 -0.4285  0.0229
 2232SOL    HW1 7077   2.613   1.380   4.260  0.3609 -0.1087  1.2910
 2232SOL    HW2 7078   2.748   1.345   4.200  0.3642  1.9119  0.0652
 2233SOL     OW 7079   1.837   5.446   5.653 -0.0966  0.1922 -0.0358
 2233SOL    HW1 7080   1.883   5.506   5.711 -0.7360  0.2763  0.3965
 2233SOL    HW2 7081   1.858   5.476   5.564 -1.8151  2.1516  0.1854
 2234SOL     OW 7082   4.797   1.771   2.774  0.3019 -0.8338 -0.4349
 2234SOL    HW1 7083   4.874   1.726   2.740  1.1974 -1.0318  1.7919
 2234SOL    HW2 7084   4.806   1.861   2.745  1.7674 -0.6850  0.4449
 2235SOL     OW 7085   5.765   2.096   5.876 -0.3371 -0.1531 -0.4907
 2235SOL    HW1 7086   5.713   2.157   5.823  0.7126 -1.1429 -2.7547
 2235SOL    HW2 7087   5.754   2.011   5.833  0.3595 -1.0426  1.0436
 2236SOL     OW 7088   1.263   5.168   4.949 -0.0505 -0.0202  0.1340
 2236SOL    HW1 7089   1.258   5.116   4.869  0.3845  1.4814 -0.8945
 2236SOL    HW2 7090   1.356   5.184   4.962 -0.1201 -0.2436  0.9341
 2237SOL     OW 7091   1.142   3.103   2.877 -0.2352  0.3413  0.1533
 2237SOL    HW1 7092   1.159   3.174   2.940  0.1869  0.2581  0.1368
 2237SOL    HW2 7093   1.078   3.047   2.921  2.4427 -1.4814  1.8972
 2238SOL     OW 7094   5.922   2.400   2.250  0.5301  0.2522 -0.1964
 2238SOL    HW1 7095   5.921   2.385   2.345 -0.9602  1.0506 -0.0774
 2238SOL    HW2 7096   5.865   2.475   2.237 -1.1622 -1.2887 -1.9672
 2239SOL     OW 7097   2.985   0.153   2.701  0.0076 -0.1685 -0.9191
 2239SOL    HW1 7098   2.995   0.058   2.708 -0.0843 -0.4076 -3.4101
 2239SOL    HW2 7099   3.000   0.172   2.608 -2.2821  1.9736 -0.9084
 2240SOL     OW 7100   1.156   1.508   0.257 -0.1720  0.1798 -0.1537
 2240SOL    HW1 7101   1.220   1.543   0.319  0.4103  0.9000 -1.1361
 2240SOL    HW2 7102   1.208   1.489   0.179 -0.6551 -2.0080  0.0441
 2241SOL     OW 7103   2.858   0.361   6.196  0.0950 -0.2638  0.3668
 2241SOL    HW1 7104   2.945   0.351   6.233  0.8122  0.8138 -1.0107
 2241SOL    HW2 7105   2.847   0.455   6.184 -0.6685 -0.4956 -0.8687
 2242SOL     OW 7106   4.413   1.584   4.398  0.0829  0.2641  0.3277
 2242SOL    HW1 7107   4.396   1.589   4.492  0.0013  0.5350  0.2992
 2242SOL    HW2 7108   4.491   1.529   4.391 -1.0658 -1.4614  0.4311
 2243SOL     OW 7109   0.054   5.931   4.956 -0.0662  0.2071  0.4923
 2243SOL    HW1 7110   0.117   6.001   4.972 -0.9387  1.3085 -0.8773
 2243SOL    HW2 7111   0.102   5.868   4.901 -0.7040  1.9158 -2.0830
 2244SOL     OW 7112   3.867   1.114   0.016  0.9221 -0.4329 -0.0583
 2244SOL    HW1 7113   3.855   1.027  -0.023  1.1030  0.0947 -1.3209
 2244SOL    HW2 7114   3.918   1.098   0.095  2.7112 -1.2596 -1.3376
 2245SOL     OW 7115   0.082   6.347   4.159  0.5386  0.1019 -0.1058
 2245SOL    HW1 7116   0.158   6.307   4.117 -0.6944 -0.4552 -1.8491
 2245SOL    HW2 7117   0.082   6.437   4.126  0.3782  0.0661 -0.2034
 2246SOL     OW 7118   1.235   0.932   6.159 -0.1439  0.1797 -0.7833
 2246SOL    HW1 7119   1.245   0.881   6.078  0.1309 -2.0932  0.6330
 2246SOL    HW2 7120   1.193   0.871   6.220  2.2539  0.8966  1.6821
 2247SOL     OW 7121   4.621   0.426   6.081  0.1406  0.0811  0.0649
 2247SOL    HW1 7122   4.657   0.376   6.154  0.1454 -0.9653 -0.6444
 2247SOL    HW2 7123   4.527   0.433   6.100  0.4128  1.3167  1.0387
 2248SOL     OW 7124   4.856   6.328   1.565 -0.0476  0.2164 -0.4099
 2248SOL    HW1 7125   4.936   6.379   1.549  0.2492 -0.0428  0.2107
 2248SOL    HW2 7126   4.871   6.246   1.517  0.6431 -0.3733  0.7887
 2249SOL     OW 7127   2.094   0.702   2.985 -0.1057  0.3394 -0.4642
 2249SOL    HW1 7128   2.079   0.704   3.080  1.8051  0.1489 -0.1420
 2249SOL    HW2 7129   2.018   0.655   2.950 -1.0268  0.7434  0.9202
 2250SOL     OW 7130   1.201   2.833   0.416 -0.4847 -0.0884 -0.0737
 2250SOL    HW1 7131   1.268   2.877   0.365 -1.8275 -0.0753 -1.8974
 2250SOL    HW2 7132   1.226   2.740   0.413 -0.2063 -0.0094 -0.2127
 2251SOL     OW 7133   0.069   6.194   2.585  0.8159 -0.0493 -0.2753
 2251SOL    HW1 7134   0.061   6.113   2.534  0.3569 -0.3996  0.3439
 2251SOL    HW2 7135   0.119   6.168   2.662 -0.5492 -0.0651  0.6135
 2252SOL     OW 7136   4.749   1.544   2.410 -0.2857  0.2901 -0.1263
 2252SOL    HW1 7137   4.784   1.477   2.351  1.9382  0.6354  0.7551
 2252SOL    HW2 7138   4.706   1.607   2.353  0.7521 -0.0278 -1.2855
 2253SOL     OW 7139   5.668   0.018   1.790 -0.1414 -0.0432 -0.2966
 2253SOL    HW1 7140   5.618   0.001   1.870 -0.1288  0.5618 -0.1559
 2253SOL    HW2 7141   5.743  -0.042   1.796  0.3686  0.6644  0.6151
 2254SOL     OW 7142   5.865   3.652   2.287 -0.1586  0.3587  0.1464
 2254SOL    HW1 7143   5.903   3.666   2.200 -2.0559 -1.2205 -0.9900
 2254SOL    HW2 7144   5.819   3.734   2.306  1.6754  1.3316  0.4198
 2255SOL     OW 7145   2.268   1.825   3.346 -0.0461  0.2955  0.1251
 2255SOL    HW1 7146   2.289   1.894   3.407 -0.1391 -0.9906  1.6463
 2255SOL    HW2 7147   2.352   1.784   3.325  0.2899  2.1488 -2.4080
 2256SOL     OW 7148   4.015   0.676   1.406  0.3266  0.1760  0.3855
 2256SOL    HW1 7149   4.081   0.609   1.386 -0.4322 -0.5635  0.3125
 2256SOL    HW2 7150   4.037   0.750   1.349  1.7883  0.3818  1.2049
 2257SOL     OW 7151   2.121   5.506   0.633 -0.5114 -0.1935  0.5153
 2257SOL    HW1 7152   2.208   5.468   0.620  0.1677  2.0897 -2.3593
 2257SOL    HW2 7153   2.060   5.435   0.615  0.7205 -0.5248 -2.5834
 2258SOL     OW 7154   6.056   3.411   4.914  0.1771 -0.5401  1.0305
 2258SOL    HW1 7155   6.121   3.405   4.844 -0.2622  1.0857  0.4454
 2258SOL    HW2 7156   6.097   3.467   4.980 -1.5119  2.6521 -0.4732
 2259SOL     OW 7157   1.781   1.262   0.551  0.0092 -0.2177  0.3197
 2259SOL    HW1 7158   1.855   1.248   0.611  1.0443  0.0478 -0.8661
 2259SOL    HW2 7159   1.807   1.217   0.471 -2.0154 -1.8592  0.5364
 2260SOL     OW 7160   4.393   6.024   5.032 -0.1719 -0.1263  0.2524
 2260SOL    HW1 7161   4.464   6.027   4.968  0.8044 -1.9116  1.2205
 2260SOL    HW2 7162   4.383   5.931   5.053 -0.7967  0.3754  2.3130
 2261SOL     OW 7163   6.325   2.627   2.474 -0.0649  0.3024 -0.1632
 2261SOL    HW1 7164   6.246   2.607   2.425 -0.7691  2.2132  0.1578
 2261SOL    HW2 7165   6.394   2.575   2.432 -1.3459 -0.8372 -0.8677
 2262SOL     OW 7166   1.859   4.950   4.824  0.3333 -0.1200 -0.1897
 2262SOL    HW1 7167   1.822   4.943   4.912  0.4757  0.8757 -0.0428
 2262SOL    HW2 7168   1.900   5.036   4.822 -1.5476  0.7541 -1.9406
 2263SOL     OW 7169   3.084   4.387   5.898  0.4492 -0.5536 -0.2869
 2263SOL    HW1 7170   3.077   4.481   5.913 -0.3993 -0.6027 -0.3199
 2263SOL    HW2 7171   2.998   4.353   5.924 -0.0815 -1.0058 -2.5086
 2264SOL     OW 7172   6.248   3.076   4.918  0.2977 -0.0161 -0.6063
 2264SOL    HW1 7173   6.324   3.129   4.940  1.3005 -1.4201 -0.6644
 2264SOL    HW2 7174   6.233   3.092   4.825 -1.6169  2.9494  0.1395
 2265SOL     OW 7175   1.991   6.177   1.008  0.3164 -0.1247  0.2880
 2265SOL    HW1 7176   2.044   6.112   0.962  1.6941  0.7808  0.5462
 2265SOL    HW2 7177   1.962   6.132   1.088  0.9208 -0.5623  0.2659
 2266SOL     OW 7178   0.180   0.935   0.931 -0.1831 -0.1153 -0.3704
 2266SOL    HW1 7179   0.151   0.988   0.857 -0.6781 -0.4542 -0.4237
 2266SOL    HW2 7180   0.243   0.990   0.977 -0.7298  0.5397 -0.3927
 2267SOL     OW 7181   6.353   0.182   4.827  0.7603 -0.1587  0.5538
 2267SOL    HW1 7182   6.430   0.136   4.794  0.8155  0.4314 -0.1391
 2267SOL    HW2 7183   6.296   0.112   4.860  0.6244 -0.7837 -0.9554
 2268SOL     OW 7184   2.488   5.564   5.023 -0.6293 -0.8502  0.2052
 2268SOL    HW1 7185   2.492   5.472   4.995  2.3180 -0.6145 -0.2925
 2268SOL    HW2 7186   2.548   5.569   5.097 -0.3116  0.7959 -0.1422
 2269SOL     OW 7187   6.083   2.867   4.943  0.0772 -0.1758 -0.2122
 2269SOL    HW1 7188   6.097   2.825   4.858 -0.9169 -1.0422  0.0423
 2269SOL    HW2 7189   6.153   2.932   4.950  0.4565 -0.4461 -1.4760
 2270SOL     OW 7190   2.867   0.289   1.354 -0.6039 -0.0057 -0.0333
 2270SOL    HW1 7191   2.876   0.380   1.325  2.9843 -0.1118  0.5544
 2270SOL    HW2 7192   2.855   0.295   1.449 -0.9503 -0.1285 -0.0684
 2271SOL     OW 7193   0.711   1.438   2.926 -0.1119 -0.7262  0.0603
 2271SOL    HW1 7194   0.643   1.500   2.898 -0.7413 -0.8430  1.2818
 2271SOL    HW2 7195   0.767   1.489   2.984  1.1060 -0.5221 -1.2638
 2272SOL     OW 7196   3.295   3.709   1.812  0.0627  0.2556 -0.2406
 2272SOL    HW1 7197   3.216   3.762   1.818  0.3729  0.6100  0.8988
 2272SOL    HW2 7198   3.285   3.660   1.731 -2.3481 -1.3314  0.9457
 2273SOL     OW 7199   2.819   5.716   3.832  0.1935 -0.0618  0.6139
 2273SOL    HW1 7200   2.845   5.682   3.918 -1.0545 -0.0402  1.0089
 2273SOL    HW2 7201   2.856   5.804   3.828 -1.2265  0.6204  1.8731
 2274SOL     OW 7202   6.197   0.356   4.650 -0.6002 -0.5788  0.1019
 2274SOL    HW1 7203   6.231   0.326   4.566 -3.0052  0.5507 -1.3256
 2274SOL    HW2 7204   6.250   0.311   4.715  0.5552 -2.3390 -2.0106
 2275SOL     OW 7205   3.644   1.631   1.664  0.2076  0.1102  0.0888
 2275SOL    HW1 7206   3.710   1.696   1.642  2.6373 -2.0390  0.6971
 2275SOL    HW2 7207   3.628   1.583   1.583 -0.3297  0.3953  0.0255
 2276SOL     OW 7208   4.238   6.131   4.204 -0.2444  0.3542 -0.5895
 2276SOL    HW1 7209   4.177   6.185   4.255 -0.5896 -1.6714  1.2642
 2276SOL    HW2 7210   4.296   6.193   4.162 -1.6758  2.2269  0.1067
 2277SOL     OW 7211   4.060   3.930   1.349 -0.8384 -0.1737  0.3210
 2277SOL    HW1 7212   3.969   3.957   1.341 -0.5506  0.6249 -0.3481
 2277SOL    HW2 7213   4.108   4.010   1.370  0.2153  0.1415 -3.0282
 2278SOL     OW 7214   1.604   1.194   3.122  0.5491  0.0411 -0.9168
 2278SOL    HW1 7215   1.649   1.262   3.073  1.0962 -0.5756 -1.2798
 2278SOL    HW2 7216   1.668   1.123   3.130 -0.0185 -0.4453 -0.5677
 2279SOL     OW 7217   6.205   2.558   1.804  0.1102 -0.4166  0.1262
 2279SOL    HW1 7218   6.262   2.593   1.735  0.0164  2.0776  1.2671
 2279SOL    HW2 7219   6.243   2.591   1.886 -1.6599 -0.6411  1.0643
 2280SOL     OW 7220   2.451   2.134   2.782  0.1559 -0.1066 -0.0923
 2280SOL    HW1 7221   2.466   2.068   2.714  0.0125 -0.8256  0.5636
 2280SOL    HW2 7222   2.463   2.086   2.864  0.6639  0.8325  0.3835
 2281SOL     OW 7223   1.409   4.232   1.716 -0.2338  0.1869 -0.4746
 2281SOL    HW1 7224   1.381   4.272   1.799  0.6249  0.5637 -0.3613
 2281SOL    HW2 7225   1.490   4.187   1.738  1.2279  2.1876 -1.5810
 2282SOL     OW 7226   4.677   3.779   4.822  0.1820 -0.3769 -0.5323
 2282SOL    HW1 7227   4.706   3.780   4.914  1.4348 -0.1909 -0.9262
 2282SOL    HW2 7228   4.605   3.843   4.820 -1.1568 -1.7863  0.7169
 2283SOL     OW 7229   0.016   2.116   1.311  0.5240  0.3899 -0.1508
 2283SOL    HW1 7230  -0.039   2.133   1.387 -0.2148  0.9089 -0.7871
 2283SOL    HW2 7231  -0.011   2.028   1.282  0.7741  0.2115  0.1562
 2284SOL     OW 7232   4.180   6.011   4.630  0.2290 -0.4756 -0.6883
 2284SOL    HW1 7233   4.098   5.996   4.583 -0.0881 -1.2868  0.1150
 2284SOL    HW2 7234   4.242   5.950   4.590 -0.1960 -1.5990  0.3245
 2285SOL     OW 7235   1.950   4.769   4.043  0.3006  0.4724 -0.5170
 2285SOL    HW1 7236   1.890   4.697   4.057  1.1510  0.1940  1.8325
 2285SOL    HW2 7237   1.934   4.796   3.952  0.0076 -2.6574 -1.4557
 2286SOL     OW 7238   5.813   5.288   1.231 -0.0362 -0.3734 -0.6103
 2286SOL    HW1 7239   5.827   5.296   1.137 -0.0561  0.5743 -0.5406
 2286SOL    HW2 7240   5.842   5.372   1.267  0.9286 -1.0954  0.3501
 2287SOL     OW 7241   2.024   4.691   4.281 -0.2436  0.4605 -0.1248
 2287SOL    HW1 7242   1.990   4.739   4.206  1.4633  1.7700 -0.0826
 2287SOL    HW2 7243   2.068   4.614   4.244  2.0395  1.9586 -0.6227
 2288SOL     OW 7244   2.924   3.638   4.919  0.3945  0.0928 -0.1282
 2288SOL    HW1 7245   2.952   3.681   4.839  1.3356 -1.1233 -0.4542
 2288SOL    HW2 7246   2.829   3.652   4.922  0.5203  1.1427 -0.8366
 2289SOL     OW 7247   1.329   3.743   2.499  0.1482 -0.0281 -0.3851
 2289SOL    HW1 7248   1.367   3.655   2.494 -0.3195 -0.2366 -0.2685
 2289SOL    HW2 7249   1.314   3.767   2.407 -2.5347 -1.2957 -0.3009
 2290SOL     OW 7250   4.307   5.436   0.736 -0.0419  0.2105 -0.3041
 2290SOL    HW1 7251   4.293   5.364   0.674 -0.3904 -0.3862  0.4536
 2290SOL    HW2 7252   4.257   5.509   0.700 -1.1610 -0.4712 -0.1546
 2291SOL     OW 7253   5.705   6.147   6.073  0.0410  0.3776 -0.3160
 2291SOL    HW1 7254   5.629   6.098   6.041 -0.2904  1.2031 -0.8116
 2291SOL    HW2 7255   5.743   6.090   6.141 -0.6888 -0.2892 -0.4517
 2292SOL     OW 7256   1.357   5.135   4.457 -0.0013 -0.6070  0.0722
 2292SOL    HW1 7257   1.377   5.226   4.477 -1.9244 -0.4836  1.5798
 2292SOL    HW2 7258   1.273   5.138   4.411 -0.3694 -1.6363  0.6546
 2293SOL     OW 7259   2.444   6.087   6.305 -0.1359 -0.6549  0.5453
 2293SOL    HW1 7260   2.462   6.000   6.269  1.8595 -0.3987  0.8707
 2293SOL    HW2 7261   2.361   6.077   6.352  0.0469 -2.3786  0.5261
 2294SOL     OW 7262   2.104   0.333   2.470 -0.2447  0.6616  0.3021
 2294SOL    HW1 7263   2.163   0.392   2.517 -0.5341  2.2186 -1.2231
 2294SOL    HW2 7264   2.066   0.388   2.401 -0.1748 -1.4114 -1.4470
 2295SOL     OW 7265   5.639   2.980   5.901 -0.4114  0.0185 -0.0175
 2295SOL    HW1 7266   5.632   2.968   5.807 -0.0770  0.2454 -0.0727
 2295SOL    HW2 7267   5.641   3.075   5.914  0.1341 -0.0132  0.1684
 2296SOL     OW 7268   4.653   3.170   6.119  0.2211 -0.3637  0.5128
 2296SOL    HW1 7269   4.674   3.178   6.026 -0.9981 -1.0060  0.1686
 2296SOL    HW2 7270   4.683   3.252   6.158  1.2850 -0.3416 -0.3439
 2297SOL     OW 7271   0.054   4.353   4.900  0.0362 -0.6306 -0.4050
 2297SOL    HW1 7272   0.009   4.376   4.981 -1.1462  1.1849 -1.5544
 2297SOL    HW2 7273  -0.001   4.389   4.830  1.2164 -1.8506 -2.0130
 2298SOL     OW 7274   1.603   5.441   3.554  0.0350 -0.3342 -0.1036
 2298SOL    HW1 7275   1.695   5.467   3.559  0.0836 -0.4034 -0.5996
 2298SOL    HW2 7276   1.554   5.520   3.577  0.2022 -0.0611 -0.6893
 2299SOL     OW 7277   4.829   6.012   5.963  0.2811 -0.2772 -0.0714
 2299SOL    HW1 7278   4.792   5.928   5.987  1.0252 -0.1912  1.5119
 2299SOL    HW2 7279   4.916   5.992   5.927 -0.2518 -0.3014 -1.3609
 2300SOL     OW 7280   0.352   1.040   5.494 -0.1371  0.2234  0.3127
 2300SOL    HW1 7281   0.320   0.981   5.426 -0.1212  0.3183  0.2220
 2300SOL    HW2 7282   0.385   0.982   5.563  0.1818  0.1250  0.0790
 2301SOL     OW 7283   2.131   1.478   5.887 -0.2790  0.0885  0.2261
 2301SOL    HW1 7284   2.096   1.490   5.975  0.8979 -0.2241  0.7537
 2301SOL    HW2 7285   2.057   1.493   5.829 -1.8435 -2.7388  1.3858
 2302SOL     OW 7286   3.955   6.045   3.524 -0.7038  0.0844 -0.7573
 2302SOL    HW1 7287   3.906   5.963   3.514  0.9805 -0.9263 -0.9377
 2302SOL    HW2 7288   3.991   6.040   3.613 -1.1308  0.9325 -0.5364
 2303SOL     OW 7289   5.752   2.129   2.839  0.0568  0.3044  0.3750
 2303SOL    HW1 7290   5.818   2.151   2.905  0.1058  0.9831  0.1025
 2303SOL    HW2 7291   5.803   2.112   2.760 -0.0936  0.8342  0.1628
 2304SOL     OW 7292   3.402   4.528   1.857 -0.2531  0.1801  0.0635
 2304SOL    HW1 7293   3.381   4.435   1.856  0.1568  0.0813  0.9607
 2304SOL    HW2 7294   3.334   4.568   1.802 -1.7202 -0.3711  1.4423
 2305SOL     OW 7295   2.928   4.966   5.781  0.2018  0.1667  0.1792
 2305SOL    HW1 7296   2.899   4.875   5.789 -0.8359  0.5632  1.0499
 2305SOL    HW2 7297   3.011   4.969   5.827 -0.0778 -0.1918  0.7099
 2306SOL     OW 7298   5.982   5.750   1.905  0.2262  0.5515  0.3017
 2306SOL    HW1 7299   6.072   5.733   1.932  0.1445  0.0492  0.2677
 2306SOL    HW2 7300   5.928   5.698   1.965  0.0239 -0.2102 -0.5087
 2307SOL     OW 7301   2.415   6.130   2.559  0.0662  0.0466 -0.1594
 2307SOL    HW1 7302   2.444   6.144   2.649 -0.0508  1.8154 -0.3865
 2307SOL    HW2 7303   2.339   6.187   2.549 -0.2555 -0.5522 -1.2140
 2308SOL     OW 7304   3.491   3.296   4.096 -0.1154 -0.2205 -0.0913
 2308SOL    HW1 7305   3.419   3.329   4.149  1.9136  1.1603  1.8641
 2308SOL    HW2 7306   3.499   3.203   4.120 -0.4948 -0.0830  0.5668
 2309SOL     OW 7307   2.607   5.013   2.010  0.3266  0.1004 -0.8468
 2309SOL    HW1 7308   2.592   5.106   1.998  1.4135  0.3616 -0.2262
 2309SOL    HW2 7309   2.520   4.976   2.024 -0.2114  0.8638 -2.1246
 2310SOL     OW 7310   0.424   3.436   1.625 -0.2877  0.3769 -0.0931
 2310SOL    HW1 7311   0.433   3.372   1.554  0.7744  1.4054 -0.8912
 2310SOL    HW2 7312   0.386   3.513   1.584 -1.3359  0.3624  0.8277
 2311SOL     OW 7313   5.832   3.124   0.902  0.4112 -0.6423  0.1235
 2311SOL    HW1 7314   5.746   3.139   0.863  0.8198  0.6885 -0.2734
 2311SOL    HW2 7315   5.814   3.076   0.983 -0.5590 -1.9652 -0.8732
 2312SOL     OW 7316   0.583   3.810   3.587 -0.3519  0.6338 -0.3898
 2312SOL    HW1 7317   0.642   3.881   3.561 -0.3825  0.1063 -2.0225
 2312SOL    HW2 7318   0.499   3.853   3.603 -0.1075  1.1035 -0.3534
 2313SOL     OW 7319   3.901   3.206   2.926  0.1681 -0.4470 -0.0571
 2313SOL    HW1 7320   3.971   3.205   2.991 -0.0624 -0.3176  0.1923
 2313SOL    HW2 7321   3.821   3.187   2.975  0.0802 -1.0064 -0.4053
 2314SOL     OW 7322   5.712   5.192   6.242  0.2171 -1.0977  0.2800
 2314SOL    HW1 7323   5.732   5.267   6.298 -0.4103 -0.6436 -0.0930
 2314SOL    HW2 7324   5.700   5.119   6.303 -0.3718 -0.6270  0.7307
 2315SOL     OW 7325   6.377   3.697   4.607  0.2830 -0.3194 -0.7077
 2315SOL    HW1 7326   6.311   3.766   4.602  2.8755  2.2050 -1.7221
 2315SOL    HW2 7327   6.401   3.693   4.699 -0.5147 -0.4788 -0.5079
 2316SOL     OW 7328   4.626   1.572   2.826  0.1689  0.1148 -0.2778
 2316SOL    HW1 7329   4.684   1.643   2.798  1.7409 -0.7748  0.6318
 2316SOL    HW2 7330   4.633   1.571   2.921 -0.9405 -0.3571 -0.1925
 2317SOL     OW 7331   0.316   3.907   5.323 -0.3114  0.5314  0.2947
 2317SOL    HW1 7332   0.310   3.840   5.255  0.3781 -0.9670  1.6827
 2317SOL    HW2 7333   0.405   3.943   5.313 -0.7894  1.4676 -0.6478
 2318SOL     OW 7334   3.913   3.519   5.245 -0.2879 -1.2003 -0.1536
 2318SOL    HW1 7335   3.883   3.487   5.330 -0.5909 -0.9537 -0.1668
 2318SOL    HW2 7336   3.833   3.529   5.194 -0.1099 -1.2956 -0.4518
 2319SOL     OW 7337   2.069   6.230   1.391  0.2692  0.3876 -0.1679
 2319SOL    HW1 7338   1.990   6.265   1.433 -2.1393 -1.9524 -2.5919
 2319SOL    HW2 7339   2.094   6.297   1.328 -0.1722  0.8341  0.1226
 2320SOL     OW 7340   4.922   4.864   4.148  0.0645 -0.5975  0.0148
 2320SOL    HW1 7341   4.862   4.890   4.078  0.7586 -0.2666 -0.4642
 2320SOL    HW2 7342   5.003   4.912   4.129  0.1584 -0.2729  1.2147
 2321SOL     OW 7343   2.129   2.420   1.285  0.1390  0.1438 -0.6223
 2321SOL    HW1 7344   2.221   2.393   1.273  0.4083  1.4829 -1.6569
 2321SOL    HW2 7345   2.085   2.340   1.314  0.9554 -1.3968 -3.4267
 2322SOL     OW 7346   0.181   1.006   6.144  0.1254  0.5866  0.0996
 2322SOL    HW1 7347   0.231   1.057   6.207  0.4233 -2.2860  2.2876
 2322SOL    HW2 7348   0.194   0.915   6.170 -2.2676 -0.5224 -2.2481
 2323SOL     OW 7349   6.305   0.168   2.683 -0.3268  0.0393 -0.2433
 2323SOL    HW1 7350   6.326   0.146   2.592 -1.4320 -0.3108 -0.4183
 2323SOL    HW2 7351   6.211   0.188   2.682 -0.1188  1.1280  0.6141
 2324SOL     OW 7352   1.742   4.550   1.579 -0.0669  0.4308  0.3449
 2324SOL    HW1 7353   1.692   4.560   1.660 -0.1321 -0.3593  0.4092
 2324SOL    HW2 7354   1.685   4.497   1.523 -0.1706  1.2669 -0.3504
 2325SOL     OW 7355   0.406   4.773   1.793  0.9755 -0.3935  0.4270
 2325SOL    HW1 7356   0.365   4.738   1.873 -0.8414  0.4267 -0.1064
 2325SOL    HW2 7357   0.339   4.830   1.756  2.0023 -0.3638 -1.4160
 2326SOL     OW 7358   2.240   0.598   5.287  0.4108 -0.3228 -0.1436
 2326SOL    HW1 7359   2.184   0.655   5.234 -0.1613  1.2414  2.0801
 2326SOL    HW2 7360   2.179   0.537   5.328  0.3350  1.1201  1.9569
 2327SOL     OW 7361   3.123   4.924   2.660  0.0104 -0.0719 -0.3061
 2327SOL    HW1 7362   3.196   4.913   2.721 -0.7854  1.2666  0.9016
 2327SOL    HW2 7363   3.108   5.018   2.656  0.3083 -0.0864 -2.9086
 2328SOL     OW 7364   2.784   4.437   2.157  0.3725 -0.1404 -0.1049
 2328SOL    HW1 7365   2.807   4.513   2.209  3.4826 -1.2578  0.2208
 2328SOL    HW2 7366   2.789   4.363   2.217  0.4158 -1.0031 -1.1381
 2329SOL     OW 7367   6.259   2.120   1.539  0.7715  0.4374  0.3469
 2329SOL    HW1 7368   6.264   2.212   1.565 -1.6527  0.7333 -0.0538
 2329SOL    HW2 7369   6.214   2.077   1.612  0.6676 -0.1472 -0.0564
 2330SOL     OW 7370   4.134   5.731   1.166 -0.5165 -0.1103 -0.0030
 2330SOL    HW1 7371   4.183   5.723   1.247 -0.3229 -2.5135 -0.3132
 2330SOL    HW2 7372   4.199   5.718   1.097 -1.0583 -0.3365 -0.4838
 2331SOL     OW 7373   5.072   0.785   6.253  0.3176  0.4017 -0.3318
 2331SOL    HW1 7374   5.013   0.856   6.280  1.0557  0.4072  1.3234
 2331SOL    HW2 7375   5.137   0.828   6.198  0.9879  1.0814  0.9881
 2332SOL     OW 7376   2.125   4.227   0.734 -0.7102 -0.2502 -0.1698
 2332SOL    HW1 7377   2.191   4.171   0.775 -0.4435  2.1908  2.9764
 2332SOL    HW2 7378   2.174   4.282   0.673 -0.5723 -1.5380 -1.2380
 2333SOL     OW 7379   6.279   2.287   5.100 -0.2921 -0.0911  0.3192
 2333SOL    HW1 7380   6.267   2.361   5.040  2.9189 -1.0866 -1.7005
 2333SOL    HW2 7381   6.305   2.326   5.183 -0.6922  1.1495 -0.1321
 2334SOL     OW 7382   5.642   3.931   1.531  0.4749  0.2231  0.6161
 2334SOL    HW1 7383   5.583   3.901   1.600  0.4656  2.8211  1.8032
 2334SOL    HW2 7384   5.605   3.896   1.451 -1.5353  0.0846  1.5690
 2335SOL     OW 7385   1.586   4.782   4.169  0.1966 -0.7561 -0.0155
 2335SOL    HW1 7386   1.535   4.744   4.099 -0.4431 -0.3623  0.2271
 2335SOL    HW2 7387   1.523   4.800   4.239  0.3108  1.5098 -0.4383
 2336SOL     OW 7388   2.339   3.365   4.312  0.2520  0.0354  0.3522
 2336SOL    HW1 7389   2.361   3.441   4.259  0.0687  0.5704  1.0450
 2336SOL    HW2 7390   2.246   3.350   4.296  0.6579 -1.0884 -1.1109
 2337SOL     OW 7391   1.167   1.091   1.413 -0.2831 -0.2934 -0.0285
 2337SOL    HW1 7392   1.204   1.179   1.411 -0.4890 -0.2066 -0.1324
 2337SOL    HW2 7393   1.203   1.047   1.336  0.2451 -0.4759  0.3274
 2338SOL     OW 7394   4.678   0.198   0.414 -0.9618  0.0053  0.4865
 2338SOL    HW1 7395   4.715   0.114   0.388  0.4204  0.1839  1.7495
 2338SOL    HW2 7396   4.645   0.236   0.333  3.0060  0.4775 -1.0267
 2339SOL     OW 7397   5.380   1.747   3.529  0.2430  0.3370 -0.1337
 2339SOL    HW1 7398   5.363   1.810   3.598 -0.7468  0.6274 -0.6379
 2339SOL    HW2 7399   5.467   1.770   3.496 -1.1956  3.1716 -2.1400
 2340SOL     OW 7400   3.931   5.804   0.410 -0.4585 -0.0168  0.0012
 2340SOL    HW1 7401   3.980   5.831   0.332 -0.9026  0.7666 -0.0067
 2340SOL    HW2 7402   3.840   5.827   0.391 -0.4967  0.6366  0.9589
 2341SOL     OW 7403   0.301   1.011   3.233 -0.2112 -0.0452 -0.3628
 2341SOL    HW1 7404   0.268   1.066   3.162  0.9222 -0.8194 -1.5113
 2341SOL    HW2 7405   0.298   0.922   3.197 -1.8352 -0.7331  1.3903
 2342SOL     OW 7406   0.702   2.061   0.465  0.0486  0.0051 -0.1365
 2342SOL    HW1 7407   0.656   2.086   0.545 -1.3339  1.1194 -1.2466
 2342SOL    HW2 7408   0.645   1.996   0.424  0.8148 -0.6612 -0.1343
 2343SOL     OW 7409   0.018   2.073   0.850 -0.3265  0.3350  0.8289
 2343SOL    HW1 7410   0.043   2.164   0.868 -0.2727  0.5529 -0.3049
 2343SOL    HW2 7411  -0.008   2.074   0.758  1.3640 -1.1739  0.3291
 2344SOL     OW 7412   0.257   2.745   5.106 -0.5070  0.2419  0.2991
 2344SOL    HW1 7413   0.269   2.808   5.035 -0.2036  1.2711  1.2409
 2344SOL    HW2 7414   0.286   2.793   5.185  0.2080 -1.2458  0.9569
 2345SOL     OW 7415   0.960   5.163   0.549  0.3283 -0.9050 -0.2063
 2345SOL    HW1 7416   0.981   5.247   0.589 -0.0965 -0.3334 -1.1609
 2345SOL    HW2 7417   0.871   5.144   0.578  0.9129 -1.6847  1.0996
 2346SOL     OW 7418   1.804   5.235   1.304 -0.3945 -0.4895 -0.0325
 2346SOL    HW1 7419   1.781   5.142   1.299  0.9376 -0.7927 -0.8442
 2346SOL    HW2 7420   1.892   5.240   1.267 -0.4473  1.1034  0.0051
 2347SOL     OW 7421   1.428   6.072   6.146  0.7596 -0.7288  0.3693
 2347SOL    HW1 7422   1.425   6.117   6.230 -1.2069 -1.7527  0.8845
 2347SOL    HW2 7423   1.379   6.129   6.086  0.5116 -0.9240  0.3863
 2348SOL     OW 7424   1.563   0.121   1.915 -0.0465  0.0496 -0.3940
 2348SOL    HW1 7425   1.555   0.196   1.855  1.0290 -0.0828 -0.7217
 2348SOL    HW2 7426   1.475   0.108   1.949  0.0381  2.5141  0.9206
 2349SOL     OW 7427   0.062   1.149   0.750 -0.1388 -0.2477 -0.2116
 2349SOL    HW1 7428   0.096   1.129   0.663 -2.3073 -0.5278 -1.0391
 2349SOL    HW2 7429  -0.022   1.192   0.734  0.5395  1.9263  1.7207
 2350SOL     OW 7430   4.320   3.778   2.193 -0.3712  0.4560  0.3665
 2350SOL    HW1 7431   4.351   3.692   2.221 -1.5206 -0.2561 -0.4730
 2350SOL    HW2 7432   4.395   3.819   2.150 -0.3876 -0.9839 -1.1035
 2351SOL     OW 7433   1.192   4.809   1.351 -0.1870  0.1854 -0.2457
 2351SOL    HW1 7434   1.099   4.822   1.334  0.4392  3.7316 -1.4175
 2351SOL    HW2 7435   1.228   4.779   1.268  0.0450  0.7956 -0.3679
 2352SOL     OW 7436   2.338   3.170   4.750  0.3213 -0.1710 -0.3705
 2352SOL    HW1 7437   2.338   3.251   4.699 -0.7437 -0.1468 -0.3258
 2352SOL    HW2 7438   2.408   3.117   4.711  0.9679  0.7321 -0.4479
 2353SOL     OW 7439   1.310   0.743   0.556  0.2114  0.3685  0.2902
 2353SOL    HW1 7440   1.320   0.744   0.461 -0.2512 -0.0526  0.2341
 2353SOL    HW2 7441   1.394   0.710   0.589  0.4503  0.7313  0.0378
 2354SOL     OW 7442   5.548   4.839   5.189  0.3581  0.1742 -0.1213
 2354SOL    HW1 7443   5.468   4.891   5.182  0.4688  0.8031  2.5277
 2354SOL    HW2 7444   5.549   4.784   5.111 -2.2686  0.6971 -0.5517
 2355SOL     OW 7445   6.229   5.575   3.518 -0.5823 -0.2740  0.4074
 2355SOL    HW1 7446   6.279   5.502   3.554  1.4539  1.5311  1.3716
 2355SOL    HW2 7447   6.193   5.620   3.594 -1.8180 -0.2500 -0.1760
 2356SOL     OW 7448   3.844   5.689   4.345  0.1377  0.1677  0.7121
 2356SOL    HW1 7449   3.846   5.665   4.438 -0.3838 -0.8692  0.4637
 2356SOL    HW2 7450   3.796   5.618   4.303 -1.3087  1.5654 -0.0799
 2357SOL     OW 7451   3.732   1.652   5.513  0.3789 -0.3733  0.5680
 2357SOL    HW1 7452   3.812   1.685   5.554  1.5143 -1.6283 -0.5778
 2357SOL    HW2 7453   3.760   1.624   5.425 -2.2750  3.6523 -1.6949
 2358SOL     OW 7454   3.621   3.089   1.984 -0.0484  0.0694 -0.3754
 2358SOL    HW1 7455   3.630   3.161   1.923  0.9901  1.5691  1.4969
 2358SOL    HW2 7456   3.568   3.123   2.055 -1.1380 -1.6068 -0.3468
 2359SOL     OW 7457   0.980   2.796   0.640 -0.4321 -0.0755 -0.1442
 2359SOL    HW1 7458   0.983   2.720   0.583  0.8854  0.3038 -0.6026
 2359SOL    HW2 7459   1.026   2.865   0.591 -2.5501  1.3482 -0.2110
 2360SOL     OW 7460   0.991   1.764   2.600  0.0919  0.1247 -0.0812
 2360SOL    HW1 7461   0.975   1.829   2.531  1.2973  0.1247 -0.3612
 2360SOL    HW2 7462   0.912   1.767   2.654 -1.4154 -0.7428 -2.1500
 2361SOL     OW 7463   4.864   0.684   3.618 -0.1480  0.4999 -0.5143
 2361SOL    HW1 7464   4.771   0.698   3.604 -0.0926  1.6728  0.2033
 2361SOL    HW2 7465   4.876   0.590   3.610 -1.3890  0.3456 -0.6131
 2362SOL     OW 7466   0.724   3.238   6.272 -0.2543 -0.0343 -0.2686
 2362SOL    HW1 7467   0.701   3.207   6.185 -0.2499 -0.2224 -0.2029
 2362SOL    HW2 7468   0.816   3.215   6.283 -0.2303  0.0696 -0.2488
 2363SOL     OW 7469   2.215   4.517   0.012  0.3216  0.2355  0.3583
 2363SOL    HW1 7470   2.123   4.493   0.003 -0.2055  2.6902 -1.1156
 2363SOL    HW2 7471   2.252   4.502  -0.075  1.5806 -1.5978  1.1565
 2364SOL     OW 7472   4.262   5.811   2.797 -0.0608 -0.0621  0.2167
 2364SOL    HW1 7473   4.253   5.717   2.782 -0.7469 -0.2839  1.8860
 2364SOL    HW2 7474   4.355   5.822   2.819 -0.0465 -0.4133  0.3485
 2365SOL     OW 7475   2.844   4.312   5.976  0.0455 -0.1046 -0.2670
 2365SOL    HW1 7476   2.780   4.299   5.906 -0.2540  1.7405 -0.3353
 2365SOL    HW2 7477   2.811   4.385   6.027 -0.0289 -1.7673  2.1769
 2366SOL     OW 7478   6.346   2.069   0.574 -0.2852  0.1695 -0.0058
 2366SOL    HW1 7479   6.380   1.990   0.531  0.9402  1.5351 -1.5901
 2366SOL    HW2 7480   6.251   2.063   0.563 -0.3014 -1.6992  0.9877
 2367SOL     OW 7481   3.740   6.006   1.767 -0.2927 -0.1323 -0.3155
 2367SOL    HW1 7482   3.689   5.933   1.801  1.6315 -1.4746 -0.2728
 2367SOL    HW2 7483   3.675   6.064   1.727 -1.9325 -1.3940  0.4773
 2368SOL     OW 7484   0.391   4.099   1.259  0.2724  0.0159  0.0318
 2368SOL    HW1 7485   0.306   4.062   1.285 -0.1593  0.7506 -0.3226
 2368SOL    HW2 7486   0.455   4.035   1.290 -0.4695 -1.0946 -0.6736
 2369SOL     OW 7487   0.802   5.402   3.777  0.1992  0.4256  0.1965
 2369SOL    HW1 7488   0.778   5.356   3.857 -0.8510  0.7932  0.1014
 2369SOL    HW2 7489   0.865   5.344   3.734  3.4276  1.7108  2.9078
 2370SOL     OW 7490   0.684   5.293   3.166 -0.3676  0.1131  0.4522
 2370SOL    HW1 7491   0.730   5.212   3.141  1.4927  1.3953 -0.3847
 2370SOL    HW2 7492   0.631   5.315   3.089  0.1903  0.4137  0.1449
 2371SOL     OW 7493   3.954   5.462   0.508  0.3040 -0.5036 -0.3870
 2371SOL    HW1 7494   4.034   5.411   0.495 -0.4685 -1.6027 -0.8971
 2371SOL    HW2 7495   3.950   5.519   0.431  0.6346 -0.3777 -0.3141
 2372SOL     OW 7496   5.545   4.403   1.359 -0.1428  0.2989  0.2216
 2372SOL    HW1 7497   5.453   4.420   1.380 -0.4021 -0.4735 -0.2735
 2372SOL    HW2 7498   5.542   4.337   1.290  0.7187  1.5543 -1.0639
 2373SOL     OW 7499   2.853   0.244   2.016 -0.3395  0.0824  0.2930
 2373SOL    HW1 7500   2.852   0.325   2.066  0.4842 -0.6126  1.4624
 2373SOL    HW2 7501   2.845   0.175   2.083 -0.7566 -0.8090 -0.6601
 2374SOL     OW 7502   0.346   3.940   3.595  0.2265 -0.0400  0.3766
 2374SOL    HW1 7503   0.314   3.996   3.666  1.3895 -0.0426  0.9184
 2374SOL    HW2 7504   0.293   3.861   3.601 -0.0969  0.2130  0.8572
 2375SOL     OW 7505   5.484   5.338   1.565  0.0258 -0.0250  0.0689
 2375SOL    HW1 7506   5.562   5.394   1.564  0.0486 -0.0320  0.8016
 2375SOL    HW2 7507   5.504   5.271   1.630 -0.1632 -0.6552 -0.5276
 2376SOL     OW 7508   1.450   3.138   6.070 -0.3844 -0.5750  0.2512
 2376SOL    HW1 7509   1.394   3.116   6.145 -1.2081  0.1682 -0.1373
 2376SOL    HW2 7510   1.392   3.184   6.009  0.7327  0.5108 -0.0086
 2377SOL     OW 7511   2.039   5.909   4.351  0.2858 -0.3855 -0.2132
 2377SOL    HW1 7512   2.027   5.980   4.288 -1.5108 -0.6225 -0.1617
 2377SOL    HW2 7513   2.111   5.938   4.407  0.8494  0.5259 -1.3858
 2378SOL     OW 7514   5.291   3.477   4.300 -0.0275 -0.4958  0.2249
 2378SOL    HW1 7515   5.357   3.531   4.256 -0.7268 -0.4504 -0.7967
 2378SOL    HW2 7516   5.333   3.391   4.310  1.0608  0.2076  1.7866
 2379SOL     OW 7517   5.893   2.171   4.654  0.7107  0.1389 -0.1826
 2379SOL    HW1 7518   5.927   2.092   4.613  0.6925 -0.3188  0.6722
 2379SOL    HW2 7519   5.970   2.224   4.671  0.8921 -0.4152  0.7426
 2380SOL     OW 7520   1.460   3.611   0.584  0.2336  0.2492 -0.0630
 2380SOL    HW1 7521   1.494   3.661   0.658 -0.4207 -2.2511  2.0173
 2380SOL    HW2 7522   1.395   3.668   0.544 -0.4286  1.1287  2.1754
 2381SOL     OW 7523   5.382   1.331   1.158 -0.1621  0.3718 -0.3570
 2381SOL    HW1 7524   5.364   1.335   1.251 -0.2945  1.3690 -0.4258
 2381SOL    HW2 7525   5.454   1.268   1.150 -1.6297 -1.4414  0.1872
 2382SOL     OW 7526   5.917   6.275   1.834 -0.3693  0.7912 -0.3503
 2382SOL    HW1 7527   5.878   6.189   1.849 -0.0769  0.7582  0.2301
 2382SOL    HW2 7528   6.008   6.265   1.860 -0.6154  1.5957  0.8540
 2383SOL     OW 7529   5.659   6.155   0.843 -0.2298 -0.3364  0.0961
 2383SOL    HW1 7530   5.710   6.205   0.779  1.2632  0.2092  1.6890
 2383SOL    HW2 7531   5.587   6.212   0.867 -0.1778 -0.1125 -0.2704
 2384SOL     OW 7532   2.832   5.880   5.813  0.2469  0.3984  0.0074
 2384SOL    HW1 7533   2.860   5.853   5.901  1.8024  0.7947 -0.3507
 2384SOL    HW2 7534   2.900   5.941   5.784 -0.1730  0.1576 -1.5336
 2385SOL     OW 7535   5.821   2.735   2.012  0.0212  0.1757  0.5738
 2385SOL    HW1 7536   5.858   2.665   1.960 -0.8362 -0.4835  0.8452
 2385SOL    HW2 7537   5.896   2.791   2.034  0.0650  1.7653 -3.3109
 2386SOL     OW 7538   4.548   0.350   3.543  0.7969 -0.1765 -0.3197
 2386SOL    HW1 7539   4.488   0.399   3.487  1.0905  0.6275  0.0673
 2386SOL    HW2 7540   4.493   0.286   3.588  0.1127  1.0008  0.5357
 2387SOL     OW 7541   3.102   1.025   2.771  0.3597 -0.3420  0.1117
 2387SOL    HW1 7542   3.064   1.057   2.689 -0.0559  1.0151  0.8161
 2387SOL    HW2 7543   3.158   0.951   2.745  0.7855  0.5186 -1.4617
 2388SOL     OW 7544   3.175   4.577   5.048  0.1987  0.1335 -0.1213
 2388SOL    HW1 7545   3.113   4.639   5.011  1.2020  0.8347 -0.6339
 2388SOL    HW2 7546   3.120   4.504   5.077 -1.0186  1.3489  0.7180
 2389SOL     OW 7547   5.028   4.514   4.621  0.2614 -0.3365 -0.2834
 2389SOL    HW1 7548   4.939   4.515   4.587  0.3968 -1.7023 -0.7158
 2389SOL    HW2 7549   5.073   4.584   4.574 -0.5491  0.2614 -0.1676
 2390SOL     OW 7550   2.866   4.777   4.530 -0.0845  0.5159 -0.4210
 2390SOL    HW1 7551   2.939   4.753   4.586  1.4402  0.3854 -2.3924
 2390SOL    HW2 7552   2.809   4.830   4.585  2.3125  1.9595  0.7201
 2391SOL     OW 7553   5.573   3.755   3.319  0.5511  0.1339  0.3572
 2391SOL    HW1 7554   5.621   3.773   3.238  1.0403 -0.4100  0.5246
 2391SOL    HW2 7555   5.497   3.814   3.315  2.2185  2.4171  1.0134
 2392SOL     OW 7556   4.889   4.502   5.958 -0.5704  0.2146  0.6345
 2392SOL    HW1 7557   4.831   4.532   5.888 -1.6340  1.6412  2.0984
 2392SOL    HW2 7558   4.850   4.537   6.038  1.4440 -0.1543  1.8003
 2393SOL     OW 7559   2.442   4.149   1.127  0.6653 -0.4587  0.1875
 2393SOL    HW1 7560   2.402   4.215   1.184  0.6614 -0.2348 -0.0732
 2393SOL    HW2 7561   2.532   4.140   1.160  0.3995 -0.9915  0.8012
 2394SOL     OW 7562   4.516   2.575   1.002 -0.3548 -0.1774  0.2371
 2394SOL    HW1 7563   4.534   2.624   1.082  0.9436 -0.6872  0.2733
 2394SOL    HW2 7564   4.423   2.589   0.986 -0.2137  1.5013  0.7648
 2395SOL     OW 7565   5.800   1.583   1.724  0.5980 -0.2736 -0.1441
 2395SOL    HW1 7566   5.718   1.535   1.721  0.8444 -0.8353  1.3504
 2395SOL    HW2 7567   5.861   1.523   1.766  1.6225  0.3487 -0.7216
 2396SOL     OW 7568   2.526   3.234   3.141 -0.2746  0.7486  0.1578
 2396SOL    HW1 7569   2.468   3.161   3.118 -0.4152  0.5647  1.0842
 2396SOL    HW2 7570   2.599   3.192   3.187 -0.5975  1.2383  1.1405
 2397SOL     OW 7571   6.181   3.933   3.973  0.4645 -0.5010 -0.2966
 2397SOL    HW1 7572   6.262   3.984   3.971 -0.3169  0.7395 -0.6102
 2397SOL    HW2 7573   6.149   3.934   3.883  0.9476 -2.3989 -0.5105
 2398SOL     OW 7574   2.461   3.011   1.210 -0.5907  0.0095  0.2375
 2398SOL    HW1 7575   2.512   2.931   1.207  0.1091  0.4857 -0.7980
 2398SOL    HW2 7576   2.386   2.990   1.265 -0.3917 -1.3353 -0.0010
 2399SOL     OW 7577   2.104   0.690   3.257 -0.2407 -0.4305 -0.4957
 2399SOL    HW1 7578   2.028   0.659   3.307 -0.2429 -0.2902 -0.4105
 2399SOL    HW2 7579   2.178   0.674   3.315 -0.2678 -0.0724 -0.3630
 2400SOL     OW 7580   4.996   4.536   2.821  0.3590 -0.3821 -0.1134
 2400SOL    HW1 7581   5.045   4.454   2.828  0.0654 -0.6366 -0.9128
 2400SOL    HW2 7582   4.936   4.521   2.748  0.7094  0.7486 -0.6455
 2401SOL     OW 7583   4.562   1.131   2.399 -0.5850  0.2020  0.2267
 2401SOL    HW1 7584   4.488   1.074   2.379 -1.2283  0.9685  0.3889
 2401SOL    HW2 7585   4.562   1.196   2.328 -0.7980  0.8971  0.8499
 2402SOL     OW 7586   0.113   2.371   0.891  0.0728 -0.3544 -0.5315
 2402SOL    HW1 7587   0.106   2.349   0.984 -1.3109 -3.1495 -1.2267
 2402SOL    HW2 7588   0.203   2.403   0.880  0.7832 -1.5712  1.4762
 2403SOL     OW 7589   5.943   4.895   2.543  0.4616 -0.1970  0.7832
 2403SOL    HW1 7590   6.031   4.906   2.580  1.4352 -2.2915 -0.7822
 2403SOL    HW2 7591   5.908   4.819   2.588  0.2839 -0.6320 -0.0831
 2404SOL     OW 7592   1.371   6.194   4.342 -0.2677  0.1579 -0.0431
 2404SOL    HW1 7593   1.447   6.205   4.285  0.4541 -0.8361  0.7079
 2404SOL    HW2 7594   1.352   6.282   4.374  0.1863  0.5045 -0.7190
 2405SOL     OW 7595   1.666   3.004   5.492  0.2603 -0.0320  0.1124
 2405SOL    HW1 7596   1.626   2.982   5.407  0.0065  2.1069 -0.3438
 2405SOL    HW2 7597   1.760   2.997   5.477  0.2621  1.5846 -0.7198
 2406SOL     OW 7598   3.460   3.919   3.996 -0.2729 -0.0260 -0.0964
 2406SOL    HW1 7599   3.505   3.945   4.076  0.1630  1.6615 -0.8770
 2406SOL    HW2 7600   3.391   3.859   4.026  2.2910 -2.4901  1.1487
 2407SOL     OW 7601   5.816   4.761   5.692 -0.3638 -0.3381  0.2183
 2407SOL    HW1 7602   5.790   4.669   5.685 -0.4387 -0.2192 -1.3540
 2407SOL    HW2 7603   5.907   4.762   5.662 -0.4057  0.1237  0.1015
 2408SOL     OW 7604   3.743   1.898   5.824  0.0283  0.1254 -0.3356
 2408SOL    HW1 7605   3.791   1.827   5.867 -1.0238 -0.1217  0.4758
 2408SOL    HW2 7606   3.667   1.854   5.785 -0.0582  0.6463 -0.7523
 2409SOL     OW 7607   5.851   0.022   0.416 -0.1627  0.4113 -0.2620
 2409SOL    HW1 7608   5.863  -0.045   0.348 -0.6760  0.0202  0.0398
 2409SOL    HW2 7609   5.841   0.104   0.366  1.5499  0.4431 -0.6054
 2410SOL     OW 7610   3.048   5.852   6.244 -0.4455  0.1924  0.5579
 2410SOL    HW1 7611   3.141   5.839   6.263 -0.5621  0.5117  1.3768
 2410SOL    HW2 7612   3.006   5.859   6.330 -0.9947  1.5891  0.2048
 2411SOL     OW 7613   2.481   3.453   0.245  0.1431  0.1023 -0.5107
 2411SOL    HW1 7614   2.566   3.426   0.279 -0.1063 -1.6650 -1.2482
 2411SOL    HW2 7615   2.417   3.412   0.302 -0.2370  1.8044  0.3222
 2412SOL     OW 7616   2.282   5.399   5.339  0.4289  0.4319  0.6514
 2412SOL    HW1 7617   2.295   5.310   5.307  0.2614  1.1720 -1.5374
 2412SOL    HW2 7618   2.368   5.440   5.329  0.8015  0.2086  2.7329
 2413SOL     OW 7619   5.645   3.203   1.164  0.6714  0.5588 -0.6135
 2413SOL    HW1 7620   5.664   3.257   1.087 -0.0896 -0.0346 -1.2343
 2413SOL    HW2 7621   5.721   3.146   1.173  1.6093  1.8976  0.2130
 2414SOL     OW 7622   5.732   3.031   3.752 -0.6204  0.3397  0.2694
 2414SOL    HW1 7623   5.719   2.988   3.667 -0.2316 -0.4642  0.6143
 2414SOL    HW2 7624   5.743   2.960   3.814  0.5587  0.9405  0.7628
 2415SOL     OW 7625   3.284   2.641   6.230  0.8475 -1.1286 -0.8948
 2415SOL    HW1 7626   3.305   2.660   6.321  1.0495 -1.4714 -0.8696
 2415SOL    HW2 7627   3.342   2.568   6.206  0.3414 -1.4711 -1.1022
 2416SOL     OW 7628   1.895   0.504   3.140 -0.2633 -0.0315 -0.4574
 2416SOL    HW1 7629   1.900   0.518   3.235  0.5725 -0.9070 -0.3666
 2416SOL    HW2 7630   1.974   0.455   3.119 -0.5106  0.0533 -1.5963
 2417SOL     OW 7631   0.494   0.544   2.338 -0.1600 -0.0844  0.5140
 2417SOL    HW1 7632   0.433   0.535   2.412  0.3877 -0.2721  0.9489
 2417SOL    HW2 7633   0.578   0.565   2.379  0.4029 -1.3173  0.0149
 2418SOL     OW 7634   4.112   4.690   2.910  0.0259  0.5755 -0.5115
 2418SOL    HW1 7635   4.191   4.743   2.907  1.4390 -1.2902  1.7310
 2418SOL    HW2 7636   4.130   4.617   2.850  0.0988  0.0591  0.1317
 2419SOL     OW 7637   3.195   1.156   0.125  0.1728 -0.4402 -0.7762
 2419SOL    HW1 7638   3.207   1.090   0.194  0.5138 -1.3001 -1.6499
 2419SOL    HW2 7639   3.277   1.205   0.124 -0.1513  0.1286  0.0038
 2420SOL     OW 7640   1.622   6.073   3.936 -0.1934  0.0029 -0.0423
 2420SOL    HW1 7641   1.704   6.122   3.944  0.0044 -0.3963  0.3740
 2420SOL    HW2 7642   1.647   5.994   3.888  0.1018 -1.1398  1.9417
 2421SOL     OW 7643   1.855   3.231   0.705 -0.0219  0.4315  0.3566
 2421SOL    HW1 7644   1.849   3.257   0.797 -0.0565  0.2597  0.4019
 2421SOL    HW2 7645   1.948   3.236   0.685 -0.1560  1.8288  0.0163
 2422SOL     OW 7646   2.505   1.793   2.261  0.6405 -0.8106 -0.9537
 2422SOL    HW1 7647   2.433   1.855   2.246  1.9239  0.9003 -0.2546
 2422SOL    HW2 7648   2.580   1.849   2.282  1.5430 -2.6721  0.8931
 2423SOL     OW 7649   4.196   1.259   4.536 -0.4133 -0.0184  0.2179
 2423SOL    HW1 7650   4.238   1.246   4.451 -1.8754  0.5173 -0.6062
 2423SOL    HW2 7651   4.168   1.171   4.562  0.5295 -0.2634  0.4023
 2424SOL     OW 7652   2.118   3.418   0.684  0.3146 -0.1757  0.8216
 2424SOL    HW1 7653   2.209   3.388   0.688  0.2875 -0.4167 -0.1835
 2424SOL    HW2 7654   2.118   3.490   0.622 -0.3086 -0.6876  0.2068
 2425SOL     OW 7655   3.800   2.922   2.490  0.0110  0.0151 -0.4697
 2425SOL    HW1 7656   3.807   2.970   2.573 -0.9155 -0.8929  0.1450
 2425SOL    HW2 7657   3.807   2.990   2.423  0.5500  0.7890  0.3578
 2426SOL     OW 7658   0.623   5.311   1.957  0.3560  0.4050  0.9284
 2426SOL    HW1 7659   0.706   5.279   1.920 -0.5129 -0.1344 -0.6010
 2426SOL    HW2 7660   0.626   5.405   1.943  0.3601  0.2915  0.1452
 2427SOL     OW 7661   5.709   3.378   5.119 -0.0325 -0.0482 -0.0125
 2427SOL    HW1 7662   5.739   3.390   5.029  0.0357 -2.1485 -0.2728
 2427SOL    HW2 7663   5.630   3.325   5.112 -0.9254  1.0867  1.0737
 2428SOL     OW 7664   2.366   4.368   5.436 -0.0423  0.0094 -0.1180
 2428SOL    HW1 7665   2.388   4.373   5.343 -0.1329  0.2705 -0.1269
 2428SOL    HW2 7666   2.442   4.407   5.480  1.2371 -2.5610  0.0916
 2429SOL     OW 7667   3.629   2.993   4.789  0.5184 -0.2006 -0.4325
 2429SOL    HW1 7668   3.552   3.032   4.829  2.0108  1.7784  0.5936
 2429SOL    HW2 7669   3.636   3.034   4.703  0.4437 -0.3596 -0.5147
 2430SOL     OW 7670   5.077   3.742   0.433 -0.1183 -0.2745  0.0117
 2430SOL    HW1 7671   5.107   3.665   0.385  1.3375 -0.3443  1.0011
 2430SOL    HW2 7672   5.106   3.727   0.523 -1.1762  0.7135  0.5304
 2431SOL     OW 7673   0.386   1.753   6.306  0.4659 -0.4451 -0.7712
 2431SOL    HW1 7674   0.300   1.761   6.264  0.5366  2.0612 -0.5390
 2431SOL    HW2 7675   0.367   1.724   6.395  0.0350 -2.0957 -1.3926
 2432SOL     OW 7676   1.442   1.679   0.057 -0.0747  0.6667  0.3520
 2432SOL    HW1 7677   1.497   1.686  -0.022  0.1710  0.4602  0.5033
 2432SOL    HW2 7678   1.404   1.592   0.051 -2.6354  1.8204 -1.2128
 2433SOL     OW 7679   2.901   2.242   4.310  0.1803 -0.0051 -0.1238
 2433SOL    HW1 7680   2.897   2.147   4.308  0.4471 -0.0122 -0.1913
 2433SOL    HW2 7681   2.907   2.269   4.219  1.3694  0.0301 -0.0389
 2434SOL     OW 7682   1.636   5.993   0.001 -0.5872  0.4561  0.3656
 2434SOL    HW1 7683   1.658   6.048  -0.075  1.7540 -2.0635 -0.8827
 2434SOL    HW2 7684   1.570   5.932  -0.032  0.4369 -0.6427  0.3061
 2435SOL     OW 7685   4.410   2.025   4.797 -0.3819 -0.1332 -0.3806
 2435SOL    HW1 7686   4.412   1.958   4.729 -0.6951 -1.2093  0.6568
 2435SOL    HW2 7687   4.477   1.998   4.860  0.0626  0.9729 -0.3695
 2436SOL     OW 7688   3.122   4.112   1.852 -0.1003 -0.0772 -0.5170
 2436SOL    HW1 7689   3.063   4.163   1.798  0.2031 -0.5770 -1.3400
 2436SOL    HW2 7690   3.072   4.092   1.931 -0.0922  1.7725 -0.0263
 2437SOL     OW 7691   0.289   2.040   0.727 -0.3075  0.0871  0.2132
 2437SOL    HW1 7692   0.272   2.107   0.792  0.0767  0.8201 -0.4309
 2437SOL    HW2 7693   0.261   2.080   0.644  0.6469 -0.2564 -0.2742
 2438SOL     OW 7694   0.573   3.567   5.750  0.4060 -0.1337  0.0941
 2438SOL    HW1 7695   0.582   3.574   5.655  0.3390 -0.7161  0.0419
 2438SOL    HW2 7696   0.503   3.503   5.763 -0.7735  1.1993  0.5240
 2439SOL     OW 7697   2.835   4.476   3.043 -0.6122  0.3360  0.4026
 2439SOL    HW1 7698   2.849   4.526   3.123 -1.3618 -0.9723  1.3825
 2439SOL    HW2 7699   2.866   4.388   3.065 -4.9570 -1.2110  0.7962
 2440SOL     OW 7700   4.988   3.419   3.793  0.0567  0.2504  0.3119
 2440SOL    HW1 7701   4.957   3.494   3.844 -2.3353 -0.6162  0.1976
 2440SOL    HW2 7702   5.002   3.351   3.859 -2.7387 -0.7735 -0.0754
 2441SOL     OW 7703   0.396   0.147   3.456  0.0503 -0.5967 -0.1680
 2441SOL    HW1 7704   0.413   0.114   3.544  0.2696  0.0078  0.0208
 2441SOL    HW2 7705   0.301   0.159   3.453  0.2871  2.0574  0.9796
 2442SOL     OW 7706   5.915   2.006   0.417 -0.0489 -0.2041 -0.4471
 2442SOL    HW1 7707   5.931   2.076   0.354  0.7980 -0.3336 -0.3757
 2442SOL    HW2 7708   5.827   1.975   0.396 -0.3478  0.7499 -0.5996
 2443SOL     OW 7709   4.006   2.464   3.116  0.2272  0.5083 -0.0119
 2443SOL    HW1 7710   4.060   2.521   3.171 -0.3681  2.4736 -1.4057
 2443SOL    HW2 7711   3.941   2.427   3.176  1.6935 -0.0894  1.2418
 2444SOL     OW 7712   0.576   4.459   3.518 -0.3518 -0.3719  0.0258
 2444SOL    HW1 7713   0.554   4.507   3.598  0.4203  0.4814 -0.2630
 2444SOL    HW2 7714   0.518   4.496   3.452 -0.6720 -0.7573  0.0917
 2445SOL     OW 7715   2.065   5.713   2.750  0.6616  0.3489 -0.4597
 2445SOL    HW1 7716   2.115   5.784   2.711  1.0315 -0.6692 -1.9125
 2445SOL    HW2 7717   2.111   5.633   2.723 -0.1741 -0.4672  0.4834
 2446SOL     OW 7718   3.673   0.546   0.383  1.3327  0.7690 -0.0776
 2446SOL    HW1 7719   3.609   0.558   0.312  0.9833 -0.7368 -0.0289
 2446SOL    HW2 7720   3.721   0.629   0.385  1.9470  0.5321 -2.6698
 2447SOL     OW 7721   2.616   0.767   3.298  0.0242  0.1856 -0.2912
 2447SOL    HW1 7722   2.705   0.803   3.301 -1.3379  3.8063  0.0357
 2447SOL    HW2 7723   2.562   0.842   3.274 -3.0432 -1.7865  0.2534
 2448SOL     OW 7724   6.334   3.574   5.700 -0.1242 -0.2142  0.3612
 2448SOL    HW1 7725   6.408   3.572   5.639 -1.3345  0.5931 -1.1516
 2448SOL    HW2 7726   6.339   3.491   5.746  2.3477  0.2603  1.0284
 2449SOL     OW 7727   6.009   0.770   0.304 -0.1157 -0.5063  0.3208
 2449SOL    HW1 7728   5.941   0.830   0.273 -0.2650  0.3433  2.1821
 2449SOL    HW2 7729   5.969   0.726   0.379  0.2788 -2.3780 -0.5465
 2450SOL     OW 7730   4.401   0.164   2.523 -0.1237 -0.3192  0.3141
 2450SOL    HW1 7731   4.340   0.214   2.469  0.1811  0.8410  1.0322
 2450SOL    HW2 7732   4.487   0.184   2.487 -0.1894 -2.4732 -1.1196
 2451SOL     OW 7733   4.215   2.912   0.856  0.0556 -0.2519  0.3363
 2451SOL    HW1 7734   4.236   2.950   0.942 -0.7259 -0.4709  0.6285
 2451SOL    HW2 7735   4.120   2.916   0.851 -0.0690 -2.4080  0.4755
 2452SOL     OW 7736   4.306   0.206   4.564  0.1418 -0.5697 -0.0966
 2452SOL    HW1 7737   4.309   0.173   4.654 -0.6640  1.4265  0.7071
 2452SOL    HW2 7738   4.383   0.168   4.522  0.4535 -1.6446  1.4049
 2453SOL     OW 7739   0.049   2.845   3.142 -0.1302 -0.1760  0.1682
 2453SOL    HW1 7740   0.051   2.920   3.082  1.0639  0.3751  0.8769
 2453SOL    HW2 7741   0.106   2.780   3.101 -0.6618 -0.4527 -0.1322
 2454SOL     OW 7742   5.422   3.626   5.536 -0.1541 -0.5589 -0.2332
 2454SOL    HW1 7743   5.455   3.634   5.447  0.5576  1.0303  0.1536
 2454SOL    HW2 7744   5.484   3.567   5.580 -0.7101 -1.6357 -0.8636
 2455SOL     OW 7745   5.420   5.637   0.231  0.3862  0.0126 -0.4218
 2455SOL    HW1 7746   5.447   5.559   0.279  1.0705  0.1724 -0.5358
 2455SOL    HW2 7747   5.342   5.669   0.277 -0.4633 -1.2787 -0.9470
 2456SOL     OW 7748   1.552   0.846   5.421 -0.2768  0.0503  0.2150
 2456SOL    HW1 7749   1.511   0.857   5.335 -1.1309 -0.0133  0.6088
 2456SOL    HW2 7750   1.615   0.918   5.427  1.7007 -1.4695 -1.5358
 2457SOL     OW 7751   6.137   0.273   1.868  0.3504  0.5081 -0.1791
 2457SOL    HW1 7752   6.159   0.318   1.950  0.6694 -0.6090  0.3655
 2457SOL    HW2 7753   6.212   0.290   1.811  1.4541 -1.0640  0.7540
 2458SOL     OW 7754   0.260   5.857   6.071  0.5117  0.3316  0.5448
 2458SOL    HW1 7755   0.338   5.902   6.038  1.0704  0.1790  1.6361
 2458SOL    HW2 7756   0.280   5.764   6.060  0.1210  0.3107  0.0133
 2459SOL     OW 7757   4.783   2.635   2.564 -0.0399 -0.6677 -0.1279
 2459SOL    HW1 7758   4.725   2.628   2.640 -0.5627 -1.1470 -0.5657
 2459SOL    HW2 7759   4.745   2.576   2.500 -0.8630  1.3300 -1.5513
 2460SOL     OW 7760   2.063   2.019   1.913  0.6957  0.0786  0.4144
 2460SOL    HW1 7761   2.018   2.082   1.858  0.7298  1.0880  1.5193
 2460SOL    HW2 7762   2.021   2.027   1.999  0.5714 -1.5355  0.5268
 2461SOL     OW 7763   1.107   5.308   1.276  0.0026  0.6108 -0.0969
 2461SOL    HW1 7764   1.145   5.227   1.310 -1.2339 -0.4536 -1.1907
 2461SOL    HW2 7765   1.178   5.350   1.228  1.0193  0.8292  1.5575
 2462SOL     OW 7766   0.444   5.100   3.351  0.5109 -0.0290 -0.1838
 2462SOL    HW1 7767   0.451   5.040   3.425 -0.0537 -1.6568 -1.4113
 2462SOL    HW2 7768   0.532   5.135   3.339  1.3950 -2.4683 -0.9532
 2463SOL     OW 7769   2.391   1.040   3.201 -0.0619 -0.1462 -0.5504
 2463SOL    HW1 7770   2.412   1.091   3.279  1.5795 -1.4804 -0.1039
 2463SOL    HW2 7771   2.308   0.998   3.222  0.2920 -0.3717  0.4172
 2464SOL     OW 7772   5.736   1.866   1.259  0.2186  0.2704  0.2322
 2464SOL    HW1 7773   5.685   1.810   1.200 -0.3844 -0.8161  1.7398
 2464SOL    HW2 7774   5.824   1.866   1.222  0.3888 -2.2335  0.5416
 2465SOL     OW 7775   4.158   1.861   4.052 -0.2829 -0.2416  0.0260
 2465SOL    HW1 7776   4.142   1.809   3.973 -1.1556 -1.8016  1.2073
 2465SOL    HW2 7777   4.238   1.825   4.089 -1.0486 -0.9508  1.0090
 2466SOL     OW 7778   5.562   5.108   4.683 -0.0455  0.4454  0.1040
 2466SOL    HW1 7779   5.608   5.185   4.650 -0.3669 -0.7506 -3.3029
 2466SOL    HW2 7780   5.470   5.126   4.664 -0.1848 -0.4950 -0.1029
 2467SOL     OW 7781   2.497   4.513   5.779 -0.1438 -0.2163  0.1553
 2467SOL    HW1 7782   2.558   4.567   5.829 -0.1303 -1.5368  1.6057
 2467SOL    HW2 7783   2.548   4.481   5.704  0.2965  0.4663  0.1603
 2468SOL     OW 7784   0.312   5.556   5.506 -0.1385  0.5694  0.8416
 2468SOL    HW1 7785   0.226   5.587   5.533 -0.2275 -0.4436  1.7345
 2468SOL    HW2 7786   0.298   5.519   5.419 -0.6740  0.0677  1.1411
 2469SOL     OW 7787   1.725   2.691   4.960  0.2747  0.3808  0.2174
 2469SOL    HW1 7788   1.635   2.657   4.954  0.1994  0.0459  2.7395
 2469SOL    HW2 7789   1.772   2.645   4.892 -1.6418  1.1615 -1.7079
 2470SOL     OW 7790   6.310   2.308   3.515 -0.0894  0.5313 -0.3521
 2470SOL    HW1 7791   6.353   2.253   3.449 -0.3559 -0.5670  0.3655
 2470SOL    HW2 7792   6.217   2.291   3.504 -0.1947  1.0799 -0.3227
 2471SOL     OW 7793   4.982   5.208   0.818  0.6145  0.1187  0.5670
 2471SOL    HW1 7794   5.065   5.203   0.867  0.9433  0.4071  0.0380
 2471SOL    HW2 7795   4.978   5.298   0.787 -0.3883  0.3913  1.4355
 2472SOL     OW 7796   1.367   0.534   0.795  0.3208 -0.2278 -0.0441
 2472SOL    HW1 7797   1.298   0.484   0.751  0.4996 -0.0831 -0.4929
 2472SOL    HW2 7798   1.436   0.542   0.730 -0.0446  1.3100 -0.2716
 2473SOL     OW 7799   6.379   2.920   2.487  0.5143  0.0926  0.1580
 2473SOL    HW1 7800   6.361   2.826   2.476  1.3360 -0.3385  2.2630
 2473SOL    HW2 7801   6.445   2.939   2.421  2.6707 -1.5660  1.7567
 2474SOL     OW 7802   6.003   3.132   2.759  0.4194 -0.1767  0.1464
 2474SOL    HW1 7803   5.988   3.044   2.794 -1.7581  1.0168  2.3686
 2474SOL    HW2 7804   5.953   3.135   2.678 -0.9273 -0.4311  0.9600
 2475SOL     OW 7805   5.343   0.813   4.002  0.1063  0.5340  0.6801
 2475SOL    HW1 7806   5.318   0.722   4.023 -0.1344  0.3578 -0.3651
 2475SOL    HW2 7807   5.265   0.850   3.962  0.1869  1.2316  1.1647
 2476SOL     OW 7808   5.475   3.523   1.746  0.4030  0.1749  0.5378
 2476SOL    HW1 7809   5.496   3.536   1.838 -0.3280  0.0028  0.7357
 2476SOL    HW2 7810   5.379   3.512   1.744  0.4895 -0.5741 -0.1444
 2477SOL     OW 7811   6.049   5.719   0.969 -0.4742 -0.7871 -0.2585
 2477SOL    HW1 7812   5.959   5.728   0.940 -0.0435  0.7465 -1.2103
 2477SOL    HW2 7813   6.045   5.733   1.064 -0.8815  2.5043 -0.6891
 2478SOL     OW 7814   1.203   4.481   0.894 -0.2497  0.0044 -0.6352
 2478SOL    HW1 7815   1.177   4.571   0.875 -2.4968 -0.0446  2.0491
 2478SOL    HW2 7816   1.124   4.429   0.876 -0.4475 -0.8126  2.4220
 2479SOL     OW 7817   4.357   3.809   0.939  0.3316 -0.3956 -0.3964
 2479SOL    HW1 7818   4.315   3.725   0.956 -2.6607  0.3707 -3.1887
 2479SOL    HW2 7819   4.287   3.873   0.953  1.9384  1.4068 -0.4628
 2480SOL     OW 7820   3.166   4.564   3.601  0.0413  0.0881 -0.1861
 2480SOL    HW1 7821   3.197   4.649   3.632  0.7646 -0.4172  0.4674
 2480SOL    HW2 7822   3.222   4.500   3.644 -1.9782 -0.8456  1.1096
 2481SOL     OW 7823   4.752   0.722   1.521 -0.0818 -0.6773 -0.3537
 2481SOL    HW1 7824   4.763   0.755   1.432 -1.4724  0.3923 -0.1366
 2481SOL    HW2 7825   4.701   0.789   1.566  0.8880 -1.0542  1.3536
 2482SOL     OW 7826   1.644   4.648   0.343  0.0523  0.1832  0.4206
 2482SOL    HW1 7827   1.617   4.674   0.431  0.2556  1.3345  0.1450
 2482SOL    HW2 7828   1.582   4.580   0.318  0.1445 -0.3322  1.5487
 2483SOL     OW 7829   5.618   1.349   6.012 -0.3176 -0.5749 -0.0466
 2483SOL    HW1 7830   5.639   1.386   5.926  2.4583  2.0892  1.6399
 2483SOL    HW2 7831   5.595   1.258   5.994 -0.6388  0.1339 -3.6716
 2484SOL     OW 7832   0.488   0.419   1.584  0.8748  0.1630 -0.0879
 2484SOL    HW1 7833   0.521   0.350   1.527 -0.2395 -0.0228 -0.5232
 2484SOL    HW2 7834   0.535   0.407   1.666  0.2737 -1.4947  0.0316
 2485SOL     OW 7835   6.047   1.636   5.709  0.7402  0.1338 -0.4108
 2485SOL    HW1 7836   5.965   1.641   5.758  1.7421  1.3445  1.1967
 2485SOL    HW2 7837   6.020   1.641   5.618 -1.1983 -2.5898 -0.0584
 2486SOL     OW 7838   2.547   0.461   0.157 -0.5472 -0.1636 -0.4741
 2486SOL    HW1 7839   2.512   0.438   0.243 -2.1034 -1.4287 -1.4323
 2486SOL    HW2 7840   2.535   0.383   0.104  2.0811 -0.0051 -1.3607
 2487SOL     OW 7841   2.820   6.320   5.297 -1.2211  0.0480 -0.0277
 2487SOL    HW1 7842   2.799   6.304   5.389  0.0677 -1.5698  0.0089
 2487SOL    HW2 7843   2.905   6.364   5.300 -2.0468  1.7255 -0.3911
 2488SOL     OW 7844   3.391   2.274   1.805  0.3261 -0.0672  0.0250
 2488SOL    HW1 7845   3.484   2.293   1.793  0.7358 -2.0200 -0.2064
 2488SOL    HW2 7846   3.363   2.332   1.875  1.2058  2.0141 -1.2960
 2489SOL     OW 7847   6.052   3.025   4.047  0.0729  0.6971 -0.3349
 2489SOL    HW1 7848   6.011   3.039   3.962  1.0861  1.4460 -0.7012
 2489SOL    HW2 7849   6.029   2.935   4.069 -0.9611  0.7883 -0.9722
 2490SOL     OW 7850   4.358   0.546   1.168  0.5916 -0.1141 -0.1565
 2490SOL    HW1 7851   4.412   0.610   1.213  1.8395  0.4100 -2.3398
 2490SOL    HW2 7852   4.409   0.520   1.092 -2.7976  1.4597 -3.0944
 2491SOL     OW 7853   5.701   2.484   4.808  0.0743 -0.4527 -0.1162
 2491SOL    HW1 7854   5.662   2.408   4.764 -1.2667 -0.0072  0.2800
 2491SOL    HW2 7855   5.795   2.467   4.806 -0.0758 -1.1891 -1.7675
 2492SOL     OW 7856   5.026   2.791   3.967  0.2252  0.2852 -0.2741
 2492SOL    HW1 7857   5.040   2.863   4.028  0.1470  0.2317 -0.1928
 2492SOL    HW2 7858   4.981   2.832   3.893 -0.4924  0.1750  0.0978
 2493SOL     OW 7859   4.442   4.359   0.034  0.0253 -0.0978  0.2049
 2493SOL    HW1 7860   4.533   4.374   0.062  0.5253 -1.5700 -0.5782
 2493SOL    HW2 7861   4.429   4.265   0.045 -1.0395 -0.0678 -0.7706
 2494SOL     OW 7862   1.987   5.401   2.106 -0.2068 -0.3380  0.2478
 2494SOL    HW1 7863   2.047   5.476   2.099 -1.3578  0.5848  0.1476
 2494SOL    HW2 7864   2.037   5.335   2.153  1.0508  0.2602 -0.2229
 2495SOL     OW 7865   6.063   1.987   4.815 -0.0377 -0.1829 -0.3232
 2495SOL    HW1 7866   6.109   1.989   4.899 -0.0731  0.2475 -0.3164
 2495SOL    HW2 7867   6.091   2.066   4.769 -1.3101  0.4620 -0.0264
 2496SOL     OW 7868   0.586   4.268   2.374 -0.0524  0.0484  0.2212
 2496SOL    HW1 7869   0.637   4.286   2.453 -0.2881  0.2055  0.3364
 2496SOL    HW2 7870   0.550   4.353   2.348 -0.5428 -0.1245  0.3385
 2497SOL     OW 7871   4.967   2.261   1.152 -0.4453 -0.9187  0.6815
 2497SOL    HW1 7872   5.058   2.283   1.132 -1.1406 -0.7040 -2.3956
 2497SOL    HW2 7873   4.967   2.166   1.164  0.0468 -1.0063 -0.0372
 2498SOL     OW 7874   2.689   0.917   2.353  0.2472  0.3862  0.0111
 2498SOL    HW1 7875   2.689   1.011   2.337  2.7889  0.7392  1.7106
 2498SOL    HW2 7876   2.765   0.902   2.410 -0.1066 -2.6871 -0.2075
 2499SOL     OW 7877   2.535   5.564   3.329 -0.0721  0.3647 -0.2593
 2499SOL    HW1 7878   2.474   5.609   3.272  0.7193  0.9497 -0.6602
 2499SOL    HW2 7879   2.587   5.634   3.369 -0.3847 -0.0662  0.8953
 2500SOL     OW 7880   1.913   4.389   2.314 -0.3637 -0.5916  0.3868
 2500SOL    HW1 7881   1.821   4.365   2.321 -0.5861 -0.5904 -2.2278
 2500SOL    HW2 7882   1.919   4.476   2.354 -2.1508  0.8680 -2.4249
 2501SOL     OW 7883   3.521   2.778   3.707 -0.3068  0.3356 -0.4085
 2501SOL    HW1 7884   3.520   2.689   3.673  4.4034 -0.4951  1.1899
 2501SOL    HW2 7885   3.561   2.830   3.637 -0.3433  0.5944 -0.2401
 2502SOL     OW 7886   1.826   2.395   6.339  0.0174 -0.5504  0.0133
 2502SOL    HW1 7887   1.760   2.441   6.392 -1.1124  0.8267 -2.4851
 2502SOL    HW2 7888   1.786   2.310   6.320 -0.2970 -0.4057  0.0108
 2503SOL     OW 7889   4.560   2.394   3.488 -0.3621 -0.3492  0.3723
 2503SOL    HW1 7890   4.618   2.322   3.462 -0.6897 -0.7722  0.8011
 2503SOL    HW2 7891   4.547   2.380   3.582  3.4300  2.9789  1.5368
 2504SOL     OW 7892   0.441   5.722   2.025 -0.1570 -0.4484  0.2369
 2504SOL    HW1 7893   0.403   5.752   1.942 -1.4280  2.2043  1.7082
 2504SOL    HW2 7894   0.535   5.719   2.008 -0.4214 -0.2884 -1.3961
 2505SOL     OW 7895   4.733   1.648   5.114 -0.0880  0.4268  0.1470
 2505SOL    HW1 7896   4.665   1.587   5.086  0.3685  0.2337 -0.5640
 2505SOL    HW2 7897   4.761   1.616   5.200  0.8547 -0.9618 -0.6567
 2506SOL     OW 7898   4.238   1.106   2.371 -0.6573 -0.0005  0.1729
 2506SOL    HW1 7899   4.209   1.195   2.350 -0.2766  0.6125  2.1072
 2506SOL    HW2 7900   4.194   1.085   2.454  1.4819 -0.4848  1.2270
 2507SOL     OW 7901   4.187   5.907   0.035 -0.2193  0.0474  0.1808
 2507SOL    HW1 7902   4.149   5.944   0.115  1.7606  2.0112  0.2520
 2507SOL    HW2 7903   4.239   5.833   0.067 -3.4196 -2.3727  0.1276
 2508SOL     OW 7904   1.525   0.475   1.018 -0.5647 -0.1452  0.5226
 2508SOL    HW1 7905   1.593   0.410   1.000  0.3458  0.6038  1.1913
 2508SOL    HW2 7906   1.484   0.492   0.933 -0.4387 -1.1796  0.2546
 2509SOL     OW 7907   6.266   4.756   2.437  0.7112  0.5025 -0.7012
 2509SOL    HW1 7908   6.232   4.696   2.371  2.2349  0.7303 -1.7293
 2509SOL    HW2 7909   6.361   4.752   2.426  1.0302 -0.0708  2.0527
 2510SOL     OW 7910   5.389   1.046   2.782  0.3922 -0.6731  0.0054
 2510SOL    HW1 7911   5.412   0.963   2.822 -1.4808 -0.8466  0.7765
 2510SOL    HW2 7912   5.424   1.112   2.842 -0.9522 -0.9295  1.0848
 2511SOL     OW 7913   2.868   5.279   6.211 -0.8087  0.0029 -0.4633
 2511SOL    HW1 7914   2.895   5.282   6.302  1.2194 -2.6039 -0.8913
 2511SOL    HW2 7915   2.950   5.284   6.161 -1.6436 -1.1269 -2.0234
 2512SOL     OW 7916   2.227   0.295   6.300  0.6583 -0.3369  0.4021
 2512SOL    HW1 7917   2.223   0.355   6.225  2.1946  0.2355  0.7541
 2512SOL    HW2 7918   2.141   0.253   6.302  0.1948  0.5124 -0.9643
 2513SOL     OW 7919   0.068   1.368   2.603 -0.1830  0.7233 -0.0049
 2513SOL    HW1 7920   0.104   1.286   2.569 -1.0874  0.6537 -0.8044
 2513SOL    HW2 7921  -0.024   1.347   2.624  0.0135  1.1004  1.3033
 2514SOL     OW 7922   3.003   5.764   1.796 -0.2006 -0.3993  0.0427
 2514SOL    HW1 7923   3.008   5.673   1.827 -1.5896 -0.2328  0.8238
 2514SOL    HW2 7924   2.966   5.812   1.871  0.1448  0.7348 -0.5066
 2515SOL     OW 7925   4.709   5.267   2.979 -0.3666 -0.5812  0.0865
 2515SOL    HW1 7926   4.650   5.202   2.939  0.2349 -1.3131  0.3767
 2515SOL    HW2 7927   4.652   5.339   3.004 -1.5817 -2.4303  2.8736
 2516SOL     OW 7928   2.081   1.603   3.281 -0.1041 -0.3209  0.3418
 2516SOL    HW1 7929   2.157   1.649   3.319  0.4477 -1.9903  1.3356
 2516SOL    HW2 7930   2.024   1.586   3.356 -1.1496  0.3091 -0.3006
 2517SOL     OW 7931   0.513   2.744   2.671 -0.1144  0.2492  0.3009
 2517SOL    HW1 7932   0.450   2.816   2.674  2.3627  2.4831  0.4201
 2517SOL    HW2 7933   0.475   2.677   2.727 -2.7786  1.1777 -0.2852
 2518SOL     OW 7934   3.442   4.449   5.019  0.0407  0.3155 -0.7257
 2518SOL    HW1 7935   3.401   4.441   4.933  1.1147  1.9294 -1.4186
 2518SOL    HW2 7936   3.376   4.489   5.074 -0.1399  0.6831 -1.2051
 2519SOL     OW 7937   5.805   0.858   4.215  0.2741 -0.2698 -0.0355
 2519SOL    HW1 7938   5.815   0.875   4.122  1.7716 -1.2296 -0.0711
 2519SOL    HW2 7939   5.895   0.850   4.248 -0.2619 -2.0848  1.0757
 2520SOL     OW 7940   2.183   0.081   3.373  0.4766  0.0416  0.0983
 2520SOL    HW1 7941   2.208   0.021   3.303 -0.5206  0.2727 -0.4725
 2520SOL    HW2 7942   2.260   0.087   3.429  1.7347  0.8368 -1.6712
 2521SOL     OW 7943   5.503   0.961   5.260 -0.3034 -0.2362  0.5077
 2521SOL    HW1 7944   5.574   1.025   5.249  0.5324 -1.1323  0.6539
 2521SOL    HW2 7945   5.465   0.982   5.346  1.0738 -1.0014  1.3219
 2522SOL     OW 7946   3.237   2.557   4.035 -0.7833 -0.4781  0.5780
 2522SOL    HW1 7947   3.178   2.570   4.109 -1.4674 -0.3311  0.0131
 2522SOL    HW2 7948   3.323   2.540   4.075 -0.8871  0.8534  1.3964
 2523SOL     OW 7949   3.653   1.410   3.838  0.3088 -0.2362 -0.3669
 2523SOL    HW1 7950   3.712   1.469   3.791 -0.6358  1.0118  0.0002
 2523SOL    HW2 7951   3.567   1.451   3.830 -0.2411 -1.2132  0.4854
 2524SOL     OW 7952   5.523   4.447   3.859  0.4576  0.5437  0.5525
 2524SOL    HW1 7953   5.567   4.496   3.790  0.1008  0.4064  0.2282
 2524SOL    HW2 7954   5.439   4.423   3.822  0.8307 -0.7490  0.5289
 2525SOL     OW 7955   1.463   5.929   2.834 -0.2056 -0.5141 -0.1321
 2525SOL    HW1 7956   1.411   5.975   2.768  0.8231 -0.3977 -0.8711
 2525SOL    HW2 7957   1.478   5.994   2.903  1.5790  0.4105 -1.3539
 2526SOL     OW 7958   4.895   5.452   1.368 -0.5228 -0.3219 -0.1526
 2526SOL    HW1 7959   4.892   5.370   1.417 -1.1966 -0.7948 -0.9780
 2526SOL    HW2 7960   4.916   5.426   1.278  0.9185  0.5533 -0.1026
 2527SOL     OW 7961   5.718   4.434   4.420  0.3285 -0.4151  0.1042
 2527SOL    HW1 7962   5.752   4.357   4.375  2.9401  0.0066  1.2442
 2527SOL    HW2 7963   5.650   4.467   4.363  0.8353 -2.1683 -1.5810
 2528SOL     OW 7964   4.483   2.709   3.212  0.2337  0.4272 -0.0928
 2528SOL    HW1 7965   4.422   2.672   3.276 -1.2632 -2.7473 -3.1426
 2528SOL    HW2 7966   4.536   2.634   3.184  1.2451  1.8621 -2.1275
 2529SOL     OW 7967   1.622   2.860   0.865  0.2604 -1.1057  0.3121
 2529SOL    HW1 7968   1.687   2.874   0.797  1.2180 -0.4617  1.3474
 2529SOL    HW2 7969   1.559   2.931   0.853  1.6873  0.4145  1.5522
 2530SOL     OW 7970   4.784   4.914   3.920 -0.2895 -0.2257  0.4374
 2530SOL    HW1 7971   4.692   4.930   3.898  0.1832  1.5229 -0.3174
 2530SOL    HW2 7972   4.833   4.966   3.857  1.2258 -0.9263  1.0245
 2531SOL     OW 7973   5.032   1.570   2.325 -0.8911 -0.2920  0.7011
 2531SOL    HW1 7974   5.075   1.486   2.344  0.9736  0.6323  0.6314
 2531SOL    HW2 7975   5.048   1.624   2.402 -0.1621  0.7503 -0.1615
 2532SOL     OW 7976   3.754   3.726   5.955  0.4457 -0.3600 -0.3372
 2532SOL    HW1 7977   3.790   3.692   5.873  3.0615 -0.2480  0.7285
 2532SOL    HW2 7978   3.830   3.759   6.002 -1.2235  0.8583  1.5389
 2533SOL     OW 7979   1.890   5.777   6.158  0.3098 -0.0215  0.3124
 2533SOL    HW1 7980   1.827   5.729   6.104  0.4238 -0.2897  0.4209
 2533SOL    HW2 7981   1.954   5.810   6.096 -1.1893  2.2184 -0.1063
 2534SOL     OW 7982   4.362   2.060   3.939 -0.2018  0.3047  0.4401
 2534SOL    HW1 7983   4.273   2.026   3.951 -0.3330  0.0681 -1.0671
 2534SOL    HW2 7984   4.414   1.984   3.914 -0.0386  0.7919 -0.7724
 2535SOL     OW 7985   4.215   0.390   0.933 -0.2167 -0.0642 -0.0546
 2535SOL    HW1 7986   4.202   0.421   0.843  0.2032  1.6908  0.4646
 2535SOL    HW2 7987   4.192   0.466   0.987  0.5146 -0.7827  1.2780
 2536SOL     OW 7988   3.617   0.471   2.294  0.6357  0.7504  0.2435
 2536SOL    HW1 7989   3.655   0.402   2.349  0.4035  0.3471 -0.0972
 2536SOL    HW2 7990   3.690   0.528   2.272  0.9363  0.3005  0.0721
 2537SOL     OW 7991   3.522   5.455   1.551 -0.3858  0.5422 -0.2310
 2537SOL    HW1 7992   3.564   5.498   1.476 -0.1001  0.4935 -0.1019
 2537SOL    HW2 7993   3.485   5.375   1.516 -0.7464  0.7945 -0.4337
 2538SOL     OW 7994   0.163   2.538   0.541  0.4166  0.0790  0.0323
 2538SOL    HW1 7995   0.187   2.587   0.463  0.6193 -0.5803 -0.3176
 2538SOL    HW2 7996   0.077   2.573   0.566  0.8768  1.1013  0.1915
 2539SOL     OW 7997   5.908   5.629   3.978 -0.2964  0.4851  0.5679
 2539SOL    HW1 7998   5.934   5.674   3.898  1.1517  1.0634  1.3433
 2539SOL    HW2 7999   5.953   5.545   3.974  0.8676  1.0496  1.3907
 2540SOL     OW 8000   2.740   3.018   1.094 -0.3427  0.1749  0.0257
 2540SOL    HW1 8001   2.805   3.087   1.084 -1.7598  1.6973  1.0604
 2540SOL    HW2 8002   2.784   2.939   1.063  1.3633  1.4972 -1.0113
 2541SOL     OW 8003   4.726   0.088   3.136 -0.8445  0.1963  0.2525
 2541SOL    HW1 8004   4.806   0.078   3.188 -0.4125 -2.5131 -0.8689
 2541SOL    HW2 8005   4.657   0.050   3.190 -0.8210 -0.3156 -0.0695
 2542SOL     OW 8006   2.420   5.642   2.905  0.7775 -0.4330 -0.1254
 2542SOL    HW1 8007   2.359   5.704   2.944  1.0306 -0.6911  0.6896
 2542SOL    HW2 8008   2.491   5.697   2.870  0.6130 -0.2076 -0.1045
 2543SOL     OW 8009   3.681   1.452   2.125 -0.5548  0.2080  0.6118
 2543SOL    HW1 8010   3.641   1.366   2.116 -1.0985  0.4263  0.9841
 2543SOL    HW2 8011   3.737   1.460   2.047 -2.1554  0.4019 -0.5375
 2544SOL     OW 8012   0.887   3.180   4.931 -0.6165 -0.3408  0.4359
 2544SOL    HW1 8013   0.793   3.194   4.920 -0.4780 -0.7349 -1.4318
 2544SOL    HW2 8014   0.896   3.084   4.935 -0.3560 -0.2850  1.2422
 2545SOL     OW 8015   2.005   2.233   3.676  0.1542 -0.1614 -0.0952
 2545SOL    HW1 8016   2.098   2.211   3.677 -0.3436 -2.3659 -0.4975
 2545SOL    HW2 8017   1.974   2.205   3.590 -0.9451  0.3694  0.1140
 2546SOL     OW 8018   5.099   4.852   6.019  0.2009  0.0587  0.3336
 2546SOL    HW1 8019   5.181   4.901   6.023 -0.1401  0.5619  1.2027
 2546SOL    HW2 8020   5.118   4.778   5.962  2.2082 -1.6281  3.1122
 2547SOL     OW 8021   6.012   2.799   4.651 -0.5179 -0.1597 -0.5221
 2547SOL    HW1 8022   5.948   2.856   4.608 -1.0084 -1.0815 -1.0329
 2547SOL    HW2 8023   6.078   2.783   4.584 -0.7303 -0.7345 -0.5970
 2548SOL     OW 8024   2.903   5.165   3.953 -0.1633 -0.6948 -0.1839
 2548SOL    HW1 8025   2.925   5.240   4.008  0.2968 -0.8297 -0.1796
 2548SOL    HW2 8026   2.988   5.128   3.927 -0.3288  0.4082 -2.4259
 2549SOL     OW 8027   6.065   1.526   2.317 -0.0936  0.1523 -0.5375
 2549SOL    HW1 8028   6.005   1.456   2.289  0.7880 -0.2585 -1.4203
 2549SOL    HW2 8029   6.152   1.487   2.309  0.3501  1.0721 -0.1767
 2550SOL     OW 8030   5.116   3.028   5.125  0.1636  0.3827 -0.2489
 2550SOL    HW1 8031   5.142   3.053   5.036 -0.4516  0.6469 -0.3587
 2550SOL    HW2 8032   5.177   3.075   5.182 -0.1756  1.1406 -0.5020
 2551SOL     OW 8033   2.888   5.953   1.045  0.0988  0.4765  0.3114
 2551SOL    HW1 8034   2.881   6.045   1.069  1.6058  0.2361  1.7350
 2551SOL    HW2 8035   2.818   5.910   1.095  0.5948  0.5777  1.0971
 2552SOL     OW 8036   3.119   2.044   0.876 -0.5450  0.1042 -0.0437
 2552SOL    HW1 8037   3.206   2.008   0.889  0.0421  1.1262 -1.0490
 2552SOL    HW2 8038   3.112   2.056   0.781 -1.5103  0.6844  0.0890
 2553SOL     OW 8039   2.292   2.231   4.466 -0.2707 -0.2231  0.0968
 2553SOL    HW1 8040   2.324   2.164   4.406 -0.2457 -0.6223  0.5582
 2553SOL    HW2 8041   2.343   2.309   4.443  1.3131 -0.9451  1.0612
 2554SOL     OW 8042   4.427   3.848   4.612 -0.1808  0.7149  0.0289
 2554SOL    HW1 8043   4.377   3.930   4.615 -0.6183  0.4528 -0.0530
 2554SOL    HW2 8044   4.388   3.794   4.682  0.3139  0.6964  0.2938
 2555SOL     OW 8045   0.009   4.915   1.251 -0.2792  0.5805  0.3278
 2555SOL    HW1 8046  -0.043   4.986   1.290  0.4766  1.9361 -1.0420
 2555SOL    HW2 8047   0.098   4.951   1.247  0.2245 -0.6828  0.1440
 2556SOL     OW 8048   3.610   4.984   4.823 -0.2405  0.1738  0.1005
 2556SOL    HW1 8049   3.527   4.985   4.776  0.8005  2.8798 -1.7489
 2556SOL    HW2 8050   3.588   5.019   4.910 -1.2040 -0.1807  0.0151
 2557SOL     OW 8051   3.606   2.443   5.193 -0.2932 -1.1430 -0.0578
 2557SOL    HW1 8052   3.602   2.355   5.157 -0.5029 -0.7016 -1.1403
 2557SOL    HW2 8053   3.515   2.470   5.203 -0.2391 -0.2543 -1.7597
 2558SOL     OW 8054   4.667   0.127   3.772 -0.2067  0.5219  0.1384
 2558SOL    HW1 8055   4.682   0.220   3.755 -2.7410  0.9787  0.1815
 2558SOL    HW2 8056   4.615   0.125   3.852 -1.9905 -0.7918 -1.0055
 2559SOL     OW 8057   2.403   2.921   5.828  0.5080  0.2922  0.0972
 2559SOL    HW1 8058   2.420   2.878   5.912 -2.1005 -1.8466 -0.3884
 2559SOL    HW2 8059   2.436   2.859   5.763  0.4228  0.8685 -0.4889
 2560SOL     OW 8060   1.277   1.061   0.981 -0.6657 -0.4240  0.0770
 2560SOL    HW1 8061   1.186   1.088   0.969 -0.4667  0.4905  0.5768
 2560SOL    HW2 8062   1.280   0.972   0.948 -2.2087 -1.1861  1.9102
 2561SOL     OW 8063   3.698   3.560   6.381  0.2362  0.3876 -0.8579
 2561SOL    HW1 8064   3.653   3.515   6.452  1.6878  1.6250  0.9090
 2561SOL    HW2 8065   3.670   3.514   6.302 -1.2356 -1.1771  0.5231
 2562SOL     OW 8066   0.879   2.868   2.627  0.1354 -0.0552  0.3448
 2562SOL    HW1 8067   0.806   2.921   2.594 -0.3350  1.1097  3.0402
 2562SOL    HW2 8068   0.958   2.913   2.596 -0.2522 -0.8960 -1.9501
 2563SOL     OW 8069   2.267   1.986   2.193  0.1222  0.0081 -0.1017
 2563SOL    HW1 8070   2.308   2.069   2.170 -1.1378  0.9308  0.8832
 2563SOL    HW2 8071   2.177   1.994   2.162  0.0180 -1.0526 -0.1149
 2564SOL     OW 8072   5.355   3.985   2.328 -0.8909  0.4225  0.7950
 2564SOL    HW1 8073   5.410   4.063   2.318 -0.8848  0.4210  0.8183
 2564SOL    HW2 8074   5.371   3.956   2.417 -0.0874 -0.2190  0.4515
 2565SOL     OW 8075   2.143   1.212   2.273  0.3394  0.1329  0.2333
 2565SOL    HW1 8076   2.190   1.263   2.338 -0.0742  1.8495 -0.8000
 2565SOL    HW2 8077   2.170   1.247   2.188 -0.9163 -0.4868 -0.4588
 2566SOL     OW 8078   5.368   3.172   1.112 -0.1741 -0.2268  0.2549
 2566SOL    HW1 8079   5.457   3.176   1.147 -0.3184 -0.0498  0.6036
 2566SOL    HW2 8080   5.367   3.092   1.059  0.6261  0.5476 -0.9607
 2567SOL     OW 8081   2.755   5.434   0.434 -0.4097 -0.1330 -0.1547
 2567SOL    HW1 8082   2.694   5.503   0.460 -0.9056 -0.9129  0.7866
 2567SOL    HW2 8083   2.700   5.358   0.420  0.4523 -1.2252  2.0731
 2568SOL     OW 8084   4.742   1.395   1.452 -0.1227  0.0647  0.6878
 2568SOL    HW1 8085   4.665   1.401   1.509  0.0543 -0.0389  0.9368
 2568SOL    HW2 8086   4.705   1.390   1.363 -0.3786  0.8694  0.7468
 2569SOL     OW 8087   0.761   0.213   3.133 -0.1007  0.2602  0.1841
 2569SOL    HW1 8088   0.721   0.298   3.151 -0.1357  0.7363 -1.9875
 2569SOL    HW2 8089   0.735   0.194   3.043  0.4474 -1.7561  0.4429
 2570SOL     OW 8090   4.988   1.304   1.579 -0.2707 -0.1913  0.3271
 2570SOL    HW1 8091   4.946   1.228   1.621 -0.2689 -0.5631 -0.3366
 2570SOL    HW2 8092   4.915   1.359   1.551 -0.3485 -1.0455 -1.2123
 2571SOL     OW 8093   3.528   1.210   5.300  0.1096  0.5555 -0.3034
 2571SOL    HW1 8094   3.485   1.151   5.361  1.3896  0.0378  0.1124
 2571SOL    HW2 8095   3.586   1.154   5.249  1.3622  1.4430  0.1133
 2572SOL     OW 8096   6.236   5.746   1.984 -0.0545  0.6567 -0.3995
 2572SOL    HW1 8097   6.229   5.833   2.024  0.0442  0.6992 -0.4748
 2572SOL    HW2 8098   6.304   5.702   2.034 -1.1010  0.1106  0.5806
 2573SOL     OW 8099   4.634   1.837   4.719  0.2512 -0.3380  0.1617
 2573SOL    HW1 8100   4.695   1.910   4.713  0.0204 -0.1418  0.1884
 2573SOL    HW2 8101   4.636   1.797   4.632 -0.6984  0.5771 -0.2972
 2574SOL     OW 8102   5.798   5.964   5.260 -0.2831  0.5619  0.4621
 2574SOL    HW1 8103   5.722   5.912   5.287 -0.2219 -0.1642 -0.7642
 2574SOL    HW2 8104   5.872   5.905   5.270 -0.0130  0.9273  0.6096
 2575SOL     OW 8105   3.923   0.839   3.926  1.1799  0.1736  0.0355
 2575SOL    HW1 8106   3.984   0.783   3.973  0.2169  0.0977  1.2338
 2575SOL    HW2 8107   3.887   0.897   3.994 -0.4126 -0.0933 -0.5521
 2576SOL     OW 8108   2.551   6.182   5.756  0.0064 -0.2115 -0.4875
 2576SOL    HW1 8109   2.565   6.172   5.850 -2.3225  1.4015  0.0598
 2576SOL    HW2 8110   2.456   6.174   5.744  0.2955 -0.8581 -2.7788
 2577SOL     OW 8111   3.176   4.118   3.674 -0.0163 -0.2521 -0.3641
 2577SOL    HW1 8112   3.259   4.165   3.676  0.0900 -0.4624  0.4753
 2577SOL    HW2 8113   3.144   4.128   3.584  0.2050  1.0623 -0.3069
 2578SOL     OW 8114   5.448   2.478   4.601  0.6432  0.2438  0.1255
 2578SOL    HW1 8115   5.372   2.509   4.650  0.3068 -0.1245 -0.1568
 2578SOL    HW2 8116   5.520   2.533   4.631 -0.2962  2.5944 -1.7422
 2579SOL     OW 8117   0.602   6.380   1.729 -0.1912  0.0752 -0.0032
 2579SOL    HW1 8118   0.509   6.400   1.715 -0.3690  0.3899  1.5260
 2579SOL    HW2 8119   0.633   6.452   1.784  1.0700  0.1709 -0.8166
 2580SOL     OW 8120   4.602   3.216   0.624 -0.7081  0.1024  0.4590
 2580SOL    HW1 8121   4.552   3.221   0.705 -0.3261 -0.3487  0.7299
 2580SOL    HW2 8122   4.693   3.233   0.651 -0.2866 -1.9873  0.4518
 2581SOL     OW 8123   3.441   4.275   5.797 -0.1134 -0.3756 -0.2937
 2581SOL    HW1 8124   3.411   4.189   5.826 -0.3468  0.3931  1.9020
 2581SOL    HW2 8125   3.536   4.266   5.787  0.3721 -0.0735  3.2636
 2582SOL     OW 8126   1.419   2.530   0.540  0.0594  0.4209  0.5494
 2582SOL    HW1 8127   1.353   2.490   0.596  1.3743 -1.1807  0.9917
 2582SOL    HW2 8128   1.495   2.540   0.596  0.1010  2.5726  0.1398
 2583SOL     OW 8129   0.326   3.012   5.018 -0.4162 -0.8727  0.0961
 2583SOL    HW1 8130   0.411   2.975   5.042  0.0289 -0.0880 -0.2603
 2583SOL    HW2 8131   0.327   3.101   5.054 -2.1998 -1.7818  2.5522
 2584SOL     OW 8132   6.001   4.048   1.658 -0.4572  0.1005  0.1202
 2584SOL    HW1 8133   5.960   4.070   1.575 -0.5583 -1.2119 -0.1955
 2584SOL    HW2 8134   6.095   4.048   1.640 -0.4903 -0.4283 -0.0663
 2585SOL     OW 8135   0.936   5.200   0.948  0.1555  0.3490  0.1759
 2585SOL    HW1 8136   0.888   5.195   1.031 -0.3169 -0.6798 -0.1494
 2585SOL    HW2 8137   0.939   5.110   0.917  2.3193  0.3960  0.1830
 2586SOL     OW 8138   3.871   5.763   3.090 -0.1146  0.1190 -0.5549
 2586SOL    HW1 8139   3.884   5.850   3.127 -1.9879 -0.3167  1.1790
 2586SOL    HW2 8140   3.872   5.777   2.996  0.7387  1.8464 -0.3106
 2587SOL     OW 8141   6.294   3.052   0.401 -0.7984 -0.1243 -0.1289
 2587SOL    HW1 8142   6.238   2.975   0.406 -0.7276 -0.2856 -1.7528
 2587SOL    HW2 8143   6.379   3.018   0.372 -0.4041  0.4029  0.3751
 2588SOL     OW 8144   6.145   6.256   5.886 -0.2313  0.1528  0.1778
 2588SOL    HW1 8145   6.131   6.322   5.818 -2.0921 -0.4909 -0.0698
 2588SOL    HW2 8146   6.223   6.208   5.857 -0.8721  0.0422 -1.3690
 2589SOL     OW 8147   4.320   0.583   2.341 -0.3293  0.0183 -0.0354
 2589SOL    HW1 8148   4.414   0.578   2.328  0.0570  1.9845  1.7512
 2589SOL    HW2 8149   4.283   0.553   2.258  1.8656 -0.0781 -1.0165
 2590SOL     OW 8150   6.307   4.510   1.164  0.4620 -0.0383  0.2788
 2590SOL    HW1 8151   6.351   4.515   1.079  1.2530 -0.0987  0.6892
 2590SOL    HW2 8152   6.250   4.433   1.157  1.8778 -1.1023  0.4486
 2591SOL     OW 8153   1.764   5.143   4.150 -0.3127  0.1408 -0.2093
 2591SOL    HW1 8154   1.838   5.197   4.123  0.4554 -1.5138 -1.5501
 2591SOL    HW2 8155   1.728   5.110   4.067 -1.0391 -1.0118  0.5569
 2592SOL     OW 8156   2.747   2.123   3.412 -0.5087  0.5024  0.5651
 2592SOL    HW1 8157   2.681   2.128   3.342 -0.6609 -0.1723  0.6511
 2592SOL    HW2 8158   2.822   2.080   3.371 -0.5662  0.1845  0.7908
 2593SOL     OW 8159   3.796   4.710   1.790 -0.1441 -0.1098 -0.0107
 2593SOL    HW1 8160   3.718   4.739   1.744 -0.1610  1.5783  1.0455
 2593SOL    HW2 8161   3.790   4.751   1.876  1.2956 -0.9320  0.4973
 2594SOL     OW 8162   0.536   1.730   3.610  0.5088  0.1319 -0.0559
 2594SOL    HW1 8163   0.504   1.694   3.692 -0.7747 -1.5292 -1.2548
 2594SOL    HW2 8164   0.522   1.824   3.618 -0.0748 -0.0676  1.4099
 2595SOL     OW 8165   5.968   5.203   6.149 -0.2550 -0.1563 -0.2731
 2595SOL    HW1 8166   5.873   5.191   6.156 -0.1345 -0.7083  0.4647
 2595SOL    HW2 8167   5.985   5.202   6.054 -1.0652  0.6393 -0.4338
 2596SOL     OW 8168   1.822   0.275   4.401  0.0526  0.1339  0.2252
 2596SOL    HW1 8169   1.797   0.194   4.445 -2.5713 -0.6074 -2.4936
 2596SOL    HW2 8170   1.900   0.252   4.350 -2.8107 -1.8217 -3.5118
 2597SOL     OW 8171   4.518   2.774   2.174  0.2057  0.0130  0.1456
 2597SOL    HW1 8172   4.532   2.737   2.262 -0.8894 -1.2717 -0.1924
 2597SOL    HW2 8173   4.473   2.704   2.127  0.8556  0.6768 -1.4701
 2598SOL     OW 8174   6.300   0.194   5.111  0.4799 -0.3686  0.8254
 2598SOL    HW1 8175   6.311   0.177   5.017 -2.3116  0.5906  0.2955
 2598SOL    HW2 8176   6.272   0.110   5.147  2.7140 -1.0631  1.0658
 2599SOL     OW 8177   3.285   0.217   0.214 -0.3138 -0.1119  0.9428
 2599SOL    HW1 8178   3.251   0.253   0.296  0.8044  0.2237  1.2743
 2599SOL    HW2 8179   3.362   0.271   0.195 -0.1104 -0.6993  0.0960
 2600SOL     OW 8180   5.638   2.808   5.306  0.8838 -0.4191 -0.2448
 2600SOL    HW1 8181   5.651   2.902   5.298  0.6863 -0.5020 -1.6074
 2600SOL    HW2 8182   5.719   2.776   5.344  0.8322  0.3362  0.5209
 2601SOL     OW 8183   0.144   3.749   2.695  0.3716 -0.0534  0.0652
 2601SOL    HW1 8184   0.086   3.809   2.742  0.4475 -0.9353  1.3102
 2601SOL    HW2 8185   0.085   3.693   2.645  0.1409 -0.6395  0.9614
 2602SOL     OW 8186   4.620   3.892   6.212  0.3450  0.0869  0.0585
 2602SOL    HW1 8187   4.545   3.843   6.177 -0.8583  0.7787  1.5947
 2602SOL    HW2 8188   4.599   3.984   6.194 -0.4710  0.4933  2.7825
 2603SOL     OW 8189   5.890   4.553   6.017 -0.0276 -0.0737  0.3557
 2603SOL    HW1 8190   5.974   4.581   6.053  0.1972  0.4994 -0.6063
 2603SOL    HW2 8191   5.903   4.551   5.923 -0.9990 -0.3051  0.2188
 2604SOL     OW 8192   5.189   5.612   6.002 -0.8775  0.0931 -0.0358
 2604SOL    HW1 8193   5.239   5.565   5.935 -0.6742  1.6117 -0.9665
 2604SOL    HW2 8194   5.211   5.567   6.084 -1.0678 -1.7264 -0.9603
 2605SOL     OW 8195   1.803   4.388   2.652 -0.4132  0.3555 -0.5164
 2605SOL    HW1 8196   1.731   4.374   2.714  0.3733 -0.2285  0.2691
 2605SOL    HW2 8197   1.873   4.427   2.704 -0.5112  1.8877 -1.4935
 2606SOL     OW 8198   2.507   1.504   3.408 -0.3748  0.2290  0.0063
 2606SOL    HW1 8199   2.583   1.457   3.373 -0.0912  0.1913  0.6818
 2606SOL    HW2 8200   2.504   1.585   3.357  1.6716  1.4346  1.7283
 2607SOL     OW 8201   2.468   0.620   1.854  0.1414  0.6276  0.1358
 2607SOL    HW1 8202   2.551   0.647   1.814 -0.2611 -0.0117 -1.1635
 2607SOL    HW2 8203   2.492   0.594   1.943  1.5520 -0.7112 -0.6011
 2608SOL     OW 8204   2.146   0.721   6.147 -0.1267 -0.0540 -0.3129
 2608SOL    HW1 8205   2.102   0.726   6.062 -0.3987  0.7956 -0.1308
 2608SOL    HW2 8206   2.228   0.768   6.134 -0.4031  0.5309  0.0327
 2609SOL     OW 8207   2.572   0.313   3.976  0.1122 -1.1505 -0.1658
 2609SOL    HW1 8208   2.649   0.276   3.933  0.2349 -1.7410  0.5532
 2609SOL    HW2 8209   2.498   0.275   3.928  0.2490  1.1083 -2.2852
 2610SOL     OW 8210   3.510   5.391   3.714 -0.3131 -0.1175  0.0667
 2610SOL    HW1 8211   3.523   5.325   3.782 -2.2883 -0.4810  0.1230
 2610SOL    HW2 8212   3.586   5.381   3.656  0.8458 -0.5162  1.6258
 2611SOL     OW 8213   0.298   5.402   4.752  0.0196  0.1407  0.1772
 2611SOL    HW1 8214   0.206   5.375   4.752 -0.4119  1.5541 -0.7904
 2611SOL    HW2 8215   0.331   5.373   4.837 -1.6077  0.5680  0.9820
 2612SOL     OW 8216   3.013   2.487   5.828  0.1952 -0.5767 -0.2028
 2612SOL    HW1 8217   3.070   2.521   5.759 -0.3516  0.3090 -0.2280
 2612SOL    HW2 8218   3.073   2.455   5.896  0.7370 -1.4482 -1.0683
 2613SOL     OW 8219   0.677   3.139   1.451 -0.8134 -0.3548 -0.1123
 2613SOL    HW1 8220   0.708   3.056   1.415  1.4276 -0.2239  1.3967
 2613SOL    HW2 8221   0.684   3.128   1.546 -1.4279  1.2188  0.1331
 2614SOL     OW 8222   2.813   4.595   1.753 -0.1551  0.8925  0.4257
 2614SOL    HW1 8223   2.887   4.640   1.712 -0.5826  0.4971 -0.7857
 2614SOL    HW2 8224   2.750   4.664   1.773  1.8569  1.7328  4.4846
 2615SOL     OW 8225   1.416   5.317   0.579  0.0700  0.4776  0.4753
 2615SOL    HW1 8226   1.437   5.381   0.512  0.1143 -0.4925 -0.4553
 2615SOL    HW2 8227   1.339   5.352   0.623  2.1174  2.8643  2.2906
 2616SOL     OW 8228   5.673   4.391   5.138 -0.2457 -0.4612  0.0352
 2616SOL    HW1 8229   5.753   4.392   5.190  0.5642  1.5184 -1.1953
 2616SOL    HW2 8230   5.634   4.305   5.156  1.4781 -0.9510  1.6333
 2617SOL     OW 8231   5.980   0.181   4.697  0.2467 -0.0832 -0.0195
 2617SOL    HW1 8232   6.021   0.095   4.689  1.1656  0.1139  2.1762
 2617SOL    HW2 8233   6.053   0.243   4.696 -0.2314  0.5076  0.6517
 2618SOL     OW 8234   4.745   1.019   3.288  0.2916  0.2997 -0.0515
 2618SOL    HW1 8235   4.786   1.003   3.203 -0.9693 -1.2577 -0.4196
 2618SOL    HW2 8236   4.696   1.100   3.276 -0.5748 -0.3595 -1.1098
 2619SOL     OW 8237   5.402   1.014   4.538  0.0529 -0.2447  0.3104
 2619SOL    HW1 8238   5.323   0.963   4.554 -0.3675  0.3214  0.0660
 2619SOL    HW2 8239   5.392   1.093   4.592  0.4011 -0.1161  0.1936
 2620SOL     OW 8240   1.171   3.731   1.684  0.2579 -0.3150 -0.4142
 2620SOL    HW1 8241   1.148   3.656   1.628  1.6296 -0.5599 -0.6706
 2620SOL    HW2 8242   1.201   3.692   1.766  0.9430 -0.0571 -0.5351
 2621SOL     OW 8243   0.740   2.574   0.913 -0.4934  0.5646 -0.3818
 2621SOL    HW1 8244   0.701   2.655   0.946  1.9252  1.8371 -0.5464
 2621SOL    HW2 8245   0.762   2.593   0.822  1.3053  0.1889 -0.0392
 2622SOL     OW 8246   0.188   1.047   5.021 -0.3015  0.5823  0.0954
 2622SOL    HW1 8247   0.151   0.971   4.977  0.7045  0.3209 -0.3044
 2622SOL    HW2 8248   0.164   1.035   5.113 -1.6419  0.6820 -0.2319
 2623SOL     OW 8249   4.160   0.665   6.176  0.4233  0.4555  0.1175
 2623SOL    HW1 8250   4.082   0.610   6.163  0.0750  0.5201  1.8404
 2623SOL    HW2 8251   4.233   0.608   6.156 -0.0150 -0.1021  0.0952
 2624SOL     OW 8252   2.359   1.774   0.536  0.0313  0.0005 -0.5445
 2624SOL    HW1 8253   2.446   1.815   0.537  0.5652 -1.1082 -1.7968
 2624SOL    HW2 8254   2.298   1.848   0.548  1.2033  0.5402  2.6799
 2625SOL     OW 8255   5.529   6.218   5.526  0.5606 -0.1282  0.5321
 2625SOL    HW1 8256   5.552   6.251   5.440  0.7685 -1.0702  0.2201
 2625SOL    HW2 8257   5.557   6.286   5.587  1.6707 -0.0641 -0.0412
 2626SOL     OW 8258   4.838   3.443   4.565  0.0468 -0.4551  0.5542
 2626SOL    HW1 8259   4.904   3.395   4.515  0.5553  0.3434  0.4471
 2626SOL    HW2 8260   4.797   3.376   4.621  0.7864 -1.0008  0.4540
 2627SOL     OW 8261   4.991   3.055   3.319 -0.1828  0.1758  0.3812
 2627SOL    HW1 8262   5.083   3.037   3.300  0.4025  0.5262  2.7870
 2627SOL    HW2 8263   4.983   3.150   3.312 -0.7108  0.0262 -1.2449
 2628SOL     OW 8264   5.163   6.190   4.292 -0.6189 -0.6733 -0.5856
 2628SOL    HW1 8265   5.071   6.189   4.266 -0.7674  2.5809 -0.4563
 2628SOL    HW2 8266   5.169   6.262   4.355  2.2683  0.0512 -1.6254
 2629SOL     OW 8267   5.387   2.767   2.663 -0.2603  0.0944 -0.4502
 2629SOL    HW1 8268   5.299   2.762   2.701 -0.3645  0.8724 -0.5906
 2629SOL    HW2 8269   5.378   2.826   2.589  0.2674 -0.2566 -0.7912
 2630SOL     OW 8270   4.300   0.429   2.847 -0.7062 -0.3877 -0.1146
 2630SOL    HW1 8271   4.391   0.408   2.868 -1.1117 -0.9690  1.1001
 2630SOL    HW2 8272   4.297   0.428   2.751  0.9353  1.2299 -0.2194
 2631SOL     OW 8273   0.906   4.520   0.646 -0.4339  1.0863 -0.2192
 2631SOL    HW1 8274   0.882   4.438   0.604 -0.7770  0.6887  0.7322
 2631SOL    HW2 8275   0.991   4.544   0.607  0.2416 -0.3311  0.3476
 2632SOL     OW 8276   4.760   2.434   4.570  0.2645 -0.3295  0.1330
 2632SOL    HW1 8277   4.775   2.497   4.642 -0.1986 -0.7112  0.5692
 2632SOL    HW2 8278   4.713   2.485   4.504 -0.4581 -0.3114  0.6509
 2633SOL     OW 8279   5.906   2.358   6.105  0.4268  0.3862 -0.1520
 2633SOL    HW1 8280   5.973   2.395   6.048  1.3756  0.7451  1.1796
 2633SOL    HW2 8281   5.823   2.392   6.069  0.9417  0.0076 -1.7497
 2634SOL     OW 8282   2.863   2.318   5.998 -0.4999 -0.6331 -0.0820
 2634SOL    HW1 8283   2.903   2.346   6.081  0.8259 -2.2415 -0.1556
 2634SOL    HW2 8284   2.893   2.382   5.934  0.8513 -1.0323  0.1385
 2635SOL     OW 8285   5.291   3.359   1.419  0.3520  0.1448  0.1360
 2635SOL    HW1 8286   5.237   3.287   1.385  0.3265  0.1956  0.0702
 2635SOL    HW2 8287   5.303   3.417   1.345  2.3569 -0.9815 -0.4536
 2636SOL     OW 8288   4.574   0.665   2.158 -0.2600  0.2392 -0.0082
 2636SOL    HW1 8289   4.669   0.655   2.167 -0.2987  0.5151  0.7061
 2636SOL    HW2 8290   4.539   0.578   2.180 -0.1773  0.1569 -0.2018
 2637SOL     OW 8291   6.219   0.569   0.879 -0.4263  0.0411  0.2905
 2637SOL    HW1 8292   6.257   0.512   0.946  2.7209  0.2320 -1.2138
 2637SOL    HW2 8293   6.230   0.657   0.914 -0.1011  0.0607  0.1358
 2638SOL     OW 8294   4.050   2.826   1.977 -0.1905 -0.1421  0.2123
 2638SOL    HW1 8295   4.061   2.797   2.067 -0.0082  1.6812  0.7898
 2638SOL    HW2 8296   3.993   2.760   1.937 -1.0673 -0.4324  1.9288
 2639SOL     OW 8297   2.015   4.757   1.133  0.5061 -0.0163  0.2205
 2639SOL    HW1 8298   2.045   4.841   1.166  2.0982 -0.5716  0.2625
 2639SOL    HW2 8299   2.077   4.694   1.171  1.2090 -0.8678 -2.2785
 2640SOL     OW 8300   2.007   3.979   0.502 -0.5701  0.6190 -0.2532
 2640SOL    HW1 8301   2.022   4.073   0.506  0.7535  0.4797 -1.6300
 2640SOL    HW2 8302   2.085   3.943   0.460 -1.4394 -0.9897 -0.5562
 2641SOL     OW 8303   0.326   2.537   0.760  0.4348 -0.5003 -0.5700
 2641SOL    HW1 8304   0.266   2.549   0.687 -0.8197  1.2865  0.7108
 2641SOL    HW2 8305   0.403   2.589   0.738 -1.1907  2.5616  0.7172
 2642SOL     OW 8306   4.621   3.078   4.575  0.3624  0.0936 -0.4961
 2642SOL    HW1 8307   4.708   3.045   4.597  0.5726 -0.3791 -1.9698
 2642SOL    HW2 8308   4.596   3.028   4.498 -0.2254  1.8710 -1.4861
 2643SOL     OW 8309   1.123   0.762   6.361 -0.3144  0.0164  0.0840
 2643SOL    HW1 8310   1.032   0.732   6.364 -0.5123  0.6889  0.7987
 2643SOL    HW2 8311   1.153   0.757   6.452 -0.0413  1.0270  0.0554
 2644SOL     OW 8312   6.159   4.039   6.141  0.5543  0.1026 -0.0423
 2644SOL    HW1 8313   6.137   4.005   6.055 -0.8352  1.8101 -0.4003
 2644SOL    HW2 8314   6.089   4.008   6.198  0.3934  0.6025  0.0426
 2645SOL     OW 8315   0.539   4.987   5.707  0.2365 -0.1980  0.0185
 2645SOL    HW1 8316   0.572   5.027   5.627 -2.3233 -0.3892 -1.1646
 2645SOL    HW2 8317   0.526   4.895   5.685 -0.4215 -0.2684  0.6656
 2646SOL     OW 8318   0.071   4.753   2.927 -0.2513  0.3133 -0.7098
 2646SOL    HW1 8319   0.158   4.774   2.958 -0.5232  0.8312 -0.2999
 2646SOL    HW2 8320   0.078   4.663   2.896  0.2558  0.1238 -0.0487
 2647SOL     OW 8321   3.580   3.357   1.345 -0.8215 -0.4571  0.8177
 2647SOL    HW1 8322   3.644   3.289   1.321  0.5137  0.8344  0.6363
 2647SOL    HW2 8323   3.539   3.382   1.263  1.8696  2.0893  0.1790
 2648SOL     OW 8324   0.528   0.708   2.859  0.1922  0.2599  0.2178
 2648SOL    HW1 8325   0.506   0.637   2.799 -0.6588  0.6742  0.0292
 2648SOL    HW2 8326   0.623   0.720   2.849  0.0024  0.5972 -1.3415
 2649SOL     OW 8327   5.179   4.928   4.786 -0.4329 -0.4284  0.0366
 2649SOL    HW1 8328   5.109   4.932   4.720 -0.8315 -0.4983  0.4515
 2649SOL    HW2 8329   5.250   4.882   4.741  1.2478  3.9526 -2.0624
 2650SOL     OW 8330   3.090   0.043   0.757  0.0597 -0.2059  0.1406
 2650SOL    HW1 8331   3.135  -0.037   0.784  1.8519  0.9325  0.5963
 2650SOL    HW2 8332   2.999   0.016   0.747  0.4561 -2.0917  1.2295
 2651SOL     OW 8333   4.891   0.135   0.112  0.4899  0.3086 -0.1545
 2651SOL    HW1 8334   4.948   0.063   0.138 -0.3447 -0.0024  0.8753
 2651SOL    HW2 8335   4.946   0.213   0.121  0.3022  0.1982  2.5219
 2652SOL     OW 8336   3.595   4.895   1.324 -0.0453  0.1910  0.1175
 2652SOL    HW1 8337   3.686   4.880   1.299  0.3317  0.6475  1.2088
 2652SOL    HW2 8338   3.596   4.980   1.368 -1.3642  1.2436 -1.7823
 2653SOL     OW 8339   2.788   2.758   1.005  0.4365 -0.1330 -0.0781
 2653SOL    HW1 8340   2.768   2.696   1.076  1.9529 -1.8933 -1.1452
 2653SOL    HW2 8341   2.883   2.759   1.000  0.3452 -0.5359 -2.5098
 2654SOL     OW 8342   3.393   5.962   2.921  0.2438 -0.0440  0.1160
 2654SOL    HW1 8343   3.412   5.903   2.994 -1.5573 -1.9973 -0.9490
 2654SOL    HW2 8344   3.465   5.947   2.859  2.0723  2.0073  1.6313
 2655SOL     OW 8345   2.887   4.657   0.220  0.3690 -0.6387  0.3074
 2655SOL    HW1 8346   2.827   4.582   0.211  0.6666 -0.8305 -0.1026
 2655SOL    HW2 8347   2.893   4.693   0.132  2.4227 -1.8430 -0.0814
 2656SOL     OW 8348   1.981   2.046   2.169  0.1103 -0.1660 -0.3817
 2656SOL    HW1 8349   1.887   2.030   2.162  0.1477 -0.8845  0.7524
 2656SOL    HW2 8350   1.988   2.124   2.224  0.1768  0.0824 -0.7360
 2657SOL     OW 8351   1.952   0.359   1.209 -0.2183  0.2115 -0.1549
 2657SOL    HW1 8352   1.980   0.416   1.137  0.2102 -0.2306 -0.3468
 2657SOL    HW2 8353   1.937   0.419   1.283  0.4877  0.5435 -0.2758
 2658SOL     OW 8354   4.504   3.421   3.863  0.5182 -0.5072  1.0268
 2658SOL    HW1 8355   4.578   3.396   3.807  0.5453 -0.3837  1.0077
 2658SOL    HW2 8356   4.444   3.467   3.805  1.5541  1.5767  1.5431
 2659SOL     OW 8357   0.051   3.011   6.015  0.7755  0.1512 -0.1379
 2659SOL    HW1 8358  -0.025   3.056   6.053  1.4808  0.3283  1.0794
 2659SOL    HW2 8359   0.085   2.957   6.086  1.8256  0.1159 -0.6586
 2660SOL     OW 8360   1.780   3.057   2.412  0.0663  0.1718 -0.4380
 2660SOL    HW1 8361   1.778   3.060   2.507  0.5919 -0.4457 -0.4002
 2660SOL    HW2 8362   1.873   3.051   2.390  0.2772  4.6362 -1.1567
 2661SOL     OW 8363   6.328   1.645   1.435  0.6291 -0.5122  0.2952
 2661SOL    HW1 8364   6.384   1.576   1.399 -0.6968  0.0462 -2.9525
 2661SOL    HW2 8365   6.261   1.597   1.485 -0.2497 -1.6548 -1.8878
 2662SOL     OW 8366   0.397   5.967   2.191 -0.0409 -0.1907 -0.0576
 2662SOL    HW1 8367   0.330   5.950   2.124 -0.2049  0.3774 -0.0432
 2662SOL    HW2 8368   0.369   6.049   2.233  0.6767  0.0722 -0.0746
 2663SOL     OW 8369   4.506   4.279   5.105  0.3145  0.2812 -0.0017
 2663SOL    HW1 8370   4.545   4.200   5.068  0.6761 -0.1121  1.1755
 2663SOL    HW2 8371   4.581   4.334   5.127  0.0366  1.3683 -1.6749
 2664SOL     OW 8372   0.723   0.657   1.694  0.2045 -0.0714 -0.0975
 2664SOL    HW1 8373   0.766   0.673   1.778  2.0780 -0.3915 -0.9816
 2664SOL    HW2 8374   0.654   0.594   1.714  1.2292 -0.8426  1.0394
 2665SOL     OW 8375   4.718   1.865   2.081 -0.2361  0.2458  0.4562
 2665SOL    HW1 8376   4.809   1.838   2.071 -0.0173  0.8035  0.9562
 2665SOL    HW2 8377   4.709   1.886   2.173 -0.4232  1.8424  0.0833
 2666SOL     OW 8378   2.561   5.200   4.576  0.0630 -0.1629  0.0506
 2666SOL    HW1 8379   2.491   5.261   4.596 -0.0627 -0.3277  0.1215
 2666SOL    HW2 8380   2.543   5.124   4.631  1.8501  0.8873  2.1782
 2667SOL     OW 8381   6.311   3.781   0.363  0.3469  0.5063  0.2500
 2667SOL    HW1 8382   6.406   3.783   0.368  0.3997 -1.3656  0.4542
 2667SOL    HW2 8383   6.285   3.710   0.421 -0.9847 -0.7460 -1.7960
 2668SOL     OW 8384   3.360   3.843   4.579  0.1482 -0.1341 -0.2255
 2668SOL    HW1 8385   3.432   3.800   4.532 -0.2954  0.3154 -1.3373
 2668SOL    HW2 8386   3.305   3.879   4.510  0.4626  2.1587  0.6830
 2669SOL     OW 8387   4.537   4.241   1.699  0.1301  0.9897  0.0504
 2669SOL    HW1 8388   4.630   4.258   1.717  0.3467 -0.4400  0.3303
 2669SOL    HW2 8389   4.499   4.222   1.785  0.0201 -0.4867 -0.3150
 2670SOL     OW 8390   0.188   2.294   6.094  0.0089  0.0288 -0.3641
 2670SOL    HW1 8391   0.236   2.214   6.075  1.6600  1.0525 -0.6518
 2670SOL    HW2 8392   0.248   2.345   6.149 -0.8277  1.2384 -0.5541
 2671SOL     OW 8393   5.234   5.450   0.097 -0.1033 -0.1715 -0.0495
 2671SOL    HW1 8394   5.266   5.461   0.187  0.4198 -1.1677 -0.1020
 2671SOL    HW2 8395   5.167   5.382   0.103  0.0177 -0.3257 -0.4306
 2672SOL     OW 8396   5.228   0.203   0.015 -0.1406  0.4450  0.2002
 2672SOL    HW1 8397   5.303   0.159   0.055  0.4173  1.8738  0.7424
 2672SOL    HW2 8398   5.223   0.167  -0.074  1.1663  0.3328  0.1696
 2673SOL     OW 8399   1.543   1.880   0.192 -0.4237 -0.0379 -0.4622
 2673SOL    HW1 8400   1.495   1.813   0.144  0.0117 -0.1845 -0.6918
 2673SOL    HW2 8401   1.554   1.951   0.129  0.7790 -0.5210 -0.8061
 2674SOL     OW 8402   2.366   2.492   5.502 -0.0336 -0.4141 -0.2820
 2674SOL    HW1 8403   2.271   2.491   5.487 -0.1117 -0.9554  0.2312
 2674SOL    HW2 8404   2.400   2.427   5.442  0.0522  0.0144 -0.7012
 2675SOL     OW 8405   5.502   4.565   0.767 -0.7695 -0.3442 -0.4956
 2675SOL    HW1 8406   5.408   4.559   0.779 -0.9660 -1.4435 -2.3218
 2675SOL    HW2 8407   5.539   4.555   0.855 -2.3053 -1.1150  0.0741
 2676SOL     OW 8408   5.131   1.714   4.093 -0.3079 -0.2783 -0.1958
 2676SOL    HW1 8409   5.185   1.639   4.117 -1.0521 -0.8543 -0.3094
 2676SOL    HW2 8410   5.146   1.778   4.163  1.7352  0.1969 -1.0303
 2677SOL     OW 8411   3.953   1.673   1.126 -0.3854  0.2164 -0.3490
 2677SOL    HW1 8412   3.879   1.627   1.087  0.1416  0.7893 -2.0659
 2677SOL    HW2 8413   3.931   1.766   1.120  0.4552  0.3879 -0.8473
 2678SOL     OW 8414   2.606   2.009   1.581 -0.3731 -0.8757  0.3770
 2678SOL    HW1 8415   2.661   1.942   1.541 -0.0087 -0.9067  0.9128
 2678SOL    HW2 8416   2.534   2.022   1.520  1.3147  0.6557 -1.3608
 2679SOL     OW 8417   0.303   5.243   3.684 -0.6292  0.3449  0.0443
 2679SOL    HW1 8418   0.261   5.220   3.602 -1.2445  0.2780  0.3765
 2679SOL    HW2 8419   0.311   5.339   3.682  0.1148  0.2760 -0.4558
 2680SOL     OW 8420   5.382   4.492   5.028 -0.1031 -0.1345  0.0954
 2680SOL    HW1 8421   5.382   4.418   4.967  0.6073 -0.4917  0.5218
 2680SOL    HW2 8422   5.463   4.481   5.079 -0.9911 -0.1739  1.5085
 2681SOL     OW 8423   1.098   3.266   5.632  0.0906  0.1600 -0.0673
 2681SOL    HW1 8424   1.006   3.273   5.609  0.1981  1.4354 -0.1720
 2681SOL    HW2 8425   1.144   3.305   5.558  0.6025  1.2977  0.8309
 2682SOL     OW 8426   6.124   3.098   1.074 -0.7689 -0.6640 -0.2231
 2682SOL    HW1 8427   6.127   3.071   0.983 -0.3139 -1.6675  0.0925
 2682SOL    HW2 8428   6.205   3.067   1.112  0.9360  3.2408 -0.4179
 2683SOL     OW 8429   2.456   6.117   3.224 -0.1831 -0.1759  0.0495
 2683SOL    HW1 8430   2.369   6.079   3.235  1.5584 -4.2684  0.7936
 2683SOL    HW2 8431   2.491   6.075   3.145  1.7330  0.1112  0.7108
 2684SOL     OW 8432   5.394   5.761   4.717 -0.8941 -0.2902 -0.1373
 2684SOL    HW1 8433   5.489   5.773   4.719 -0.7867 -0.7461 -1.9125
 2684SOL    HW2 8434   5.368   5.761   4.810  0.8061 -0.0076  0.3570
 2685SOL     OW 8435   1.021   0.264   1.634  0.0765  0.0195 -0.1668
 2685SOL    HW1 8436   1.086   0.283   1.566 -0.0152  1.5038  0.1397
 2685SOL    HW2 8437   0.955   0.333   1.624  1.5553  2.0635  3.2915
 2686SOL     OW 8438   5.093   4.817   2.773  0.0514  0.3138 -0.3282
 2686SOL    HW1 8439   5.088   4.802   2.678  0.5781  0.9851 -0.4671
 2686SOL    HW2 8440   5.100   4.729   2.811  1.0187  0.0929 -0.9885
 2687SOL     OW 8441   3.837   1.853   4.444  0.0088  0.3670 -0.1426
 2687SOL    HW1 8442   3.929   1.879   4.447  0.0019  0.3157  0.7078
 2687SOL    HW2 8443   3.839   1.762   4.415  0.1790  0.6030 -0.8697
 2688SOL     OW 8444   6.106   1.120   4.534 -0.1780  0.2027  0.5206
 2688SOL    HW1 8445   6.112   1.214   4.518  1.4148  0.2594  1.3658
 2688SOL    HW2 8446   6.105   1.081   4.446  1.8868  0.8800  0.1575
 2689SOL     OW 8447   1.273   5.750   2.825  0.2978  0.2539  0.1797
 2689SOL    HW1 8448   1.289   5.689   2.752  1.0605  2.5226 -1.6077
 2689SOL    HW2 8449   1.356   5.797   2.835 -0.5970  1.7134  0.8184
 2690SOL     OW 8450   1.548   1.916   5.805  0.1425 -1.0723 -0.0383
 2690SOL    HW1 8451   1.488   1.986   5.832  1.8336 -0.1912  1.5181
 2690SOL    HW2 8452   1.545   1.919   5.709  1.1599  2.0245 -0.0342
 2691SOL     OW 8453   0.130   2.660   4.123 -0.0800  0.4734 -0.0434
 2691SOL    HW1 8454   0.156   2.610   4.045 -1.1505  1.7437 -1.2500
 2691SOL    HW2 8455   0.036   2.644   4.131  0.2067 -0.4797  1.6185
 2692SOL     OW 8456   3.494   5.756   4.545 -0.0693 -0.1687 -0.4347
 2692SOL    HW1 8457   3.578   5.772   4.588 -0.1609  1.9683 -0.9749
 2692SOL    HW2 8458   3.434   5.819   4.586 -1.6411 -2.1977  0.5229
 2693SOL     OW 8459   6.166   3.524   5.132  0.3645 -0.1038 -0.3738
 2693SOL    HW1 8460   6.136   3.457   5.195  2.6358 -1.4540 -0.6730
 2693SOL    HW2 8461   6.240   3.565   5.175  0.9499  0.0522 -1.5192
 2694SOL     OW 8462   3.887   3.462   1.993 -0.1135  0.2963  0.4015
 2694SOL    HW1 8463   3.957   3.516   2.029 -1.1530  0.8670  1.5960
 2694SOL    HW2 8464   3.895   3.474   1.898  2.7373 -1.3418  0.3748
 2695SOL     OW 8465   1.887   4.561   5.471  0.2357  0.1886  0.1015
 2695SOL    HW1 8466   1.845   4.562   5.557 -1.2107  3.3667 -0.5351
 2695SOL    HW2 8467   1.848   4.486   5.426  0.4794 -1.0751  1.9402
 2696SOL     OW 8468   1.933   3.626   5.965 -0.1685 -0.1294  0.1643
 2696SOL    HW1 8469   1.963   3.713   5.938 -1.4597 -0.0886 -1.2063
 2696SOL    HW2 8470   1.949   3.624   6.060  0.3697  1.3995  0.1300
 2697SOL     OW 8471   2.696   1.598   5.841 -0.1562 -1.2167  0.3953
 2697SOL    HW1 8472   2.614   1.566   5.879 -0.5631  2.1275  2.5024
 2697SOL    HW2 8473   2.752   1.617   5.916  0.0922  2.7377 -0.6838
 2698SOL     OW 8474   2.469   3.795   6.257  0.5588 -0.3153 -0.1666
 2698SOL    HW1 8475   2.523   3.767   6.183 -0.9488 -1.5314 -0.8315
 2698SOL    HW2 8476   2.465   3.718   6.314  0.7387  0.2436  0.5988
 2699SOL     OW 8477   4.399   5.271   4.441 -0.7580 -0.3462  0.2553
 2699SOL    HW1 8478   4.491   5.253   4.462 -0.3149 -0.1977 -1.4690
 2699SOL    HW2 8479   4.384   5.225   4.358 -1.8243  0.8453 -0.2340
 2700SOL     OW 8480   5.129   0.469   5.325  0.2492 -0.0139  0.0816
 2700SOL    HW1 8481   5.133   0.496   5.417 -0.1152 -0.1125  0.1274
 2700SOL    HW2 8482   5.071   0.532   5.284  0.8001  0.3175 -0.1841
 2701SOL     OW 8483   5.630   3.068   5.322  0.2044 -0.0167 -0.1792
 2701SOL    HW1 8484   5.618   3.106   5.409  1.4010 -0.6673  0.2812
 2701SOL    HW2 8485   5.724   3.066   5.309  0.0469 -0.0863 -1.4291
 2702SOL     OW 8486   3.861   2.855   3.741  0.1361  0.4600 -0.3079
 2702SOL    HW1 8487   3.773   2.880   3.711 -0.1544  0.3110  0.4126
 2702SOL    HW2 8488   3.850   2.767   3.776  0.9569 -0.3122 -1.9145
 2703SOL     OW 8489   2.778   0.622   5.721 -0.2264  0.2473  0.7912
 2703SOL    HW1 8490   2.724   0.555   5.763 -2.0158 -0.3130 -2.2218
 2703SOL    HW2 8491   2.758   0.613   5.627  3.1787  1.7737 -0.1532
 2704SOL     OW 8492   2.500   3.070   4.481  0.1863  0.3261  0.4296
 2704SOL    HW1 8493   2.455   3.100   4.402 -1.5078  0.7207  1.5138
 2704SOL    HW2 8494   2.566   3.137   4.498 -0.1215  0.7627 -0.0719
 2705SOL     OW 8495   0.274   6.016   5.251  0.3326 -0.0989  0.5108
 2705SOL    HW1 8496   0.343   5.950   5.246  1.2421  0.4887  4.0380
 2705SOL    HW2 8497   0.321   6.098   5.266 -1.0364  0.5360  1.4374
 2706SOL     OW 8498   1.873   5.059   5.981  0.4147  0.3590 -0.3230
 2706SOL    HW1 8499   1.914   4.995   5.922 -1.1135 -0.3215 -0.6857
 2706SOL    HW2 8500   1.811   5.106   5.925 -0.6064  0.1213  0.6026
 2707SOL     OW 8501   0.168   3.265   3.261  0.7263  0.0005  0.0046
 2707SOL    HW1 8502   0.133   3.262   3.172 -1.9062 -0.3898  1.0027
 2707SOL    HW2 8503   0.230   3.338   3.260 -1.7716  2.1738 -1.2782
 2708SOL     OW 8504   5.913   2.870   5.340  0.1770  0.3148 -0.0868
 2708SOL    HW1 8505   5.984   2.814   5.309  0.8836 -0.4930  2.7616
 2708SOL    HW2 8506   5.949   2.959   5.337  0.6974  0.0986 -0.3491
 2709SOL     OW 8507   3.511   3.466   0.195  0.0970 -0.4108  0.1351
 2709SOL    HW1 8508   3.528   3.384   0.241  1.7003  0.3024  0.8645
 2709SOL    HW2 8509   3.416   3.475   0.196 -0.0579 -2.0002  0.4917
 2710SOL     OW 8510   5.622   3.303   6.002 -0.0580  0.0978  0.2493
 2710SOL    HW1 8511   5.614   3.383   5.949  0.5302  0.3337  0.5101
 2710SOL    HW2 8512   5.714   3.280   5.996 -0.3883 -1.0582 -0.5225
 2711SOL     OW 8513   4.958   0.394   3.603 -0.2462  0.2192 -0.5870
 2711SOL    HW1 8514   5.026   0.382   3.537 -0.6364 -1.7882 -0.6417
 2711SOL    HW2 8515   4.880   0.417   3.553 -0.1478  0.3106 -0.6980
 2712SOL     OW 8516   5.756   4.273   5.836 -0.0227 -0.1192 -0.5012
 2712SOL    HW1 8517   5.837   4.325   5.837 -1.0263  1.4785  1.2198
 2712SOL    HW2 8518   5.688   4.336   5.860 -1.4956 -1.8828 -0.0286
 2713SOL     OW 8519   1.843   0.481   3.701 -1.1651 -0.2919 -0.2178
 2713SOL    HW1 8520   1.816   0.572   3.709  0.4759  0.0263  2.1036
 2713SOL    HW2 8521   1.931   0.478   3.738 -0.7610 -2.6253 -1.2417
 2714SOL     OW 8522   3.051   3.744   3.496 -0.4575  0.3933 -0.7190
 2714SOL    HW1 8523   3.051   3.693   3.415  1.4242  1.6072 -1.5249
 2714SOL    HW2 8524   3.124   3.805   3.486 -1.7511  2.2771  0.8308
 2715SOL     OW 8525   3.498   5.436   0.234  0.3535 -0.2095 -0.0856
 2715SOL    HW1 8526   3.562   5.452   0.164 -1.2651 -0.2814 -1.6165
 2715SOL    HW2 8527   3.414   5.455   0.194 -0.6365 -0.5780  1.7715
 2716SOL     OW 8528   4.307   1.787   1.121  0.3574 -0.8415 -0.1261
 2716SOL    HW1 8529   4.397   1.769   1.093 -0.0766 -1.5192 -1.1202
 2716SOL    HW2 8530   4.257   1.710   1.092 -0.8676  0.3108 -1.1787
 2717SOL     OW 8531   3.007   1.972   2.103  0.2106 -0.5674  0.2820
 2717SOL    HW1 8532   2.940   2.038   2.084 -1.5938 -2.4955 -0.3700
 2717SOL    HW2 8533   3.059   1.968   2.023  0.8281  0.6143  0.6167
 2718SOL     OW 8534   5.641   4.435   2.542  0.3405  0.2673  0.2278
 2718SOL    HW1 8535   5.560   4.486   2.544 -0.6136 -1.2248  2.3934
 2718SOL    HW2 8536   5.703   4.488   2.492 -2.5703  0.5282 -3.2969
 2719SOL     OW 8537   5.860   1.654   1.984  0.1018  0.0357  0.2727
 2719SOL    HW1 8538   5.847   1.662   1.890  3.3381  0.9623 -0.1296
 2719SOL    HW2 8539   5.870   1.560   2.000 -0.4116 -0.1148 -0.2794
 2720SOL     OW 8540   1.718   2.007   2.052 -0.2670 -0.0255  0.6187
 2720SOL    HW1 8541   1.675   1.927   2.082 -0.5442 -0.5735 -1.2354
 2720SOL    HW2 8542   1.754   1.985   1.966 -0.0776  1.7538  0.2227
 2721SOL     OW 8543   1.407   5.743   5.637  0.1725 -0.1597 -0.4777
 2721SOL    HW1 8544   1.322   5.705   5.662  0.8423 -0.6195  1.1633
 2721SOL    HW2 8545   1.467   5.669   5.638  0.7332  0.2940 -0.9358
 2722SOL     OW 8546   5.571   5.061   0.834 -0.2106 -0.2390  0.0229
 2722SOL    HW1 8547   5.604   5.119   0.766 -2.7702  0.7494 -0.4181
 2722SOL    HW2 8548   5.498   5.013   0.793  0.1585 -1.8520  1.1638
 2723SOL     OW 8549   0.304   0.571   3.440 -0.1112  0.2375  0.3055
 2723SOL    HW1 8550   0.255   0.533   3.513  0.9816  0.7160  1.2931
 2723SOL    HW2 8551   0.256   0.651   3.418 -0.4401  0.0899  0.4895
 2724SOL     OW 8552   2.567   2.413   4.867 -0.1017 -0.0932 -0.2557
 2724SOL    HW1 8553   2.517   2.465   4.804  0.1796  0.1578 -0.2764
 2724SOL    HW2 8554   2.574   2.326   4.827 -0.1114  0.0059 -0.4725
 2725SOL     OW 8555   4.425   1.359   0.959  0.0108  0.1495 -0.4672
 2725SOL    HW1 8556   4.392   1.301   1.028 -0.2852 -0.8012 -1.3943
 2725SOL    HW2 8557   4.368   1.435   0.962  0.8562  0.7438  1.2599
 2726SOL     OW 8558   5.248   2.215   3.371 -0.0097  0.0984  0.4731
 2726SOL    HW1 8559   5.220   2.304   3.351  0.4523  0.0986 -0.1908
 2726SOL    HW2 8560   5.305   2.224   3.448 -0.4844  0.2971  0.8008
 2727SOL     OW 8561   5.092   2.206   2.536 -0.0651 -0.0536  0.3112
 2727SOL    HW1 8562   5.186   2.196   2.553 -0.3625 -1.3789  1.3118
 2727SOL    HW2 8563   5.076   2.300   2.541  1.0196  0.0967  1.2027
 2728SOL     OW 8564   0.064   4.707   0.115 -0.2693 -0.4380 -0.9040
 2728SOL    HW1 8565  -0.027   4.700   0.141 -0.0400  0.1946  0.0922
 2728SOL    HW2 8566   0.112   4.722   0.196  0.4312  1.7436 -1.6647
 2729SOL     OW 8567   3.323   6.336   4.421  0.4332 -0.4122 -0.1004
 2729SOL    HW1 8568   3.251   6.394   4.396  1.3053  1.1165  0.8548
 2729SOL    HW2 8569   3.297   6.250   4.388 -2.0871 -0.0108  0.7288
 2730SOL     OW 8570   5.639   1.871   1.778  0.5548 -0.1994 -0.0091
 2730SOL    HW1 8571   5.571   1.930   1.743  1.4142  1.1734  0.5863
 2730SOL    HW2 8572   5.707   1.871   1.711  0.4749 -0.6712 -0.0897
 2731SOL     OW 8573   0.768   3.997   1.761 -0.2922  0.6115 -0.2479
 2731SOL    HW1 8574   0.676   3.970   1.762 -0.0203 -0.3544  1.7685
 2731SOL    HW2 8575   0.766   4.092   1.762 -1.2621  0.5892 -0.0491
 2732SOL     OW 8576   4.503   5.111   2.466  0.7578 -0.2164  0.2560
 2732SOL    HW1 8577   4.572   5.174   2.441  0.5291 -0.6464 -1.4978
 2732SOL    HW2 8578   4.466   5.148   2.546  1.3836  1.3058 -0.1289
 2733SOL     OW 8579   1.866   0.039   0.980 -0.5711 -0.0766  0.8597
 2733SOL    HW1 8580   1.943   0.091   0.957 -1.5569  0.3030 -1.7227
 2733SOL    HW2 8581   1.897  -0.051   0.977  0.2821  0.1598  1.9569
 2734SOL     OW 8582   2.982   5.075   0.044 -0.6723 -0.1470 -0.3194
 2734SOL    HW1 8583   2.892   5.050   0.024  0.1453 -1.1950 -2.7622
 2734SOL    HW2 8584   3.036   5.009   0.001  1.3371  1.9304 -1.0860
 2735SOL     OW 8585   1.176   0.316   1.418  0.0007  0.7073  0.4030
 2735SOL    HW1 8586   1.088   0.306   1.382  0.4906 -0.8566 -0.4061
 2735SOL    HW2 8587   1.231   0.335   1.342  0.9063 -1.7342  0.4068
 2736SOL     OW 8588   1.541   4.648   5.076 -0.5370 -0.3443 -0.0078
 2736SOL    HW1 8589   1.514   4.661   4.985 -2.6458 -2.2391  0.3025
 2736SOL    HW2 8590   1.590   4.565   5.075 -1.4353 -0.8882  0.7438
 2737SOL     OW 8591   4.044   3.943   0.928  0.2473  0.4963 -0.2399
 2737SOL    HW1 8592   3.980   3.913   0.991 -0.1998  1.3425 -0.2903
 2737SOL    HW2 8593   3.993   3.986   0.859  0.9718  2.7835  0.6017
 2738SOL     OW 8594   2.155   5.607   1.807  0.0722 -0.4198  0.0565
 2738SOL    HW1 8595   2.158   5.652   1.891  0.5568 -0.0247 -0.1632
 2738SOL    HW2 8596   2.235   5.554   1.805  0.9466  0.8617 -0.8336
 2739SOL     OW 8597   1.580   6.241   2.004 -0.3471 -0.1883  0.3600
 2739SOL    HW1 8598   1.604   6.321   1.957  1.2869 -1.1259 -0.4638
 2739SOL    HW2 8599   1.521   6.270   2.074  1.5726  1.9598  1.1406
 2740SOL     OW 8600   4.419   0.753   2.889  0.3188  0.1033  0.6713
 2740SOL    HW1 8601   4.486   0.693   2.857  1.5394  1.6609  0.2630
 2740SOL    HW2 8602   4.377   0.787   2.809  0.3189  0.5494  0.8586
 2741SOL     OW 8603   2.663   1.918   0.325 -0.5380 -0.2044 -0.4628
 2741SOL    HW1 8604   2.592   1.924   0.388 -0.2703 -0.9267 -0.0821
 2741SOL    HW2 8605   2.724   1.987   0.350 -0.5461 -0.3381 -0.0715
 2742SOL     OW 8606   3.221   4.721   4.003  0.2654  0.3596  0.2268
 2742SOL    HW1 8607   3.174   4.750   3.925  2.3613  0.7683 -0.9243
 2742SOL    HW2 8608   3.222   4.626   3.997 -0.0063  0.3720  0.0108
 2743SOL     OW 8609   2.020   0.838   5.222  0.1513  0.2025 -0.1388
 2743SOL    HW1 8610   1.930   0.867   5.207  0.3786  0.6158 -0.7103
 2743SOL    HW2 8611   2.074   0.898   5.171  0.7422 -0.1759  0.0284
 2744SOL     OW 8612   5.644   1.892   2.500 -0.2871  0.5160 -0.6075
 2744SOL    HW1 8613   5.737   1.873   2.505 -0.7986 -1.8077  1.3012
 2744SOL    HW2 8614   5.607   1.855   2.580 -2.8907  1.1249 -1.4481
 2745SOL     OW 8615   1.663   5.209   5.550 -0.1785 -0.2735  0.8288
 2745SOL    HW1 8616   1.584   5.157   5.567 -1.2648  1.2014  0.3815
 2745SOL    HW2 8617   1.673   5.262   5.629 -0.5936  0.7346  0.2127
 2746SOL     OW 8618   5.746   3.153   3.486  0.3023 -0.1408 -0.0830
 2746SOL    HW1 8619   5.835   3.154   3.451  0.5503  1.2929  0.5596
 2746SOL    HW2 8620   5.690   3.161   3.408  0.7773  0.3927 -0.3774
 2747SOL     OW 8621   1.408   5.821   3.181  0.0063  0.2615  0.2400
 2747SOL    HW1 8622   1.486   5.861   3.218 -0.1599 -1.2361  2.3454
 2747SOL    HW2 8623   1.357   5.894   3.146 -0.0164  1.8276  3.3824
 2748SOL     OW 8624   4.436   6.327   4.174 -0.5161  0.1465 -0.4597
 2748SOL    HW1 8625   4.495   6.265   4.131 -0.2131 -1.3414  1.9490
 2748SOL    HW2 8626   4.442   6.407   4.122  2.0870 -0.6266 -1.4371
 2749SOL     OW 8627   6.185   3.767   1.563 -0.7837  0.7801 -0.5594
 2749SOL    HW1 8628   6.094   3.740   1.562  0.2622 -3.0015 -0.9847
 2749SOL    HW2 8629   6.234   3.687   1.545  2.6781  2.4762  0.8141
 2750SOL     OW 8630   4.554   0.092   4.507  0.0292  0.2255  0.5121
 2750SOL    HW1 8631   4.635   0.078   4.556  0.0074 -0.5254  0.3365
 2750SOL    HW2 8632   4.529   0.005   4.476 -0.2194  0.6148 -0.4197
 2751SOL     OW 8633   1.449   5.446   4.008 -0.2965 -0.4516 -0.7231
 2751SOL    HW1 8634   1.386   5.434   4.079  2.0161 -1.5119  1.2388
 2751SOL    HW2 8635   1.480   5.536   4.018  0.3406 -0.7311 -0.0626
 2752SOL     OW 8636   5.635   2.134   1.488 -0.1959  0.2263 -0.2219
 2752SOL    HW1 8637   5.657   2.154   1.397  0.6901  1.3357  0.2169
 2752SOL    HW2 8638   5.629   2.039   1.491  2.7402 -0.0235 -0.8138
 2753SOL     OW 8639   4.756   4.034   0.076  0.0937 -0.8082  0.1388
 2753SOL    HW1 8640   4.835   4.028   0.130  0.2234  0.7264  0.1554
 2753SOL    HW2 8641   4.786   4.016  -0.013  0.6496  0.5822  0.0225
 2754SOL     OW 8642   5.763   2.669   5.838 -0.3382 -0.7761  0.0010
 2754SOL    HW1 8643   5.678   2.712   5.840 -0.0076 -0.0083 -1.6041
 2754SOL    HW2 8644   5.826   2.740   5.824  0.5013 -1.4238  0.4055
 2755SOL     OW 8645   5.272   1.987   5.733  0.6029  0.2102 -0.0849
 2755SOL    HW1 8646   5.234   2.036   5.807  0.3480  0.2860 -0.2659
 2755SOL    HW2 8647   5.199   1.938   5.696  0.6818  0.3583 -0.4374
 2756SOL     OW 8648   4.954   1.763   3.042  0.4540  0.6316  0.1177
 2756SOL    HW1 8649   4.963   1.755   3.137  1.2614 -0.1786 -0.0171
 2756SOL    HW2 8650   4.867   1.728   3.023  0.2849  0.8070  0.5514
 2757SOL     OW 8651   2.795   1.550   2.712  0.2466  0.1156 -0.4788
 2757SOL    HW1 8652   2.820   1.591   2.629  1.0886 -1.0752 -0.8317
 2757SOL    HW2 8653   2.717   1.499   2.691  0.8249 -0.6934 -0.7019
 2758SOL     OW 8654   4.432   4.801   0.256  0.5038  0.4557 -0.5764
 2758SOL    HW1 8655   4.449   4.723   0.308  1.2135  0.5357 -0.6876
 2758SOL    HW2 8656   4.516   4.822   0.215  0.4942  1.6873  0.0068
 2759SOL     OW 8657   5.027   0.554   1.164 -0.2033 -0.2549 -0.1311
 2759SOL    HW1 8658   4.954   0.512   1.119  1.3776 -0.4374 -2.5532
 2759SOL    HW2 8659   5.073   0.483   1.207 -1.0971 -0.2037  0.9472
 2760SOL     OW 8660   0.145   5.536   0.109 -0.1064  0.0524 -0.4087
 2760SOL    HW1 8661   0.197   5.505   0.184  0.7136  0.4512 -0.7964
 2760SOL    HW2 8662   0.209   5.583   0.055 -1.0425  1.2587 -0.4811
 2761SOL     OW 8663   4.703   5.251   5.293 -0.2439 -0.0132  0.1423
 2761SOL    HW1 8664   4.786   5.206   5.310  0.6308  0.9092 -1.5738
 2761SOL    HW2 8665   4.699   5.318   5.361 -0.1351 -0.7944  0.9256
 2762SOL     OW 8666   2.803   3.445   1.353  0.0382  0.3586  0.5447
 2762SOL    HW1 8667   2.791   3.355   1.322 -1.9136  1.0082 -0.7007
 2762SOL    HW2 8668   2.724   3.463   1.404  0.9930  0.9643  1.8249
 2763SOL     OW 8669   6.323   3.599   2.543  0.5519  0.5718  0.3024
 2763SOL    HW1 8670   6.356   3.524   2.494 -1.5971 -0.3772  0.2716
 2763SOL    HW2 8671   6.241   3.622   2.500  0.1955  1.6917  1.5418
 2764SOL     OW 8672   0.977   1.976   0.462  0.1763  0.2174 -0.3535
 2764SOL    HW1 8673   0.890   2.013   0.445  0.0791  0.1987  0.1011
 2764SOL    HW2 8674   0.988   1.909   0.394 -0.0481  0.4112 -0.5826
 2765SOL     OW 8675   4.727   6.110   4.578  0.1712  0.2824 -0.7334
 2765SOL    HW1 8676   4.805   6.057   4.565  1.3410  2.2156 -1.9578
 2765SOL    HW2 8677   4.658   6.065   4.530  0.7556 -0.9561 -0.4144
 2766SOL     OW 8678   0.520   6.000   4.371 -0.1142 -0.1671 -0.3713
 2766SOL    HW1 8679   0.544   6.060   4.300 -0.2690  2.2740  1.5847
 2766SOL    HW2 8680   0.427   5.980   4.355 -0.2358  0.6195 -0.6587
 2767SOL     OW 8681   5.618   5.223   3.139  0.2998 -0.3237  0.0371
 2767SOL    HW1 8682   5.579   5.290   3.083  0.6882 -1.4037 -1.5909
 2767SOL    HW2 8683   5.568   5.226   3.220  0.1912  1.7851 -0.0828
 2768SOL     OW 8684   3.857   5.181   5.270 -0.5030 -0.3157  0.1029
 2768SOL    HW1 8685   3.763   5.176   5.284 -0.5587 -0.0697 -0.1858
 2768SOL    HW2 8686   3.895   5.178   5.358 -0.7341 -1.4321  0.1746
 2769SOL     OW 8687   1.829   4.823   2.692  0.6224 -0.2876  0.1366
 2769SOL    HW1 8688   1.853   4.772   2.614 -1.8410  0.8927 -1.4322
 2769SOL    HW2 8689   1.872   4.907   2.679  1.8327 -0.7473  1.0485
 2770SOL     OW 8690   3.248   0.331   3.276 -0.1624  0.3602 -0.1640
 2770SOL    HW1 8691   3.319   0.269   3.257  0.3145  0.8284  0.0681
 2770SOL    HW2 8692   3.289   0.397   3.332 -0.5818  1.0785 -0.7096
 2771SOL     OW 8693   4.322   4.138   4.658 -0.1183  0.1362 -0.0337
 2771SOL    HW1 8694   4.358   4.187   4.584  0.0109 -0.9232 -0.6693
 2771SOL    HW2 8695   4.345   4.191   4.735  3.2929 -0.7938 -0.3562
 2772SOL     OW 8696   1.573   3.033   1.574 -0.2160  0.4219 -0.2453
 2772SOL    HW1 8697   1.633   2.961   1.554 -0.3565  0.2096  0.0871
 2772SOL    HW2 8698   1.538   3.010   1.660 -0.4919  0.7347 -0.2788
 2773SOL     OW 8699   5.449   0.309   2.564  0.4966  1.0492  0.0455
 2773SOL    HW1 8700   5.407   0.338   2.645  0.8981 -4.3196  2.3900
 2773SOL    HW2 8701   5.541   0.335   2.574  0.1917  1.9777  0.5020
 2774SOL     OW 8702   5.778   3.985   3.737 -0.4001 -0.1811 -0.0055
 2774SOL    HW1 8703   5.701   3.965   3.789 -0.7144 -0.2056 -0.4716
 2774SOL    HW2 8704   5.763   3.939   3.654  0.6174 -1.0857  0.3020
 2775SOL     OW 8705   1.950   4.307   3.926  0.2803  0.3083 -0.1976
 2775SOL    HW1 8706   1.970   4.358   3.847 -1.2478 -0.6931 -1.2673
 2775SOL    HW2 8707   1.957   4.216   3.898  1.4888 -0.0766  1.3117
 2776SOL     OW 8708   5.336   2.964   3.551 -0.2750  0.0375 -0.1024
 2776SOL    HW1 8709   5.285   3.044   3.557  0.5724  0.8663 -3.2192
 2776SOL    HW2 8710   5.384   2.960   3.634 -0.6011  2.5624  0.2427
 2777SOL     OW 8711   2.069   3.840   2.874 -0.2334  0.2653 -0.2160
 2777SOL    HW1 8712   2.129   3.870   2.805  0.5587 -1.3185 -0.2533
 2777SOL    HW2 8713   2.007   3.783   2.828  0.0747 -0.5076  0.3243
 2778SOL     OW 8714   1.365   0.279   2.524 -0.2949 -0.5918 -0.5025
 2778SOL    HW1 8715   1.321   0.346   2.578 -3.0585 -1.1186 -1.9910
 2778SOL    HW2 8716   1.359   0.199   2.576 -0.5622 -0.5188 -0.4178
 2779SOL     OW 8717   0.740   4.045   5.051 -0.1834 -0.2232  0.9488
 2779SOL    HW1 8718   0.740   4.107   5.124 -2.3966  1.0110 -0.0674
 2779SOL    HW2 8719   0.758   4.099   4.974 -0.7240 -1.0621  0.2296
 2780SOL     OW 8720   5.146   3.184   0.688 -0.2658 -0.2006 -0.0540
 2780SOL    HW1 8721   5.084   3.191   0.761  0.3600 -0.8010  0.5485
 2780SOL    HW2 8722   5.230   3.210   0.727  0.4227 -2.3467 -0.0718
 2781SOL     OW 8723   4.138   0.445   1.300 -0.2274  0.3407  0.2790
 2781SOL    HW1 8724   4.140   0.352   1.319 -0.2565  0.7047  2.1323
 2781SOL    HW2 8725   4.229   0.466   1.276 -0.0929 -0.0421  0.4515
 2782SOL     OW 8726   5.359   1.358   0.055 -0.6819  0.0042  0.3527
 2782SOL    HW1 8727   5.427   1.292   0.071 -0.1365  0.2413 -0.8958
 2782SOL    HW2 8728   5.278   1.318   0.087  0.0319 -0.2943  1.8277
 2783SOL     OW 8729   5.278   3.234   0.294 -0.1176 -0.4219  0.7691
 2783SOL    HW1 8730   5.186   3.227   0.317 -0.1603  1.5702  1.2928
 2783SOL    HW2 8731   5.279   3.259   0.202 -0.1008 -0.2785  0.8084
 2784SOL     OW 8732   1.650   4.756   6.246  0.4896  0.4162 -0.6109
 2784SOL    HW1 8733   1.559   4.766   6.271  0.7501  3.2763 -0.7121
 2784SOL    HW2 8734   1.675   4.670   6.280 -1.7180  0.3780  0.9763
 2785SOL     OW 8735   3.529   3.241   1.570  0.0146 -0.4461 -0.0174
 2785SOL    HW1 8736   3.504   3.320   1.619  0.5446 -0.1914 -0.1494
 2785SOL    HW2 8737   3.541   3.272   1.480 -2.6963 -1.2495 -0.7022
 2786SOL     OW 8738   2.666   0.507   1.497 -0.0127 -0.0242 -0.3873
 2786SOL    HW1 8739   2.752   0.479   1.528  0.7490  0.1250 -2.3032
 2786SOL    HW2 8740   2.641   0.579   1.555  0.5642 -0.8922  0.9728
 2787SOL     OW 8741   0.005   5.669   5.965  0.4392  0.2062  0.2769
 2787SOL    HW1 8742   0.007   5.684   6.059 -0.7863 -0.4857  0.4282
 2787SOL    HW2 8743   0.081   5.613   5.948 -0.2034 -0.9232  1.0877
 2788SOL     OW 8744   3.528   2.644   4.866  0.7529  0.3598  0.2954
 2788SOL    HW1 8745   3.616   2.665   4.898  0.1666 -0.0615  2.2074
 2788SOL    HW2 8746   3.490   2.589   4.934 -0.3209 -1.0242 -1.3983
 2789SOL     OW 8747   1.708   0.387   5.078 -0.2227 -0.0281  0.1765
 2789SOL    HW1 8748   1.723   0.481   5.065  1.2130 -0.2557  0.0871
 2789SOL    HW2 8749   1.736   0.347   4.996 -1.1439 -0.5222  0.0925
 2790SOL     OW 8750   3.670   4.542   5.123 -0.3069 -0.3843 -0.0834
 2790SOL    HW1 8751   3.706   4.466   5.168 -1.7623 -0.0504  1.6718
 2790SOL    HW2 8752   3.584   4.515   5.093  0.4162 -0.4181 -2.2210
 2791SOL     OW 8753   0.454   5.397   5.832  0.3639  0.0791  0.1811
 2791SOL    HW1 8754   0.438   5.305   5.856 -1.1900  0.4008  0.4656
 2791SOL    HW2 8755   0.536   5.396   5.783  1.1354 -1.2594  1.4598
 2792SOL     OW 8756   2.358   5.547   4.122  0.0839 -0.5007  0.0721
 2792SOL    HW1 8757   2.371   5.618   4.184  2.0531 -1.3675  0.7113
 2792SOL    HW2 8758   2.411   5.571   4.046  1.3140 -1.5763  0.5657
 2793SOL     OW 8759   2.867   1.055   0.799 -0.0642  0.3642 -0.1752
 2793SOL    HW1 8760   2.805   1.127   0.812 -1.7051 -1.3775  2.4717
 2793SOL    HW2 8761   2.816   0.988   0.752  1.1966  0.5951 -1.9158
 2794SOL     OW 8762   0.167   1.068   0.495  0.2133 -0.5169 -0.1440
 2794SOL    HW1 8763   0.260   1.061   0.519 -0.2635 -0.5145  1.8139
 2794SOL    HW2 8764   0.135   0.978   0.496 -0.0944 -0.4034  0.4157
 2795SOL     OW 8765   0.712   0.181   1.928 -1.2823  0.3081  0.3450
 2795SOL    HW1 8766   0.684   0.123   1.998 -0.0768 -2.3029 -1.2502
 2795SOL    HW2 8767   0.806   0.165   1.920 -1.6076 -0.3533 -2.6546
 2796SOL     OW 8768   0.806   2.113   3.474  0.4370 -0.2086  0.4264
 2796SOL    HW1 8769   0.741   2.184   3.473  1.5338  0.8304 -1.8257
 2796SOL    HW2 8770   0.803   2.079   3.563 -0.7384  2.1125  1.3173
 2797SOL     OW 8771   5.458   5.467   4.650  0.3456  0.6322  0.5461
 2797SOL    HW1 8772   5.547   5.442   4.628  0.2224 -0.3851  1.1912
 2797SOL    HW2 8773   5.453   5.459   4.746 -1.1727 -1.8094  0.2902
 2798SOL     OW 8774   5.262   3.770   4.316  0.2947  0.0260 -0.2833
 2798SOL    HW1 8775   5.183   3.823   4.304 -0.3211 -1.2782 -2.1525
 2798SOL    HW2 8776   5.231   3.691   4.361  0.8463  0.2737  0.5492
 2799SOL     OW 8777   2.018   1.870   3.555  0.3070 -0.1906 -0.1096
 2799SOL    HW1 8778   1.953   1.911   3.613  1.8794 -0.3921  1.8581
 2799SOL    HW2 8779   2.032   1.783   3.593  1.2386 -0.3880 -0.9074
 2800SOL     OW 8780   4.820   2.216   4.010 -0.2288 -0.1746  0.5806
 2800SOL    HW1 8781   4.870   2.182   4.084 -1.2740 -1.3960  0.7454
 2800SOL    HW2 8782   4.828   2.149   3.943  0.7320  0.9384 -0.4445
 2801SOL     OW 8783   4.955   2.380   1.953 -0.2449  0.1127  0.2300
 2801SOL    HW1 8784   4.962   2.395   2.047 -1.7524 -2.5097  0.8173
 2801SOL    HW2 8785   4.995   2.293   1.941 -2.7593 -0.9001 -1.0654
 2802SOL     OW 8786   5.659   2.892   1.839  0.4415 -0.3305  0.0098
 2802SOL    HW1 8787   5.712   2.863   1.913  0.9888 -0.0602 -0.2734
 2802SOL    HW2 8788   5.592   2.949   1.878 -0.4542 -1.7068  0.5340
 2803SOL     OW 8789   3.253   0.180   1.488 -0.1298  0.2182 -0.5831
 2803SOL    HW1 8790   3.215   0.253   1.538 -0.0021 -0.4166  0.4551
 2803SOL    HW2 8791   3.193   0.107   1.502  0.2063 -0.1226 -0.9080
 2804SOL     OW 8792   4.488   4.711   5.125  0.3880 -0.1886  0.1763
 2804SOL    HW1 8793   4.495   4.729   5.031 -0.4427 -0.7516  0.0038
 2804SOL    HW2 8794   4.395   4.724   5.145  0.4821 -0.5104  0.8345
 2805SOL     OW 8795   1.654   1.491   4.840  0.2207 -0.1959 -0.0923
 2805SOL    HW1 8796   1.738   1.472   4.798 -0.0304  1.4381 -1.3893
 2805SOL    HW2 8797   1.677   1.542   4.917  0.4235  0.6005 -0.6653
 2806SOL     OW 8798   3.642   2.014   6.059 -0.4829 -0.0384  0.0253
 2806SOL    HW1 8799   3.608   1.930   6.092 -1.1821 -0.1093 -0.8633
 2806SOL    HW2 8800   3.684   1.992   5.976  1.2579  0.1479  0.8441
 2807SOL     OW 8801   4.390   2.033   2.631 -0.8808 -0.0813 -0.9874
 2807SOL    HW1 8802   4.435   2.025   2.715 -0.3115  1.2952 -1.1614
 2807SOL    HW2 8803   4.297   2.023   2.652 -0.8992  2.1796  0.0756
 2808SOL     OW 8804   3.718   5.568   0.412  0.0515  0.3094  0.2015
 2808SOL    HW1 8805   3.759   5.653   0.431  0.5102  0.3131 -0.7812
 2808SOL    HW2 8806   3.637   5.590   0.367  1.1536  0.1766 -1.8757
 2809SOL     OW 8807   1.957   2.332   1.003 -0.1891 -0.7016  0.4132
 2809SOL    HW1 8808   1.946   2.423   0.973 -0.2268 -0.9697 -0.4004
 2809SOL    HW2 8809   2.051   2.323   1.018 -0.0258 -0.8791 -0.6659
 2810SOL     OW 8810   5.499   4.175   3.140 -0.0445  1.1085  0.2815
 2810SOL    HW1 8811   5.579   4.216   3.106  0.3289  1.3269  1.4262
 2810SOL    HW2 8812   5.506   4.084   3.113  0.2254  1.2832 -0.2628
 2811SOL     OW 8813   4.096   6.027   1.036  0.2962  0.3895  0.3762
 2811SOL    HW1 8814   4.027   6.078   0.993  0.0711  0.1552  0.4589
 2811SOL    HW2 8815   4.116   6.075   1.116  0.1453  0.3943  0.4112
 2812SOL     OW 8816   2.159   0.983   5.033  0.0518  0.3783  0.5180
 2812SOL    HW1 8817   2.240   0.977   5.084  0.3823  3.0199  0.3562
 2812SOL    HW2 8818   2.188   1.005   4.945 -0.8140  0.8142  0.3394
 2813SOL     OW 8819   2.933   2.639   0.046 -0.3249 -0.5568  0.2011
 2813SOL    HW1 8820   2.889   2.604   0.124 -0.7595 -0.4179  0.0185
 2813SOL    HW2 8821   3.007   2.690   0.081 -0.0692 -1.1159  0.4949
 2814SOL     OW 8822   5.271   0.912   4.838  0.1310 -0.7641  0.2048
 2814SOL    HW1 8823   5.270   0.887   4.931  2.6405 -0.0735  0.4559
 2814SOL    HW2 8824   5.335   0.853   4.798 -0.6803 -0.8231 -1.0471
 2815SOL     OW 8825   3.249   1.665   4.626  0.4643  0.3015  0.2330
 2815SOL    HW1 8826   3.326   1.660   4.683  1.0331  0.7514 -0.4904
 2815SOL    HW2 8827   3.272   1.731   4.560  0.2751 -1.0591 -1.2212
 2816SOL     OW 8828   5.079   5.714   2.138 -0.0780 -0.1176 -0.1265
 2816SOL    HW1 8829   5.143   5.655   2.098  0.8896  0.2844  0.8271
 2816SOL    HW2 8830   4.997   5.664   2.137  0.5642 -1.1882 -0.0229
 2817SOL     OW 8831   4.901   1.447   5.777 -0.0316 -0.1124  0.2558
 2817SOL    HW1 8832   4.860   1.451   5.864  0.5688  1.1347  0.4860
 2817SOL    HW2 8833   4.957   1.369   5.781  0.2204  0.1036  1.0900
 2818SOL     OW 8834   0.064   5.792   0.425  0.0139  0.8147  0.0872
 2818SOL    HW1 8835   0.086   5.812   0.516  1.9786 -0.3075 -0.1062
 2818SOL    HW2 8836   0.045   5.698   0.425  1.1416  0.5704 -0.8408
 2819SOL     OW 8837   2.797   5.094   1.744 -0.4406 -0.3739 -0.1569
 2819SOL    HW1 8838   2.813   5.185   1.767 -1.4686  0.0580 -1.1239
 2819SOL    HW2 8839   2.720   5.096   1.688  1.6343 -1.4292 -3.2008
 2820SOL     OW 8840   5.503   3.207   3.687  0.4014 -0.0776  0.3326
 2820SOL    HW1 8841   5.584   3.199   3.636 -0.7343 -0.9751 -1.3544
 2820SOL    HW2 8842   5.502   3.299   3.714  1.3860  0.2522 -0.6684
 2821SOL     OW 8843   4.388   5.990   1.477 -0.6349  0.2015  0.2286
 2821SOL    HW1 8844   4.395   5.991   1.381  0.6827  0.2709  0.3206
 2821SOL    HW2 8845   4.433   6.069   1.505 -0.6528 -0.0401  0.9372
 2822SOL     OW 8846   5.644   2.204   4.762  0.0230 -0.3124  0.2181
 2822SOL    HW1 8847   5.590   2.128   4.741 -1.7292  1.1921 -0.9785
 2822SOL    HW2 8848   5.721   2.195   4.706 -1.0491 -0.2881 -1.2967
 2823SOL     OW 8849   2.297   2.322   0.781  0.7014 -0.1182 -0.0891
 2823SOL    HW1 8850   2.382   2.290   0.752 -0.1768 -1.9663 -0.6829
 2823SOL    HW2 8851   2.267   2.258   0.845 -0.6214  0.0548 -0.5159
 2824SOL     OW 8852   0.079   4.053   0.382 -0.3842 -0.0946  0.3420
 2824SOL    HW1 8853   0.081   4.135   0.431  0.2462  0.4646 -0.5863
 2824SOL    HW2 8854   0.159   4.055   0.330  0.4999 -2.1182  1.5949
 2825SOL     OW 8855   3.356   1.762   5.274  0.0668  0.4393  0.3893
 2825SOL    HW1 8856   3.403   1.730   5.197  0.2850  0.7829  0.3794
 2825SOL    HW2 8857   3.392   1.849   5.290  1.1523 -0.2438  1.8331
 2826SOL     OW 8858   5.640   3.197   5.582  0.5089  0.2948  0.2828
 2826SOL    HW1 8859   5.551   3.232   5.588  0.4529 -0.2853  3.2031
 2826SOL    HW2 8860   5.696   3.274   5.581 -0.0123  0.7394 -3.1856
 2827SOL     OW 8861   4.052   4.155   4.091  0.3161  0.7092  0.5096
 2827SOL    HW1 8862   3.967   4.175   4.130  0.6268  0.3412  1.3787
 2827SOL    HW2 8863   4.070   4.065   4.117  1.0467  0.8374  0.4602
 2828SOL     OW 8864   0.625   1.270   1.406 -0.0440  0.4969  0.0661
 2828SOL    HW1 8865   0.671   1.350   1.431  2.3076 -0.8341  0.2468
 2828SOL    HW2 8866   0.679   1.200   1.443 -0.3218 -1.2800 -2.7350
 2829SOL     OW 8867   4.192   6.363   1.691 -0.2846  0.1330  0.2816
 2829SOL    HW1 8868   4.237   6.317   1.761 -0.6387 -0.3387  0.2035
 2829SOL    HW2 8869   4.116   6.308   1.671  0.2386 -0.1298 -1.0041
 2830SOL     OW 8870   2.528   2.565   0.752 -0.5559  0.6159  0.2827
 2830SOL    HW1 8871   2.474   2.525   0.684 -0.0812  0.0881  0.2183
 2830SOL    HW2 8872   2.607   2.512   0.755 -0.6510  0.5239  1.3804
 2831SOL     OW 8873   0.023   4.172   3.662  0.2595  0.6295 -0.0117
 2831SOL    HW1 8874  -0.017   4.257   3.643  1.1894  1.0880  0.0495
 2831SOL    HW2 8875  -0.036   4.109   3.621 -1.7421  1.1219  1.9638
 2832SOL     OW 8876   3.818   2.367   1.470  0.3001  0.1158 -0.3040
 2832SOL    HW1 8877   3.738   2.381   1.420  0.9923  0.8645 -1.2250
 2832SOL    HW2 8878   3.820   2.273   1.487 -0.1168 -0.1054 -1.4104
 2833SOL     OW 8879   3.405   3.760   5.039 -0.2514 -0.2356 -0.3831
 2833SOL    HW1 8880   3.321   3.714   5.047 -0.8529  0.7454 -0.8425
 2833SOL    HW2 8881   3.399   3.806   4.955  1.8330 -2.2921 -1.6989
 2834SOL     OW 8882   1.403   5.399   0.158  0.3656  0.1374  0.1815
 2834SOL    HW1 8883   1.407   5.467   0.226  0.4095  1.2963 -0.9615
 2834SOL    HW2 8884   1.494   5.374   0.144  0.8754  3.3529 -2.8346
 2835SOL     OW 8885   4.393   4.521   3.114 -0.1557  0.6839  0.4497
 2835SOL    HW1 8886   4.371   4.608   3.146  1.5315  0.8218  1.3257
 2835SOL    HW2 8887   4.482   4.530   3.079 -0.1734 -0.5510  0.0518
 2836SOL     OW 8888   1.015   5.109   0.273 -0.1880  0.8244  0.9160
 2836SOL    HW1 8889   1.107   5.126   0.295 -0.1231  0.6201  0.8041
 2836SOL    HW2 8890   0.966   5.141   0.349  0.1483 -1.2760  2.0443
 2837SOL     OW 8891   1.778   4.927   4.308 -0.7887  0.1894  0.7959
 2837SOL    HW1 8892   1.719   4.861   4.271  2.1528 -1.2071 -1.6967
 2837SOL    HW2 8893   1.780   4.997   4.242  1.2334 -0.3606  0.2297
 2838SOL     OW 8894   0.534   3.077   3.394 -0.1708  0.7433 -0.3704
 2838SOL    HW1 8895   0.581   3.114   3.319  1.2412 -2.7914 -1.3200
 2838SOL    HW2 8896   0.602   3.063   3.460 -0.1837 -2.3096 -0.9247
 2839SOL     OW 8897   0.725   6.200   3.049 -0.4751 -0.2902  0.4941
 2839SOL    HW1 8898   0.642   6.164   3.080 -0.8834  0.7435  0.6356
 2839SOL    HW2 8899   0.743   6.153   2.968 -1.4051 -0.2541  0.2613
 2840SOL     OW 8900   5.888   3.336   4.288  0.0981 -0.1400 -0.2988
 2840SOL    HW1 8901   5.851   3.258   4.247 -0.0898 -0.2922  0.1517
 2840SOL    HW2 8902   5.920   3.389   4.215 -0.7215 -0.1566 -0.6832
 2841SOL     OW 8903   2.865   4.122   2.035 -0.2695  0.1108  0.5521
 2841SOL    HW1 8904   2.878   4.134   2.129  1.3339 -1.5392  0.5661
 2841SOL    HW2 8905   2.864   4.211   1.999 -1.3423  0.7797  2.1619
 2842SOL     OW 8906   1.146   4.756   3.259  0.1427 -0.8263 -0.0064
 2842SOL    HW1 8907   1.190   4.737   3.176  0.9571 -0.0149  0.2368
 2842SOL    HW2 8908   1.214   4.796   3.313 -0.4493 -1.1512  0.9753
 2843SOL     OW 8909   4.929   1.741   1.338 -0.0287 -0.9873  0.7392
 2843SOL    HW1 8910   5.024   1.733   1.339  0.1363  0.2503 -1.3317
 2843SOL    HW2 8911   4.900   1.668   1.283 -0.1733 -0.6894  0.4147
 2844SOL     OW 8912   1.598   5.871   2.282  0.1458 -0.0085 -0.2346
 2844SOL    HW1 8913   1.584   5.877   2.376  0.2992 -3.4313  0.0735
 2844SOL    HW2 8914   1.608   5.778   2.265  0.7705  0.5920 -3.5698
 2845SOL     OW 8915   1.664   1.366   3.590  0.2040 -0.5110 -0.0655
 2845SOL    HW1 8916   1.586   1.417   3.568 -1.2392 -2.9490 -0.7408
 2845SOL    HW2 8917   1.680   1.385   3.683 -0.0613  1.4269 -0.3939
 2846SOL     OW 8918   4.975   2.001   6.350  0.4417 -0.2624 -0.4104
 2846SOL    HW1 8919   5.054   2.054   6.340 -0.0600  0.3171 -1.3264
 2846SOL    HW2 8920   4.968   1.986   6.444  0.3007  1.7576 -0.0704
 2847SOL     OW 8921   0.877   6.011   1.227  0.2931 -0.2959 -0.0175
 2847SOL    HW1 8922   0.928   5.932   1.240  1.0212  0.1797  0.0148
 2847SOL    HW2 8923   0.875   6.023   1.132 -0.1493 -0.5647 -0.0454
 2848SOL     OW 8924   1.019   2.158   4.955  0.6979 -0.1635  0.3466
 2848SOL    HW1 8925   0.923   2.154   4.953  0.7144 -0.8533  0.7968
 2848SOL    HW2 8926   1.042   2.206   4.875 -0.0626  0.9602  0.7744
 2849SOL     OW 8927   5.256   2.643   5.212  0.6382 -0.4648  0.1814
 2849SOL    HW1 8928   5.265   2.654   5.306  0.1751 -2.6416  0.5010
 2849SOL    HW2 8929   5.170   2.679   5.191 -0.0143 -1.6081  0.8781
 2850SOL     OW 8930   4.993   5.062   3.764  0.0352  0.4302  0.6080
 2850SOL    HW1 8931   4.921   5.085   3.705 -0.3865  1.2754  1.4424
 2850SOL    HW2 8932   5.038   4.990   3.720 -1.7443 -0.5807  0.3916
 2851SOL     OW 8933   6.004   1.568   0.127 -0.2902 -0.7486  0.4751
 2851SOL    HW1 8934   6.051   1.638   0.173  1.0690 -1.5083  0.2740
 2851SOL    HW2 8935   5.916   1.571   0.163 -0.7145  2.1054 -0.6397
 2852SOL     OW 8936   0.780   4.978   2.563 -0.5967 -0.2066 -0.1161
 2852SOL    HW1 8937   0.791   5.063   2.605  1.0788  0.4399 -1.7818
 2852SOL    HW2 8938   0.869   4.948   2.546 -1.2040 -1.0296 -2.0089
 2853SOL     OW 8939   1.481   2.589   4.873 -0.0140 -0.0928  0.4307
 2853SOL    HW1 8940   1.389   2.584   4.897  0.3810 -1.3919  1.7793
 2853SOL    HW2 8941   1.491   2.525   4.802 -0.4240  1.1129 -0.7521
 2854SOL     OW 8942   0.954   6.020   2.980  0.8475 -0.2825  0.7226
 2854SOL    HW1 8943   0.978   6.002   2.889 -0.2851  0.0588  0.3487
 2854SOL    HW2 8944   0.899   5.946   3.005 -2.4864  1.7059 -0.3008
 2855SOL     OW 8945   4.665   6.339   0.080 -0.5267  0.4832  0.1228
 2855SOL    HW1 8946   4.670   6.321   0.174  0.4157 -1.0803 -0.2107
 2855SOL    HW2 8947   4.738   6.398   0.063 -1.8223  2.2752  0.6928
 2856SOL     OW 8948   0.433   2.859   5.996  0.0778  0.2818  0.3066
 2856SOL    HW1 8949   0.440   2.786   5.935 -1.0014  2.3305 -2.3685
 2856SOL    HW2 8950   0.519   2.900   5.995 -0.0966  0.6451 -0.3101
 2857SOL     OW 8951   2.361   5.729   3.536 -0.5225  0.0343  0.1769
 2857SOL    HW1 8952   2.309   5.701   3.612  0.8018  0.4773  1.2768
 2857SOL    HW2 8953   2.442   5.678   3.542  0.0376  0.8488 -0.3384
 2858SOL     OW 8954   0.189   3.068   1.246 -0.0723 -0.3067 -0.1758
 2858SOL    HW1 8955   0.150   3.047   1.330  2.4943 -0.4701  1.0464
 2858SOL    HW2 8956   0.153   3.154   1.223 -3.0269 -1.5445 -0.3938
 2859SOL     OW 8957   2.540   4.722   6.167 -0.3414  0.3369  0.0939
 2859SOL    HW1 8958   2.544   4.785   6.096  2.1479 -0.1062 -0.2101
 2859SOL    HW2 8959   2.492   4.767   6.237 -3.0288  0.6743 -1.8949
 2860SOL     OW 8960   1.015   6.333   2.567 -0.0027  0.1983 -0.1886
 2860SOL    HW1 8961   0.967   6.254   2.588 -0.6825  0.7418  0.3276
 2860SOL    HW2 8962   1.061   6.356   2.648 -1.3966  1.4334  0.2882
 2861SOL     OW 8963   0.608   1.804   1.267  0.2469 -0.6306  0.6853
 2861SOL    HW1 8964   0.647   1.781   1.183 -1.6545 -1.0767 -0.0775
 2861SOL    HW2 8965   0.547   1.875   1.247 -1.9585 -2.3245  1.3020
 2862SOL     OW 8966   2.728   5.327   4.318 -0.0744 -0.2775  0.3430
 2862SOL    HW1 8967   2.796   5.359   4.258 -0.5324  0.9288  0.4487
 2862SOL    HW2 8968   2.727   5.391   4.390 -0.5024 -0.9389  0.9359
 2863SOL     OW 8969   2.953   2.196   0.504  0.8611  0.4578  0.5665
 2863SOL    HW1 8970   2.907   2.252   0.566 -0.4579  0.6693 -0.5793
 2863SOL    HW2 8971   3.037   2.177   0.546  0.1070  0.8384  2.2734
 2864SOL     OW 8972   3.225   5.578   2.397 -0.2957  0.1619  0.1438
 2864SOL    HW1 8973   3.165   5.571   2.471 -0.9062  2.7799 -0.0749
 2864SOL    HW2 8974   3.170   5.565   2.320 -0.3493  1.1533  0.0059
 2865SOL     OW 8975   0.567   1.714   3.335 -0.2709 -0.7587  0.3555
 2865SOL    HW1 8976   0.533   1.624   3.334  0.6212 -1.1399  2.1736
 2865SOL    HW2 8977   0.584   1.732   3.427 -0.1439  1.1777 -0.0335
 2866SOL     OW 8978   4.548   3.171   3.303  0.2107  0.7690 -0.0232
 2866SOL    HW1 8979   4.586   3.228   3.370 -0.4781  1.1889  0.0170
 2866SOL    HW2 8980   4.572   3.083   3.331  1.1652  1.0288 -0.0099
 2867SOL     OW 8981   1.516   4.761   0.583  0.3502 -0.2198 -0.8113
 2867SOL    HW1 8982   1.514   4.856   0.577  3.4222 -0.0586  0.0614
 2867SOL    HW2 8983   1.478   4.742   0.669  0.1731  0.2294 -0.7882
 2868SOL     OW 8984   1.472   3.997   5.899 -0.6709 -0.4011 -0.3217
 2868SOL    HW1 8985   1.417   4.071   5.928 -0.1898 -0.1882  0.0574
 2868SOL    HW2 8986   1.411   3.924   5.892 -1.1882  0.0690 -0.8656
 2869SOL     OW 8987   2.247   2.413   4.683  0.2502  0.0984  0.7917
 2869SOL    HW1 8988   2.216   2.488   4.632  1.5140  1.1516  1.5514
 2869SOL    HW2 8989   2.273   2.348   4.617  0.3493  0.8197  0.1212
 2870SOL     OW 8990   5.344   4.955   0.453 -0.6607  0.0590  0.0442
 2870SOL    HW1 8991   5.353   4.976   0.546  0.8539 -0.4777  0.0226
 2870SOL    HW2 8992   5.358   4.860   0.448 -1.6724 -0.0688 -0.6231
 2871SOL     OW 8993   1.212   4.416   0.150  0.6292  0.0782  0.1582
 2871SOL    HW1 8994   1.296   4.416   0.196  0.2455  1.0040  0.8670
 2871SOL    HW2 8995   1.190   4.508   0.139 -0.2677 -0.1574 -0.0739
 2872SOL     OW 8996   4.001   4.407   3.064 -0.0013 -0.5346  0.5774
 2872SOL    HW1 8997   3.962   4.430   2.980 -1.7271 -2.7517  0.7107
 2872SOL    HW2 8998   4.035   4.489   3.099 -1.5795  0.8667 -1.1106
 2873SOL     OW 8999   4.057   0.967   3.720  0.4700  0.2752  0.4569
 2873SOL    HW1 9000   4.051   0.922   3.636  0.0937  0.1151  0.5673
 2873SOL    HW2 9001   4.005   0.913   3.779  0.0206  0.8548  0.5892
 2874SOL     OW 9002   6.324   4.625   3.427 -0.2621 -0.3349  0.1012
 2874SOL    HW1 9003   6.337   4.703   3.482 -1.2287  0.0043 -0.1410
 2874SOL    HW2 9004   6.278   4.658   3.350  0.8410 -0.8597 -0.7883
 2875SOL     OW 9005   5.514   1.686   2.932 -0.0398 -0.6850 -0.2477
 2875SOL    HW1 9006   5.477   1.598   2.931 -0.2007 -0.6137 -1.1201
 2875SOL    HW2 9007   5.450   1.738   2.983  0.3232 -1.1769  0.7164
 2876SOL     OW 9008   0.641   4.505   2.139  0.2391  0.3504  0.5997
 2876SOL    HW1 9009   0.583   4.468   2.073 -0.5226  2.8471 -0.1692
 2876SOL    HW2 9010   0.584   4.521   2.214  0.8511 -1.2829  1.4460
 2877SOL     OW 9011   1.864   0.272   0.586 -1.0452  0.0708 -0.4293
 2877SOL    HW1 9012   1.874   0.185   0.549 -0.2164 -1.2436  2.6847
 2877SOL    HW2 9013   1.949   0.314   0.570 -1.3140  0.1834 -1.5937
 2878SOL     OW 9014   2.062   5.202   2.274 -0.1276 -0.1366 -0.2095
 2878SOL    HW1 9015   2.018   5.167   2.351 -1.4387 -0.7360 -1.2161
 2878SOL    HW2 9016   2.144   5.239   2.308  0.8465 -3.2791  1.0068
 2879SOL     OW 9017   6.331   5.183   4.811  0.0355 -0.2269 -0.1912
 2879SOL    HW1 9018   6.336   5.090   4.830  0.6088 -0.0889  0.3595
 2879SOL    HW2 9019   6.340   5.226   4.896 -0.7772  0.3188 -0.3667
 2880SOL     OW 9020   4.223   4.137   1.476  0.3314  0.3172 -0.3009
 2880SOL    HW1 9021   4.312   4.167   1.457  0.2422  0.3639 -0.6562
 2880SOL    HW2 9022   4.211   4.154   1.569  0.4018  1.0737 -0.4312
 2881SOL     OW 9023   3.845   1.030   5.505 -0.2510  0.4714  0.0412
 2881SOL    HW1 9024   3.858   0.955   5.563 -0.5103 -0.7434 -1.4421
 2881SOL    HW2 9025   3.890   1.007   5.424 -2.6697  0.6930 -1.4267
 2882SOL     OW 9026   0.642   5.844   1.013 -0.0078 -0.3591 -0.2592
 2882SOL    HW1 9027   0.723   5.829   1.062 -0.9569  0.1043  1.4678
 2882SOL    HW2 9028   0.637   5.939   1.004 -0.5092 -0.3692 -0.0966
 2883SOL     OW 9029   4.703   0.018   1.307  0.0256 -0.4807 -0.0707
 2883SOL    HW1 9030   4.753  -0.011   1.382 -0.8018  1.1198  1.1470
 2883SOL    HW2 9031   4.768   0.034   1.239  1.0617  0.4397  1.1106
 2884SOL     OW 9032   3.464   1.915   2.125 -0.5117 -0.2798  0.6521
 2884SOL    HW1 9033   3.520   1.858   2.179 -0.7125 -0.3463  0.7909
 2884SOL    HW2 9034   3.493   1.899   2.035 -1.8339 -2.0303  0.5070
 2885SOL     OW 9035   5.802   1.617   0.833 -0.0433  0.0186 -0.0508
 2885SOL    HW1 9036   5.770   1.567   0.908 -1.8654 -0.9968 -1.4605
 2885SOL    HW2 9037   5.897   1.607   0.837 -0.1024 -0.0060  2.1098
 2886SOL     OW 9038   1.938   3.815   0.031 -0.6558 -0.8916 -0.2126
 2886SOL    HW1 9039   2.018   3.793  -0.017 -0.8131 -0.7582 -0.5413
 2886SOL    HW2 9040   1.878   3.847  -0.036 -0.7221 -0.2729  0.1405
 2887SOL     OW 9041   0.613   1.216   2.828 -0.5004 -0.0261 -0.2472
 2887SOL    HW1 9042   0.568   1.190   2.909  1.0338  0.2851  0.7249
 2887SOL    HW2 9043   0.636   1.308   2.843 -1.1319  0.3429 -1.4795
 2888SOL     OW 9044   1.720   4.227   3.694  0.2589 -0.6601  0.1578
 2888SOL    HW1 9045   1.772   4.276   3.631 -1.1188  1.1725  0.4121
 2888SOL    HW2 9046   1.777   4.155   3.722  2.0406  0.3868 -0.7310
 2889SOL     OW 9047   2.194   5.875   5.764  0.2685 -0.0746 -0.0891
 2889SOL    HW1 9048   2.189   5.821   5.843 -1.9121 -0.8557 -0.7078
 2889SOL    HW2 9049   2.248   5.825   5.703 -1.2804 -1.3684 -0.4602
 2890SOL     OW 9050   2.213   4.565   5.275  0.0843  0.2020 -0.3836
 2890SOL    HW1 9051   2.240   4.483   5.318  0.7483  0.5896 -0.0510
 2890SOL    HW2 9052   2.245   4.634   5.333 -0.9377  0.6966 -0.3944
 2891SOL     OW 9053   3.564   2.873   6.259  0.2046  0.1910  0.3545
 2891SOL    HW1 9054   3.606   2.848   6.177  0.6809 -0.3565  0.7529
 2891SOL    HW2 9055   3.582   2.967   6.268  0.0557  0.2727 -0.2166
 2892SOL     OW 9056   3.479   2.634   0.886  0.8284  0.0430 -0.2547
 2892SOL    HW1 9057   3.573   2.639   0.872  0.6698  1.3749 -0.8552
 2892SOL    HW2 9058   3.441   2.636   0.799  0.2662 -1.3769 -0.0628
 2893SOL     OW 9059   0.190   4.190   1.599 -0.3168  0.4417 -0.2957
 2893SOL    HW1 9060   0.135   4.208   1.523  1.1885  0.4073 -1.4193
 2893SOL    HW2 9061   0.267   4.244   1.586  0.1337  0.1295  1.0139
 2894SOL     OW 9062   5.847   4.534   1.122 -0.4875  0.0854  0.0051
 2894SOL    HW1 9063   5.858   4.455   1.176  3.6719 -0.1053 -0.9669
 2894SOL    HW2 9064   5.871   4.606   1.179  0.8175  0.1680 -0.6372
 2895SOL     OW 9065   3.404   0.246   5.065  0.0292  0.3041  0.0738
 2895SOL    HW1 9066   3.450   0.223   5.146  0.5026 -0.0001 -0.2806
 2895SOL    HW2 9067   3.321   0.282   5.095 -0.2645 -0.8417  0.6847
 2896SOL     OW 9068   5.420   4.858   3.353  0.1337 -0.2376 -0.3047
 2896SOL    HW1 9069   5.453   4.810   3.428 -0.6428 -0.3313 -0.0202
 2896SOL    HW2 9070   5.329   4.876   3.374  0.3617  1.1973 -0.4863
 2897SOL     OW 9071   2.377   4.736   1.375 -0.5980 -0.2557 -0.3890
 2897SOL    HW1 9072   2.338   4.697   1.453 -1.8758  0.3040 -0.7367
 2897SOL    HW2 9073   2.341   4.686   1.302 -1.5888  0.9790 -0.7827
 2898SOL     OW 9074   4.175   6.080   5.461 -0.1509 -0.5539  0.1121
 2898SOL    HW1 9075   4.180   5.986   5.444  1.6287 -0.5085  0.3633
 2898SOL    HW2 9076   4.266   6.108   5.473 -0.5829  1.3898 -0.9286
 2899SOL     OW 9077   2.067   2.667   5.653 -0.1687  0.8012 -0.2178
 2899SOL    HW1 9078   2.156   2.649   5.625 -0.1558  2.2899 -1.1767
 2899SOL    HW2 9079   2.028   2.716   5.580 -1.8965 -0.2006  0.0142
 2900SOL     OW 9080   5.290   0.166   2.385 -0.3441  0.0537 -0.1125
 2900SOL    HW1 9081   5.282   0.079   2.426 -0.9524 -0.0993 -0.5467
 2900SOL    HW2 9082   5.324   0.222   2.454  2.5617 -1.0953 -0.5431
 2901SOL     OW 9083   5.942   2.202   0.191  0.1628 -0.4401 -1.0089
 2901SOL    HW1 9084   5.887   2.263   0.240  2.1542  0.2686  0.4412
 2901SOL    HW2 9085   5.912   2.208   0.101 -1.5035  0.5972 -0.3961
 2902SOL     OW 9086   4.056   3.251   1.324  0.3708  0.1707 -0.4968
 2902SOL    HW1 9087   4.136   3.302   1.340  0.0504  0.9119 -1.2146
 2902SOL    HW2 9088   4.066   3.222   1.233  0.1900 -0.4023 -0.3325
 2903SOL     OW 9089   3.731   3.079   1.521 -0.4051  0.5406 -0.0769
 2903SOL    HW1 9090   3.734   3.016   1.592 -0.2272  1.1921  0.5027
 2903SOL    HW2 9091   3.662   3.141   1.547  0.0985  1.1432 -0.1645
 2904SOL     OW 9092   0.649   5.260   4.824 -0.3490  0.0820 -0.1650
 2904SOL    HW1 9093   0.618   5.322   4.758  1.5590  1.6290  0.3795
 2904SOL    HW2 9094   0.742   5.249   4.805 -0.1802 -0.8643  1.1612
 2905SOL     OW 9095   2.862   0.858   3.352 -0.1248  0.4479 -0.3831
 2905SOL    HW1 9096   2.888   0.817   3.434 -0.1158  0.2390 -0.4911
 2905SOL    HW2 9097   2.936   0.843   3.293  0.9650  2.7940  0.3297
 2906SOL     OW 9098   2.534   5.429   1.139  0.2761 -0.1130 -0.0068
 2906SOL    HW1 9099   2.613   5.377   1.127  0.2076 -0.4335  0.8596
 2906SOL    HW2 9100   2.466   5.379   1.094  0.7484  0.6835 -1.6460
 2907SOL     OW 9101   4.228   1.115   0.010 -0.2410 -0.3419 -0.3072
 2907SOL    HW1 9102   4.185   1.133   0.093  1.2674 -2.3683  0.9758
 2907SOL    HW2 9103   4.159   1.077  -0.045 -1.2295  0.9514  0.0134
 2908SOL     OW 9104   2.564   3.840   3.930 -0.5635 -0.0754  0.0549
 2908SOL    HW1 9105   2.483   3.816   3.884 -1.9929  0.1255  2.3362
 2908SOL    HW2 9106   2.599   3.756   3.960  1.0692 -0.3266 -2.4475
 2909SOL     OW 9107   1.393   1.855   3.276  0.0444 -0.1383  0.3105
 2909SOL    HW1 9108   1.325   1.922   3.286 -0.0885  0.0032 -1.3834
 2909SOL    HW2 9109   1.370   1.810   3.195 -0.2763 -2.7432  1.7971
 2910SOL     OW 9110   6.099   3.395   5.724  0.2306  0.2674 -0.1909
 2910SOL    HW1 9111   6.072   3.363   5.638  0.4552  0.9858 -0.5319
 2910SOL    HW2 9112   6.194   3.385   5.725  0.0065 -2.2006  0.9852
 2911SOL     OW 9113   4.300   0.643   1.587  0.6207 -0.2257  0.1839
 2911SOL    HW1 9114   4.258   0.557   1.582 -0.5452  0.3731 -0.5807
 2911SOL    HW2 9115   4.387   0.625   1.623  0.1944 -1.6531  0.5537
 2912SOL     OW 9116   3.042   0.054   4.679 -0.3077  0.6937  0.6122
 2912SOL    HW1 9117   2.974   0.081   4.617 -0.5909  1.1500  1.1203
 2912SOL    HW2 9118   3.110   0.120   4.671 -0.2303  0.6128  0.5998
 2913SOL     OW 9119   6.381   5.851   6.207 -0.1100  0.3585 -0.4185
 2913SOL    HW1 9120   6.378   5.946   6.216  0.8390  0.2803  0.8120
 2913SOL    HW2 9121   6.470   5.833   6.177  0.3076 -0.2726  1.1672
 2914SOL     OW 9122   5.947   4.842   2.266 -0.2772 -0.6237 -0.0907
 2914SOL    HW1 9123   5.977   4.858   2.356  0.4854 -0.5000 -0.3607
 2914SOL    HW2 9124   5.908   4.754   2.269  0.3730 -0.9034  0.2097
 2915SOL     OW 9125   2.948   0.971   3.003 -0.3364 -0.2427  0.2291
 2915SOL    HW1 9126   3.005   1.014   2.939 -0.2007  1.0947  1.2428
 2915SOL    HW2 9127   2.985   0.883   3.011  0.7462  0.1624 -0.1687
 2916SOL     OW 9128   4.253   5.689   4.694  0.5103  0.5318  0.8154
 2916SOL    HW1 9129   4.212   5.603   4.684  0.1811  0.8164 -0.3708
 2916SOL    HW2 9130   4.197   5.735   4.758  0.0033  0.2789  0.5600
 2917SOL     OW 9131   2.167   4.807   2.350  0.1755  0.2705 -0.8401
 2917SOL    HW1 9132   2.087   4.842   2.312  0.0348  0.0646 -0.7325
 2917SOL    HW2 9133   2.186   4.865   2.424 -0.3452 -0.1850 -0.3420
 2918SOL     OW 9134   0.443   3.961   4.120 -0.6902 -0.2896 -0.5408
 2918SOL    HW1 9135   0.472   4.000   4.037  0.4146  0.2443  0.0845
 2918SOL    HW2 9136   0.365   4.011   4.144  0.8662  1.7356  0.3839
 2919SOL     OW 9137   2.497   2.190   2.482 -0.3357  0.0224 -0.6298
 2919SOL    HW1 9138   2.402   2.181   2.476 -0.3703  1.1128 -2.0765
 2919SOL    HW2 9139   2.516   2.270   2.433  1.0063  1.5420  2.2977
 2920SOL     OW 9140   0.792   4.674   5.890 -0.2569  0.0485 -0.4113
 2920SOL    HW1 9141   0.865   4.732   5.910  0.0834  0.2160 -2.0961
 2920SOL    HW2 9142   0.719   4.708   5.942  1.0498 -0.6569  1.9859
 2921SOL     OW 9143   5.925   4.139   4.758 -0.5366  0.3526 -0.0731
 2921SOL    HW1 9144   5.837   4.176   4.762 -0.6278  0.0177  1.7604
 2921SOL    HW2 9145   5.977   4.203   4.709 -2.0669 -0.0398 -2.2476
 2922SOL     OW 9146   3.804   6.370   4.466  0.3467  0.1376 -0.5287
 2922SOL    HW1 9147   3.751   6.368   4.387 -0.5054 -1.7186  0.0783
 2922SOL    HW2 9148   3.802   6.462   4.493  0.8073  0.8356 -2.7266
 2923SOL     OW 9149   3.891   4.318   4.518 -0.0264 -0.0674  0.7003
 2923SOL    HW1 9150   3.905   4.391   4.458 -0.6566 -0.1697  0.4214
 2923SOL    HW2 9151   3.950   4.335   4.591 -0.3940  0.8889  0.7886
 2924SOL     OW 9152   1.245   1.067   0.663  0.1972 -0.3963  0.1195
 2924SOL    HW1 9153   1.243   1.112   0.578  0.9199  1.5202  1.0883
 2924SOL    HW2 9154   1.313   1.000   0.653  1.9866  1.3973 -0.0730
 2925SOL     OW 9155   5.849   4.602   3.323  0.4221 -0.2904 -0.4966
 2925SOL    HW1 9156   5.772   4.595   3.379 -0.2440  0.6869 -1.2664
 2925SOL    HW2 9157   5.919   4.633   3.381  0.3762 -1.6890  0.3137
 2926SOL     OW 9158   1.705   4.152   1.766 -0.3714 -0.1516 -0.0015
 2926SOL    HW1 9159   1.737   4.097   1.694  0.7897  0.8092 -0.2339
 2926SOL    HW2 9160   1.769   4.222   1.773 -2.5562  1.9580 -0.5890
 2927SOL     OW 9161   3.167   2.424   3.278  0.3470  0.3943  0.5633
 2927SOL    HW1 9162   3.115   2.475   3.215  1.3224 -0.7844 -1.2403
 2927SOL    HW2 9163   3.242   2.480   3.298 -0.7233  1.3881  1.8423
 2928SOL     OW 9164   5.883   1.580   4.786  0.2541 -0.5943  0.2845
 2928SOL    HW1 9165   5.912   1.506   4.839 -2.8029 -0.1950  2.6456
 2928SOL    HW2 9166   5.815   1.544   4.729 -0.5669  0.1465  0.7704
 2929SOL     OW 9167   3.903   2.535   0.188 -0.0318  0.1263  0.4751
 2929SOL    HW1 9168   3.836   2.604   0.184 -1.2368 -1.0177  0.5817
 2929SOL    HW2 9169   3.855   2.457   0.216  1.1385 -0.9661 -0.5031
 2930SOL     OW 9170   5.437   3.124   2.045  0.0936 -0.7909  0.0483
 2930SOL    HW1 9171   5.434   3.138   2.140  1.6270 -3.1368  0.4870
 2930SOL    HW2 9172   5.347   3.141   2.016 -0.0198  1.6404  1.6421
 2931SOL     OW 9173   2.858   2.366   4.084  0.2807  0.3434 -0.6436
 2931SOL    HW1 9174   2.886   2.428   4.016  1.1412  0.1907 -0.4411
 2931SOL    HW2 9175   2.785   2.318   4.044  0.4209  0.6360 -1.2638
 2932SOL     OW 9176   0.020   1.904   1.053  0.1386 -0.2880  0.1798
 2932SOL    HW1 9177   0.029   1.970   0.984  0.5048  0.9781  1.4074
 2932SOL    HW2 9178   0.087   1.927   1.118 -0.7662 -0.9203  1.3697
 2933SOL     OW 9179   5.293   2.438   3.017  0.0644 -0.0936 -0.5278
 2933SOL    HW1 9180   5.331   2.425   2.931  0.8916  0.0727 -0.1923
 2933SOL    HW2 9181   5.331   2.520   3.049  1.4574 -1.2295  0.8710
 2934SOL     OW 9182   4.052   1.444   1.823 -0.3297  0.1280  0.5568
 2934SOL    HW1 9183   4.086   1.462   1.910  0.2591 -2.7375  0.9908
 2934SOL    HW2 9184   4.127   1.456   1.764 -0.1003 -0.2394  0.7679
 2935SOL     OW 9185   2.008   4.974   3.094  0.2600 -0.1701 -0.2256
 2935SOL    HW1 9186   2.032   4.995   3.004 -0.8800  1.6374 -0.1159
 2935SOL    HW2 9187   1.956   4.894   3.087 -0.5443  0.4410 -1.2556
 2936SOL     OW 9188   1.589   1.691   3.826 -0.0657  0.5747 -0.1254
 2936SOL    HW1 9189   1.632   1.605   3.824 -1.3745 -0.0915 -0.6170
 2936SOL    HW2 9190   1.659   1.752   3.847  1.1197 -0.4821 -0.8706
 2937SOL     OW 9191   3.403   0.776   5.966  0.6943 -0.0863 -0.1802
 2937SOL    HW1 9192   3.462   0.803   6.037  0.5238 -0.0406 -0.0549
 2937SOL    HW2 9193   3.368   0.858   5.932  1.1574 -0.0821 -0.6478
 2938SOL     OW 9194   0.101   6.152   3.607 -0.8080  0.5416 -0.0250
 2938SOL    HW1 9195   0.191   6.120   3.612 -0.8970  0.5384  2.3695
 2938SOL    HW2 9196   0.093   6.189   3.519  0.4818 -2.4829 -1.4881
 2939SOL     OW 9197   5.858   2.774   1.178 -0.4345 -0.6790 -0.0375
 2939SOL    HW1 9198   5.854   2.867   1.153  1.8033 -0.5870 -0.1213
 2939SOL    HW2 9199   5.886   2.776   1.269  2.6705 -1.3325 -0.9339
 2940SOL     OW 9200   1.230   1.674   4.709  0.2925 -0.3439 -0.1636
 2940SOL    HW1 9201   1.294   1.609   4.683 -0.6584 -1.4056  0.1175
 2940SOL    HW2 9202   1.179   1.632   4.778 -0.7469  0.4644 -0.4178
 2941SOL     OW 9203   0.883   0.729   0.160 -0.5278  0.1379 -0.2017
 2941SOL    HW1 9204   0.932   0.662   0.207  0.0724  0.0866 -0.8915
 2941SOL    HW2 9205   0.792   0.701   0.166 -0.2904 -0.6909 -0.4150
 2942SOL     OW 9206   0.206   0.415   1.549  0.0243  0.3541  0.0833
 2942SOL    HW1 9207   0.164   0.500   1.554 -0.0488  0.2976  0.4191
 2942SOL    HW2 9208   0.300   0.433   1.560 -0.0753  0.2964  1.0338
 2943SOL     OW 9209   1.799   1.075   4.098  0.2728  0.3493 -0.7180
 2943SOL    HW1 9210   1.734   1.092   4.029  0.9470  0.9440 -1.2213
 2943SOL    HW2 9211   1.822   0.983   4.086  0.0651  0.3316 -1.0063
 2944SOL     OW 9212   1.919   4.692   1.460 -0.2252  0.4312 -0.1970
 2944SOL    HW1 9213   1.844   4.665   1.513  0.5827  0.0349  0.7686
 2944SOL    HW2 9214   1.957   4.611   1.427 -1.9788  0.7707 -3.2050
 2945SOL     OW 9215   5.355   1.177   6.072 -0.1845  0.2683  0.7006
 2945SOL    HW1 9216   5.410   1.169   5.994  0.7969  0.3659  1.3797
 2945SOL    HW2 9217   5.416   1.193   6.143 -0.9619 -1.1254  1.7120
 2946SOL     OW 9218   0.090   2.157   3.371  0.5909  0.3468 -0.0677
 2946SOL    HW1 9219   0.041   2.090   3.323 -0.3491  1.2081 -0.3055
 2946SOL    HW2 9220   0.155   2.188   3.308 -1.0552  1.9303 -1.0181
 2947SOL     OW 9221   2.610   5.357   2.027  0.4925  0.8911 -0.0633
 2947SOL    HW1 9222   2.626   5.451   2.035  0.8200  0.6940  1.6647
 2947SOL    HW2 9223   2.624   5.322   2.115  0.6624 -0.8249 -0.7513
 2948SOL     OW 9224   1.763   4.537   4.157 -0.0645  0.4663 -0.3774
 2948SOL    HW1 9225   1.737   4.520   4.066  0.0878  1.1203 -0.5493
 2948SOL    HW2 9226   1.687   4.581   4.195 -0.3470 -0.3325 -0.0235
 2949SOL     OW 9227   0.226   6.142   1.672  0.0449  0.1146  0.0441
 2949SOL    HW1 9228   0.308   6.118   1.714 -0.5429 -0.7792  0.6991
 2949SOL    HW2 9229   0.160   6.090   1.717 -1.0029  1.5196  0.1662
 2950SOL     OW 9230   6.095   3.712   0.187 -0.8255 -0.3962 -0.0730
 2950SOL    HW1 9231   6.012   3.680   0.222 -0.4435  0.9175  2.0941
 2950SOL    HW2 9232   6.145   3.740   0.263  1.5212 -0.8837 -1.3722
 2951SOL     OW 9233   0.675   2.303   4.059  1.0219 -0.8832  0.3492
 2951SOL    HW1 9234   0.654   2.391   4.027 -2.6978 -0.7937  2.7501
 2951SOL    HW2 9235   0.736   2.318   4.132 -0.1182 -0.1835  1.1870
 2952SOL     OW 9236   3.328   0.908   1.991 -0.7731  0.0563  0.4278
 2952SOL    HW1 9237   3.354   0.927   2.081  0.0158 -0.5002  0.3193
 2952SOL    HW2 9238   3.377   0.830   1.968  0.6221  1.3936 -1.2074
 2953SOL     OW 9239   4.384   2.813   1.379  0.0117 -0.1953 -0.1381
 2953SOL    HW1 9240   4.300   2.818   1.333  0.3222  0.2281 -0.6625
 2953SOL    HW2 9241   4.376   2.876   1.450 -0.3432 -0.6070  0.1925
 2954SOL     OW 9242   5.951   2.142   1.376  0.5329  0.9497  0.1811
 2954SOL    HW1 9243   5.980   2.058   1.412  0.7125  0.1792 -1.6728
 2954SOL    HW2 9244   6.032   2.192   1.365  0.7015  0.4347 -0.9742
 2955SOL     OW 9245   4.243   0.959   3.366 -0.3417 -0.3586  0.8746
 2955SOL    HW1 9246   4.337   0.942   3.379  0.0272  0.0763 -1.0599
 2955SOL    HW2 9247   4.225   1.035   3.422  0.6771  0.1099  0.5870
 2956SOL     OW 9248   4.867   4.873   5.312  0.1365 -0.5214  0.0072
 2956SOL    HW1 9249   4.859   4.878   5.217 -1.4747  1.0164  0.2026
 2956SOL    HW2 9250   4.799   4.811   5.338 -1.0901  0.9618  0.3653
 2957SOL     OW 9251   3.902   5.426   2.034 -0.0458 -0.3651 -0.3234
 2957SOL    HW1 9252   3.860   5.503   1.994 -3.1342 -1.1707  1.1668
 2957SOL    HW2 9253   3.910   5.363   1.962 -1.2064 -0.0865 -0.7194
 2958SOL     OW 9254   1.219   3.211   5.869  0.6196  0.1739 -0.0738
 2958SOL    HW1 9255   1.179   3.254   5.793 -1.9609 -1.4812  0.2715
 2958SOL    HW2 9256   1.237   3.122   5.839  0.9135 -0.0682  0.8174
 2959SOL     OW 9257   1.265   0.798   0.868 -0.2755 -0.5559 -0.4823
 2959SOL    HW1 9258   1.329   0.834   0.806 -0.4269 -2.5180 -1.8509
 2959SOL    HW2 9259   1.276   0.703   0.860 -0.1032 -0.8573  2.7642
 2960SOL     OW 9260   3.936   5.522   1.315  0.0697 -0.1513  0.2370
 2960SOL    HW1 9261   3.894   5.587   1.371  0.9157  0.3130  0.3530
 2960SOL    HW2 9262   3.959   5.571   1.236 -1.8610 -0.9981 -0.8683
 2961SOL     OW 9263   6.146   5.626   4.904  0.5844 -0.9254  0.4368
 2961SOL    HW1 9264   6.166   5.676   4.984 -1.5731  1.0881 -0.2190
 2961SOL    HW2 9265   6.226   5.630   4.853  1.2223 -0.1980  1.4629
 2962SOL     OW 9266   5.935   6.222   3.255 -0.2238  0.0431 -0.1319
 2962SOL    HW1 9267   6.019   6.258   3.227 -0.9345  1.2230 -0.8025
 2962SOL    HW2 9268   5.886   6.208   3.174 -1.2108  0.7166  0.3337
 2963SOL     OW 9269   3.852   1.012   2.160  0.1170 -0.1824 -0.0782
 2963SOL    HW1 9270   3.893   0.976   2.239  0.9213 -0.3411 -0.5623
 2963SOL    HW2 9271   3.924   1.048   2.109 -0.0391 -2.3764 -1.9455
 2964SOL     OW 9272   5.896   5.537   4.830 -0.2829 -0.2842 -0.4791
 2964SOL    HW1 9273   5.987   5.563   4.847 -0.0438 -1.4954  0.1416
 2964SOL    HW2 9274   5.889   5.449   4.866 -2.6078  1.0243  2.5539
 2965SOL     OW 9275   5.338   2.995   2.467 -0.2916  0.5334  0.1018
 2965SOL    HW1 9276   5.385   2.935   2.409 -0.3643  1.7069 -1.2151
 2965SOL    HW2 9277   5.258   3.017   2.418 -0.9176  0.6363  1.1617
 2966SOL     OW 9278   0.552   5.999   3.181  0.1200 -0.2282  0.4848
 2966SOL    HW1 9279   0.512   5.943   3.247  0.0213 -1.9227 -0.9722
 2966SOL    HW2 9280   0.478   6.042   3.138 -0.0361 -1.8121 -0.8547
 2967SOL     OW 9281   5.393   0.011   2.718  0.0875 -0.4263 -0.1493
 2967SOL    HW1 9282   5.399   0.099   2.680 -0.6990 -0.0189  0.6426
 2967SOL    HW2 9283   5.305   0.008   2.756  0.3734 -1.3075  0.4432
 2968SOL     OW 9284   6.222   1.744   2.739  0.1463 -0.0323 -0.3319
 2968SOL    HW1 9285   6.220   1.652   2.715 -1.5075 -0.2409  0.5059
 2968SOL    HW2 9286   6.166   1.750   2.817  0.9265  1.5272  0.1405
 2969SOL     OW 9287   0.484   0.235   5.371 -0.1049 -0.4011 -0.2053
 2969SOL    HW1 9288   0.566   0.187   5.381 -0.7591 -1.2125  1.4744
 2969SOL    HW2 9289   0.420   0.186   5.423 -1.2646  1.1661 -0.0801
 2970SOL     OW 9290   1.749   5.221   3.669  1.1327  0.0024 -0.2662
 2970SOL    HW1 9291   1.810   5.275   3.718  0.6267  1.9230 -1.6649
 2970SOL    HW2 9292   1.705   5.283   3.610 -0.0359 -1.8187 -1.3527
 2971SOL     OW 9293   4.804   1.176   2.229 -0.4060 -0.1180 -0.0491
 2971SOL    HW1 9294   4.881   1.171   2.285 -0.2541  1.0975 -0.1330
 2971SOL    HW2 9295   4.768   1.263   2.246 -0.6016  0.0999 -1.4970
 2972SOL     OW 9296   0.004   1.247   1.167  0.9459  0.2276 -0.1121
 2972SOL    HW1 9297   0.082   1.194   1.185  1.1643 -0.1421 -2.0436
 2972SOL    HW2 9298  -0.057   1.185   1.126  0.7821  1.2167 -1.3648
 2973SOL     OW 9299   2.623   1.290   1.472  0.2398 -0.2656  0.1371
 2973SOL    HW1 9300   2.670   1.308   1.391 -1.9463 -1.3777 -1.4282
 2973SOL    HW2 9301   2.655   1.204   1.499 -1.6896 -1.5889 -1.5959
 2974SOL     OW 9302   5.714   1.588   0.168  0.0354  0.0603  0.4456
 2974SOL    HW1 9303   5.657   1.623   0.236 -0.6996  0.3966 -0.3367
 2974SOL    HW2 9304   5.669   1.608   0.086  1.2713  0.3026 -0.1807
 2975SOL     OW 9305   5.762   0.319   1.181  0.0195 -0.2946 -0.8231
 2975SOL    HW1 9306   5.676   0.293   1.150 -0.1821 -1.7223  0.8567
 2975SOL    HW2 9307   5.745   0.370   1.261  0.7111 -0.0559 -0.8192
 2976SOL     OW 9308   3.598   5.915   5.894  0.7689 -0.2879 -0.0652
 2976SOL    HW1 9309   3.568   5.898   5.983 -1.6951  1.0564 -0.5794
 2976SOL    HW2 9310   3.646   5.836   5.869 -1.2516 -2.0141  1.3266
 2977SOL     OW 9311   1.789   0.288   2.847  0.4074  0.4248  0.3238
 2977SOL    HW1 9312   1.748   0.271   2.762 -0.5903  1.1168  0.6705
 2977SOL    HW2 9313   1.740   0.361   2.884  0.7931  0.0855  1.5289
 2978SOL     OW 9314   4.080   0.898   3.003  0.0620  0.2692 -0.1404
 2978SOL    HW1 9315   4.123   0.813   3.011  0.4963  0.5360  0.3708
 2978SOL    HW2 9316   4.107   0.931   2.917 -0.4448 -0.2934 -0.5202
 2979SOL     OW 9317   0.221   2.954   4.213  0.3566 -0.4521 -0.2020
 2979SOL    HW1 9318   0.212   2.859   4.214 -1.6849 -0.2773  1.0751
 2979SOL    HW2 9319   0.179   2.981   4.131  0.0825 -0.5787 -0.1028
 2980SOL     OW 9320   5.998   4.616   0.029  0.2824  0.1633 -0.0665
 2980SOL    HW1 9321   6.035   4.646  -0.054  2.4721  1.2121  1.2438
 2980SOL    HW2 9322   5.964   4.529   0.010 -1.2680  1.2685 -2.5928
 2981SOL     OW 9323   6.268   6.262   3.967 -1.2862  0.3366 -0.0914
 2981SOL    HW1 9324   6.330   6.285   4.037 -0.1088 -3.7582  0.3180
 2981SOL    HW2 9325   6.204   6.206   4.010 -0.8394 -1.8276 -2.1484
 2982SOL     OW 9326   3.913   4.836   3.050 -0.4246  0.2318  0.5110
 2982SOL    HW1 9327   3.840   4.804   2.998  0.6955  0.1627 -1.0382
 2982SOL    HW2 9328   3.989   4.785   3.020  0.9801  2.8226 -0.5071
 2983SOL     OW 9329   3.336   2.740   1.080  0.4608 -0.4768 -0.2142
 2983SOL    HW1 9330   3.373   2.713   0.997 -0.6755 -0.0183 -0.8829
 2983SOL    HW2 9331   3.381   2.822   1.101  2.0018 -1.4820  0.5055
 2984SOL     OW 9332   5.418   4.594   2.623  0.0323 -0.2781  0.0346
 2984SOL    HW1 9333   5.370   4.564   2.701  0.3703  0.1456  0.4018
 2984SOL    HW2 9334   5.417   4.689   2.630 -1.1752 -0.1834 -1.2169
 2985SOL     OW 9335   0.599   2.311   3.482  0.1009 -0.1601 -0.3965
 2985SOL    HW1 9336   0.539   2.349   3.546 -1.3242 -2.0242 -0.5654
 2985SOL    HW2 9337   0.548   2.305   3.401  1.3567  0.6218 -1.2735
 2986SOL     OW 9338   4.545   4.183   6.029  0.1510  0.1801 -0.5280
 2986SOL    HW1 9339   4.639   4.166   6.037 -0.0999 -1.1230 -0.2337
 2986SOL    HW2 9340   4.534   4.274   6.055  1.1560 -0.0658  0.7852
 2987SOL     OW 9341   1.435   3.481   0.862  0.3602 -0.2529  0.4591
 2987SOL    HW1 9342   1.341   3.497   0.875 -0.2254 -2.1031 -1.2998
 2987SOL    HW2 9343   1.448   3.493   0.768  1.9129  0.0450  0.7048
 2988SOL     OW 9344   3.378   3.039   2.631 -0.1113 -0.5036  0.2129
 2988SOL    HW1 9345   3.304   3.084   2.673  0.9674  2.2356 -0.6747
 2988SOL    HW2 9346   3.364   3.052   2.537  0.3543 -1.8703 -0.0570
 2989SOL     OW 9347   2.774   4.398   4.737  0.3218 -0.2843  0.5302
 2989SOL    HW1 9348   2.765   4.477   4.791  2.0297  0.8731 -0.7749
 2989SOL    HW2 9349   2.739   4.424   4.652 -1.3983 -1.7560  0.7656
 2990SOL     OW 9350   0.154   1.769   6.179  0.1733 -0.1143 -0.0276
 2990SOL    HW1 9351   0.149   1.839   6.114 -1.0413  0.5712  0.7974
 2990SOL    HW2 9352   0.077   1.715   6.162  1.1464 -1.3108 -0.7100
 2991SOL     OW 9353   5.954   4.535   3.725 -0.3831  0.0462  0.0635
 2991SOL    HW1 9354   5.861   4.514   3.735 -0.6173  0.1781 -1.6431
 2991SOL    HW2 9355   5.956   4.601   3.656  0.9503  0.3751  0.4081
 2992SOL     OW 9356   2.529   1.340   0.537 -0.1565  0.4335 -0.3217
 2992SOL    HW1 9357   2.582   1.261   0.544 -0.1229  0.2595 -2.3713
 2992SOL    HW2 9358   2.592   1.412   0.547  0.1986  0.2100 -0.9147
 2993SOL     OW 9359   5.783   2.806   4.366  0.4703  0.8212  0.2989
 2993SOL    HW1 9360   5.750   2.829   4.453 -2.1252 -1.4736 -0.0170
 2993SOL    HW2 9361   5.760   2.881   4.311 -2.5159  0.1705  0.5552
 2994SOL     OW 9362   1.942   3.010   3.525  0.0439  0.4833 -0.2532
 2994SOL    HW1 9363   1.976   3.051   3.446 -0.7654  1.0408 -0.3139
 2994SOL    HW2 9364   1.870   3.066   3.553  1.6387  1.4545  2.0737
 2995SOL     OW 9365   3.964   4.880   2.573  0.0508  0.0958  0.5153
 2995SOL    HW1 9366   3.963   4.873   2.477 -0.1889  0.0949  0.5187
 2995SOL    HW2 9367   4.049   4.921   2.593  0.3115 -0.3513  0.3323
 2996SOL     OW 9368   0.833   3.530   0.197 -0.0855  0.1966  0.0914
 2996SOL    HW1 9369   0.873   3.458   0.246  0.9796 -0.7394 -2.0736
 2996SOL    HW2 9370   0.741   3.505   0.187 -0.6890  1.1488  2.9190
 2997SOL     OW 9371   3.464   0.784   4.696  0.1679  0.0821 -0.0108
 2997SOL    HW1 9372   3.414   0.716   4.650 -0.6025  1.2570 -0.9559
 2997SOL    HW2 9373   3.451   0.862   4.643  1.5568  0.8295  0.7325
 2998SOL     OW 9374   6.264   3.381   3.657  1.3889 -0.5551 -0.0912
 2998SOL    HW1 9375   6.238   3.302   3.705  1.1591 -0.9806 -0.9002
 2998SOL    HW2 9376   6.280   3.446   3.725 -0.7540 -0.5982  0.5098
 2999SOL     OW 9377   0.235   3.932   0.650  0.0686 -0.0820  0.1627
 2999SOL    HW1 9378   0.184   3.922   0.570  0.4521 -1.1867  0.0338
 2999SOL    HW2 9379   0.314   3.978   0.623  0.0960 -0.2568 -0.0574
 3000SOL     OW 9380   2.221   0.038   4.801 -0.4339  0.1934  0.5921
 3000SOL    HW1 9381   2.266  -0.041   4.770 -1.8185 -1.2962  2.3088
 3000SOL    HW2 9382   2.280   0.075   4.867 -0.5570 -0.3462  1.0039
 3001SOL     OW 9383   0.213   3.606   5.547 -0.2579 -0.2973  0.1009
 3001SOL    HW1 9384   0.177   3.685   5.508  0.6202 -0.2017 -0.5310
 3001SOL    HW2 9385   0.258   3.635   5.626  0.9866 -0.0049 -0.6975
 3002SOL     OW 9386   1.918   2.909   0.351  0.6457 -0.1668  0.1617
 3002SOL    HW1 9387   1.982   2.840   0.332  0.7620  0.5314 -2.1821
 3002SOL    HW2 9388   1.923   2.967   0.275 -1.8576  0.5976  0.5518
 3003SOL     OW 9389   1.594   4.058   0.853 -0.2264  0.0062 -0.6692
 3003SOL    HW1 9390   1.687   4.038   0.858 -0.2160 -0.2193 -1.5819
 3003SOL    HW2 9391   1.588   4.152   0.867 -0.0006 -0.2009  0.8317
 3004SOL     OW 9392   0.319   2.854   2.340 -0.0896 -0.8249  0.3265
 3004SOL    HW1 9393   0.363   2.771   2.356  1.3348 -0.1833 -0.1416
 3004SOL    HW2 9394   0.354   2.883   2.255 -0.0912  0.5419  0.7842
 3005SOL     OW 9395   5.442   3.296   5.059  0.6185 -0.0086  0.0697
 3005SOL    HW1 9396   5.398   3.219   5.095 -0.0877  0.8922  1.1739
 3005SOL    HW2 9397   5.440   3.283   4.964 -0.8609 -0.6059  0.1749
 3006SOL     OW 9398   2.789   0.248   4.361  0.2908 -0.0777  0.2854
 3006SOL    HW1 9399   2.786   0.175   4.422 -0.2770  0.2779  0.6860
 3006SOL    HW2 9400   2.882   0.263   4.346  0.4571  0.5419  1.9155
 3007SOL     OW 9401   4.158   4.978   0.906  0.6035 -0.6500  0.2073
 3007SOL    HW1 9402   4.247   4.960   0.939  0.6888  0.2668  0.4701
 3007SOL    HW2 9403   4.102   4.920   0.957  0.7724  0.5496  1.7659
 3008SOL     OW 9404   6.275   6.105   5.543 -0.8938  0.0927  0.1577
 3008SOL    HW1 9405   6.291   6.112   5.637  2.1760 -0.1260 -0.3184
 3008SOL    HW2 9406   6.233   6.188   5.520 -2.8392 -0.3544  1.8870
 3009SOL     OW 9407   1.135   4.439   4.056 -0.2328 -0.6473  0.2119
 3009SOL    HW1 9408   1.059   4.382   4.065 -0.4908 -0.1068  1.5105
 3009SOL    HW2 9409   1.206   4.393   4.101 -0.3374 -0.1525  0.8967
 3010SOL     OW 9410   4.220   1.697   5.715 -0.2070  0.0775  0.7206
 3010SOL    HW1 9411   4.206   1.603   5.707  0.5866  0.0985 -1.2129
 3010SOL    HW2 9412   4.187   1.719   5.802 -1.1235 -1.8438  0.8835
 3011SOL     OW 9413   1.809   4.813   4.570  0.3355 -0.2176 -0.2839
 3011SOL    HW1 9414   1.801   4.868   4.493  1.0205 -1.5450 -1.3276
 3011SOL    HW2 9415   1.859   4.866   4.633  0.1644  0.6974 -0.9093
 3012SOL     OW 9416   5.441   0.966   2.495  0.3368  0.3290  0.2204
 3012SOL    HW1 9417   5.347   0.948   2.487  0.6597 -1.3145 -0.0817
 3012SOL    HW2 9418   5.450   1.003   2.583 -0.8317  2.2140 -0.4228
 3013SOL     OW 9419   5.525   3.935   5.592  0.4219 -0.2502  0.2798
 3013SOL    HW1 9420   5.607   3.921   5.544 -1.1692 -1.0188 -2.3182
 3013SOL    HW2 9421   5.457   3.921   5.527 -1.8248 -0.4272  2.6019
 3014SOL     OW 9422   5.715   1.591   4.355 -0.3435 -1.0335  0.2620
 3014SOL    HW1 9423   5.715   1.548   4.270  2.6342 -1.0356  0.2127
 3014SOL    HW2 9424   5.715   1.684   4.336 -0.0262 -1.0320  0.2724
 3015SOL     OW 9425   1.228   2.591   5.845 -0.0722  0.1505 -0.5287
 3015SOL    HW1 9426   1.222   2.555   5.757 -1.4372  1.4959 -1.0002
 3015SOL    HW2 9427   1.316   2.630   5.850 -0.7736  1.9718 -2.0424
 3016SOL     OW 9428   2.544   3.057   0.354  0.1229 -0.0510 -0.3543
 3016SOL    HW1 9429   2.463   3.049   0.405  0.8006 -0.2634  0.7193
 3016SOL    HW2 9430   2.580   2.969   0.353  1.2861  0.4047  0.7852
 3017SOL     OW 9431   3.600   1.308   1.088  0.2290 -0.9488  0.0876
 3017SOL    HW1 9432   3.510   1.319   1.118 -0.1323 -0.7811 -1.0553
 3017SOL    HW2 9433   3.597   1.235   1.027  0.4014  0.6843 -1.9263
 3018SOL     OW 9434   2.471   4.547   4.625  0.6718  0.1967  0.9659
 3018SOL    HW1 9435   2.479   4.605   4.701  0.1949 -0.1016  1.2457
 3018SOL    HW2 9436   2.552   4.560   4.577  1.0283  0.3039  1.5860
 3019SOL     OW 9437   5.014   4.233   0.497 -0.8295  0.0999  0.5446
 3019SOL    HW1 9438   5.064   4.172   0.443 -0.6794  1.5580 -1.0241
 3019SOL    HW2 9439   5.020   4.198   0.585 -0.3832 -1.9032 -0.2612
 3020SOL     OW 9440   2.768   5.289   2.278  0.3739  0.0860 -0.8604
 3020SOL    HW1 9441   2.736   5.364   2.329  0.2922  0.6970 -1.7852
 3020SOL    HW2 9442   2.742   5.213   2.329  2.1056  0.7170  1.0337
 3021SOL     OW 9443   4.501   4.594   4.197  0.0261 -0.6705  0.0768
 3021SOL    HW1 9444   4.492   4.500   4.180 -0.8329 -0.4453 -0.7365
 3021SOL    HW2 9445   4.595   4.607   4.210  0.2344 -1.5237 -0.5417
 3022SOL     OW 9446   1.032   4.754   5.232  0.1369 -0.1333  0.3254
 3022SOL    HW1 9447   0.984   4.671   5.224 -0.8701  0.4758  0.0251
 3022SOL    HW2 9448   1.028   4.775   5.325  0.6042 -0.5403  0.4407
 3023SOL     OW 9449   6.258   0.633   2.983 -0.5392  0.2431 -0.3085
 3023SOL    HW1 9450   6.289   0.604   2.897  0.5187  0.5074 -0.0136
 3023SOL    HW2 9451   6.202   0.562   3.014 -0.3565 -0.1608 -0.9011
 3024SOL     OW 9452   1.582   4.039   4.385  0.1001  0.5148  0.2745
 3024SOL    HW1 9453   1.604   4.112   4.327 -1.0376  1.6522  1.2697
 3024SOL    HW2 9454   1.497   4.008   4.353 -0.8515  1.5742  1.7258
 3025SOL     OW 9455   2.785   3.595   2.030  0.1042 -0.0494  0.6860
 3025SOL    HW1 9456   2.823   3.663   2.085  0.8236  0.1915 -0.0874
 3025SOL    HW2 9457   2.836   3.599   1.949 -1.3900  0.0796 -0.2694
 3026SOL     OW 9458   0.224   3.082   1.617 -0.2608  0.5194 -0.8632
 3026SOL    HW1 9459   0.227   3.087   1.713 -1.0938  2.1271 -0.9200
 3026SOL    HW2 9460   0.308   3.118   1.589 -0.8159  1.8833 -0.7982
 3027SOL     OW 9461   1.332   1.586   0.423 -0.0967  0.2383  0.0559
 3027SOL    HW1 9462   1.314   1.630   0.506 -0.5888 -3.1640  1.8218
 3027SOL    HW2 9463   1.427   1.596   0.411  0.1548 -0.1960  1.5975
 3028SOL     OW 9464   3.864   1.533   2.539  0.2741  0.1297 -0.2653
 3028SOL    HW1 9465   3.866   1.458   2.480  0.4914  2.0008 -2.7494
 3028SOL    HW2 9466   3.789   1.584   2.510  1.2471  1.8168  0.1112
 3029SOL     OW 9467   5.700   3.488   1.046  0.2281  0.0452 -0.0560
 3029SOL    HW1 9468   5.782   3.449   1.017 -0.6071 -1.3896 -0.5455
 3029SOL    HW2 9469   5.712   3.504   1.139  2.0220  2.3565 -0.6256
 3030SOL     OW 9470   5.677   0.050   4.794  0.0648  0.2413 -0.0604
 3030SOL    HW1 9471   5.737   0.124   4.786  1.0101 -0.5008  0.0989
 3030SOL    HW2 9472   5.707  -0.012   4.728  0.5945 -0.8947  1.2114
 3031SOL     OW 9473   2.632   5.400   6.159  0.4746  0.2311 -0.0793
 3031SOL    HW1 9474   2.641   5.470   6.224 -1.5333 -0.2577  0.7558
 3031SOL    HW2 9475   2.715   5.353   6.164  0.2113 -0.0609  2.4960
 3032SOL     OW 9476   3.499   5.367   5.732  0.3429 -0.1666  0.3415
 3032SOL    HW1 9477   3.454   5.284   5.745 -0.4317  0.2250  0.1446
 3032SOL    HW2 9478   3.571   5.366   5.795 -0.4784 -0.3930  1.2776
 3033SOL     OW 9479   4.751   0.359   0.636  0.9421 -0.3826  0.3646
 3033SOL    HW1 9480   4.728   0.301   0.564 -1.8562  1.5730 -0.3966
 3033SOL    HW2 9481   4.799   0.431   0.595 -1.1163  1.0013  0.3534
 3034SOL     OW 9482   1.485   0.047   5.212 -0.0832 -0.2873  0.2474
 3034SOL    HW1 9483   1.470   0.118   5.149  0.2916 -0.3074  0.1393
 3034SOL    HW2 9484   1.541  -0.015   5.166  1.1738  0.2667  1.0130
 3035SOL     OW 9485   0.770   5.083   6.076 -0.1336 -0.0330 -0.0231
 3035SOL    HW1 9486   0.822   5.068   5.997  1.1642  1.2886  0.5601
 3035SOL    HW2 9487   0.798   5.015   6.137 -0.5464 -0.5583 -0.4239
 3036SOL     OW 9488   2.386   5.008   4.748  0.2495  0.1219  0.0825
 3036SOL    HW1 9489   2.368   4.934   4.691  1.6620  0.8432 -1.3494
 3036SOL    HW2 9490   2.341   4.988   4.830 -1.1151 -1.3184 -1.0083
 3037SOL     OW 9491   5.882   5.461   5.339 -0.1147  0.2215 -0.4729
 3037SOL    HW1 9492   5.915   5.523   5.405 -0.3367 -0.5947  0.4190
 3037SOL    HW2 9493   5.954   5.453   5.276  1.9582 -2.4258  2.0666
 3038SOL     OW 9494   1.405   4.884   4.350 -0.1116  0.0342  0.3037
 3038SOL    HW1 9495   1.392   4.928   4.434  0.6405 -1.1397  1.0492
 3038SOL    HW2 9496   1.332   4.914   4.296  1.0626  3.1636  0.3541
 3039SOL     OW 9497   4.468   0.419   2.087  0.2093 -0.1778 -0.0130
 3039SOL    HW1 9498   4.470   0.331   2.125  1.0804  0.2594  0.9722
 3039SOL    HW2 9499   4.520   0.411   2.007  1.2700 -0.2883  0.6799
 3040SOL     OW 9500   6.015   2.872   2.921  0.0724  0.2480  0.0267
 3040SOL    HW1 9501   6.103   2.864   2.884 -0.5636 -3.6236 -0.8047
 3040SOL    HW2 9502   6.030   2.876   3.016  1.1970  0.4646 -0.1519
 3041SOL     OW 9503   0.949   5.382   1.578  0.1968 -0.0826 -0.2624
 3041SOL    HW1 9504   0.977   5.299   1.617  0.0276 -0.4066 -0.8260
 3041SOL    HW2 9505   0.878   5.358   1.518  0.1858  0.4619 -0.4704
 3042SOL     OW 9506   3.743   2.075   4.733 -0.1975 -0.2343  0.4738
 3042SOL    HW1 9507   3.661   2.035   4.761  0.1119 -0.5212  0.9830
 3042SOL    HW2 9508   3.729   2.169   4.745 -1.1920 -0.1008 -1.4298
 3043SOL     OW 9509   1.256   6.350   5.331 -0.1780  0.3773  0.3052
 3043SOL    HW1 9510   1.328   6.393   5.284 -0.0044  1.6316  1.6731
 3043SOL    HW2 9511   1.299   6.302   5.401 -0.5256 -0.5623 -0.1174
 3044SOL     OW 9512   1.171   1.685   1.577  0.5356 -0.4458  0.4327
 3044SOL    HW1 9513   1.138   1.600   1.607 -0.9783  0.3835  1.1635
 3044SOL    HW2 9514   1.117   1.706   1.501  0.5386  0.1186  0.5867
 3045SOL     OW 9515   2.766   0.543   4.113  0.1064  0.2880  0.1516
 3045SOL    HW1 9516   2.729   0.603   4.178 -0.0347  1.6583 -1.1593
 3045SOL    HW2 9517   2.690   0.512   4.063  0.3250  0.0863 -0.0587
 3046SOL     OW 9518   1.705   3.557   0.945 -0.3877  0.1451  0.7889
 3046SOL    HW1 9519   1.682   3.649   0.946 -1.7138 -0.1646  0.3600
 3046SOL    HW2 9520   1.622   3.512   0.924  0.1862 -1.1416  1.2425
 3047SOL     OW 9521   4.044   4.232   5.986 -0.7459  0.5927 -0.0011
 3047SOL    HW1 9522   4.110   4.236   6.055  0.6876  2.1014 -1.4239
 3047SOL    HW2 9523   3.967   4.194   6.028  0.5456  0.2190  2.0639
 3048SOL     OW 9524   5.074   2.055   5.022  0.4794  0.1066 -0.3991
 3048SOL    HW1 9525   5.086   2.031   5.113 -0.3475  0.5812 -0.1636
 3048SOL    HW2 9526   5.161   2.084   4.993  0.5517  0.7396  0.4630
 3049SOL     OW 9527   1.410   5.283   3.448 -0.1511 -0.0565 -0.0120
 3049SOL    HW1 9528   1.339   5.348   3.447 -1.1316 -1.1113 -0.3205
 3049SOL    HW2 9529   1.484   5.329   3.487 -1.3265  0.7435  1.3420
 3050SOL     OW 9530   1.251   2.345   5.686 -0.4467  0.1653  0.0379
 3050SOL    HW1 9531   1.255   2.319   5.594 -1.1175  0.1478  0.0108
 3050SOL    HW2 9532   1.329   2.307   5.726  0.0720  0.5300 -0.6152
 3051SOL     OW 9533   5.499   5.427   3.033  0.0531  0.1660  0.1988
 3051SOL    HW1 9534   5.407   5.443   3.054 -0.3860 -0.8740 -0.8875
 3051SOL    HW2 9535   5.538   5.514   3.027 -1.2390  0.6827 -0.9267
 3052SOL     OW 9536   2.522   0.837   5.140 -0.2997 -0.6988 -0.2529
 3052SOL    HW1 9537   2.551   0.769   5.201 -2.6648 -1.6978 -0.1908
 3052SOL    HW2 9538   2.465   0.894   5.192  0.9738  0.8792 -0.5200
 3053SOL     OW 9539   1.194   0.131   3.634  0.5530 -0.1544  0.0127
 3053SOL    HW1 9540   1.284   0.107   3.614 -0.2522 -3.1156 -0.4157
 3053SOL    HW2 9541   1.196   0.161   3.725  2.2531  1.7165 -0.6201
 3054SOL     OW 9542   4.722   3.817   3.501 -0.5304  0.4106 -0.5197
 3054SOL    HW1 9543   4.637   3.774   3.507  0.0821 -0.9599 -1.2497
 3054SOL    HW2 9544   4.774   3.775   3.570 -0.0498  0.2721 -0.9635
 3055SOL     OW 9545   1.393   0.158   5.616  0.4981 -0.2519  0.0770
 3055SOL    HW1 9546   1.481   0.145   5.580  0.6152 -0.0407  0.2918
 3055SOL    HW2 9547   1.382   0.253   5.621 -0.0892 -0.2636 -0.8007
 3056SOL     OW 9548   3.366   4.614   5.953  0.2375 -0.0490  0.5292
 3056SOL    HW1 9549   3.271   4.620   5.943  0.0345 -3.5552 -0.3485
 3056SOL    HW2 9550   3.402   4.666   5.881 -0.9964  1.0064  0.6570
 3057SOL     OW 9551   2.855   3.547   3.331  0.3032  0.0211  0.0973
 3057SOL    HW1 9552   2.790   3.564   3.398  0.0161 -0.6402 -0.0057
 3057SOL    HW2 9553   2.829   3.601   3.257 -0.9050 -1.2366 -0.4225
 3058SOL     OW 9554   3.094   6.304   2.895  0.5405  0.2762 -0.6326
 3058SOL    HW1 9555   3.036   6.314   2.971  2.2306 -0.2652  0.7498
 3058SOL    HW2 9556   3.087   6.212   2.872  1.1818  0.1107 -0.1814
 3059SOL     OW 9557   4.127   4.713   3.666 -0.4177  0.2228 -0.0598
 3059SOL    HW1 9558   4.210   4.677   3.699 -0.5694  0.7844  0.9725
 3059SOL    HW2 9559   4.103   4.655   3.594  1.1992  0.4247 -0.7932
 3060SOL     OW 9560   5.606   1.701   6.079 -0.4645  0.1672 -0.3366
 3060SOL    HW1 9561   5.588   1.638   6.149  0.6720 -0.3449 -0.4910
 3060SOL    HW2 9562   5.529   1.758   6.077 -1.4755 -1.1834 -0.1660
 3061SOL     OW 9563   3.534   4.710   6.343  0.2618 -0.2666 -0.1260
 3061SOL    HW1 9564   3.614   4.760   6.333 -0.8523  1.0024 -3.3558
 3061SOL    HW2 9565   3.541   4.640   6.277 -1.0156 -0.4796 -0.0509
 3062SOL     OW 9566   5.868   1.168   4.115 -0.3127 -0.8623  0.0173
 3062SOL    HW1 9567   5.785   1.145   4.156  0.3656 -0.9813  1.3565
 3062SOL    HW2 9568   5.910   1.228   4.177  1.0284 -1.5689 -0.1859
 3063SOL     OW 9569   5.135   4.121   0.989 -0.0770 -0.1566 -0.1969
 3063SOL    HW1 9570   5.110   4.036   1.025 -0.3571  0.7619  1.8278
 3063SOL    HW2 9571   5.230   4.122   0.994 -0.0873 -0.2480  0.0011
 3064SOL     OW 9572   1.162   1.077   0.112  0.3216  0.0047  0.2450
 3064SOL    HW1 9573   1.118   1.094   0.195  0.8331  0.7256  0.3645
 3064SOL    HW2 9574   1.166   0.981   0.107 -1.4264 -0.0832  0.1394
 3065SOL     OW 9575   0.663   1.560   1.365 -0.3674  0.3407 -0.5670
 3065SOL    HW1 9576   0.661   1.655   1.357 -1.2251  0.4577  0.8168
 3065SOL    HW2 9577   0.573   1.533   1.343  0.5666 -0.4221 -3.7456
 3066SOL     OW 9578   1.725   2.896   4.087  0.4190 -0.5711 -0.0367
 3066SOL    HW1 9579   1.638   2.927   4.112  0.7897 -0.2481  0.8973
 3066SOL    HW2 9580   1.722   2.802   4.105  0.5521 -0.4060  0.8729
 3067SOL     OW 9581   6.098   2.476   5.930 -0.3341  0.5819  0.2200
 3067SOL    HW1 9582   6.050   2.442   5.855 -0.7608  0.7922  0.3923
 3067SOL    HW2 9583   6.143   2.401   5.967  0.0252  0.5121 -0.3571
 3068SOL     OW 9584   4.525   3.974   3.059 -0.5167 -0.0475 -0.2493
 3068SOL    HW1 9585   4.446   3.925   3.081 -1.9878  1.8357 -1.2055
 3068SOL    HW2 9586   4.507   4.011   2.973  0.9265  1.3772  0.0354
 3069SOL     OW 9587   2.625   5.449   1.613 -0.1726 -1.1706 -0.4309
 3069SOL    HW1 9588   2.655   5.471   1.525 -0.1978 -0.5197 -0.2821
 3069SOL    HW2 9589   2.704   5.430   1.662 -0.0122  0.2221 -0.1252
 3070SOL     OW 9590   2.313   5.019   1.002 -0.4087  0.6018  0.1652
 3070SOL    HW1 9591   2.391   4.980   1.042 -1.2972 -1.3391  0.0483
 3070SOL    HW2 9592   2.242   4.999   1.064 -1.4582 -0.7902 -1.4203
 3071SOL     OW 9593   4.697   1.285   3.218  0.7479 -0.1393  0.0899
 3071SOL    HW1 9594   4.781   1.330   3.218  0.3192  0.6726  0.2708
 3071SOL    HW2 9595   4.638   1.344   3.265  0.4009 -1.3192  1.1605
 3072SOL     OW 9596   1.449   1.008   2.163  0.9959 -0.6255 -0.6146
 3072SOL    HW1 9597   1.429   1.028   2.071 -0.3884  3.0479  0.3710
 3072SOL    HW2 9598   1.540   1.037   2.175  0.3553  1.3885 -0.2690
 3073SOL     OW 9599   2.251   4.664   3.943  0.4620  0.7438 -0.1629
 3073SOL    HW1 9600   2.329   4.706   3.978  0.0861  3.1292 -1.9686
 3073SOL    HW2 9601   2.178   4.711   3.983  0.0161  1.1672 -1.4207
 3074SOL     OW 9602   1.736   2.974   4.382 -0.4189 -0.4059  0.3014
 3074SOL    HW1 9603   1.792   2.968   4.459  0.9861  0.7546 -0.5979
 3074SOL    HW2 9604   1.687   2.892   4.380  1.1138 -1.3420  1.2203
 3075SOL     OW 9605   2.967   1.981   3.293 -0.4712  0.5545  0.0973
 3075SOL    HW1 9606   3.023   2.041   3.244  0.6165  0.1330  0.7873
 3075SOL    HW2 9607   3.028   1.930   3.347 -1.2663 -1.7600 -1.0875
 3076SOL     OW 9608   0.273   5.371   2.547 -0.5440  0.1680 -0.7664
 3076SOL    HW1 9609   0.186   5.340   2.571  0.3492 -0.9367  1.1331
 3076SOL    HW2 9610   0.325   5.292   2.534  1.2828  0.7884  2.3276
 3077SOL     OW 9611   6.293   1.899   1.999  0.0059 -0.0915 -0.2328
 3077SOL    HW1 9612   6.214   1.857   2.035 -0.0115  1.1159  1.1589
 3077SOL    HW2 9613   6.342   1.927   2.075  1.7764 -0.7660 -1.1049
 3078SOL     OW 9614   2.504   4.306   6.122 -0.2980 -0.0334  0.2355
 3078SOL    HW1 9615   2.481   4.230   6.175  0.3117 -0.7346 -0.4892
 3078SOL    HW2 9616   2.427   4.322   6.068 -0.5118  0.0101  0.5512
 3079SOL     OW 9617   5.411   4.650   0.210  0.0361  0.1702 -0.1299
 3079SOL    HW1 9618   5.364   4.567   0.217  0.3852 -0.1299 -1.1885
 3079SOL    HW2 9619   5.376   4.705   0.280 -1.0818 -0.4429 -0.2121
 3080SOL     OW 9620   4.937   3.938   6.262 -0.1066  0.3333 -0.1532
 3080SOL    HW1 9621   5.021   3.902   6.232 -1.2473 -2.4555 -0.2054
 3080SOL    HW2 9622   4.915   4.004   6.197  1.1315 -0.2685 -1.2195
 3081SOL     OW 9623   2.044   3.958   5.002 -0.1690 -0.9031  0.1111
 3081SOL    HW1 9624   2.071   3.972   4.911 -0.5994  0.3468  0.1658
 3081SOL    HW2 9625   2.105   4.012   5.054 -1.4577  0.3341  0.3723
 3082SOL     OW 9626   1.220   4.665   5.061  0.8878  0.2718 -0.2622
 3082SOL    HW1 9627   1.283   4.598   5.088  0.2591 -0.0785  0.3711
 3082SOL    HW2 9628   1.179   4.693   5.143 -0.6076 -0.3402 -0.7818
 3083SOL     OW 9629   0.198   3.938   1.696 -0.0184 -0.6187  0.4380
 3083SOL    HW1 9630   0.182   4.031   1.679  0.0350 -0.2968  2.0035
 3083SOL    HW2 9631   0.271   3.915   1.638 -0.8528 -0.0034 -0.8596
 3084SOL     OW 9632   4.845   0.593   2.119 -0.0591 -0.2148 -0.4507
 3084SOL    HW1 9633   4.862   0.508   2.160  0.9512  0.2754  0.1796
 3084SOL    HW2 9634   4.862   0.579   2.026  0.2870 -0.6518 -0.3214
 3085SOL     OW 9635   5.150   4.156   5.269 -0.1991 -0.2773  0.0450
 3085SOL    HW1 9636   5.078   4.190   5.216 -0.2509  0.6684  0.6902
 3085SOL    HW2 9637   5.167   4.226   5.333  0.4366 -1.0283  0.7064
 3086SOL     OW 9638   1.572   6.311   1.705 -0.2552  0.2203 -0.2459
 3086SOL    HW1 9639   1.584   6.380   1.770  0.0543  0.1596 -0.2393
 3086SOL    HW2 9640   1.587   6.354   1.621 -0.1666  0.1855 -0.2482
 3087SOL     OW 9641   3.660   5.909   3.265  0.3992 -0.5611 -0.1934
 3087SOL    HW1 9642   3.711   5.910   3.184  2.4801  0.4574  1.1153
 3087SOL    HW2 9643   3.615   5.993   3.266  0.1638 -0.6813 -0.3948
 3088SOL     OW 9644   1.636   2.712   4.347  0.0967 -0.1336 -0.4485
 3088SOL    HW1 9645   1.556   2.722   4.398  0.8868  0.1861  0.7502
 3088SOL    HW2 9646   1.692   2.656   4.402  1.9249  2.2715  0.2116
 3089SOL     OW 9647   6.202   4.412   5.390 -0.4100  1.1108  0.0295
 3089SOL    HW1 9648   6.112   4.425   5.417 -0.4378  0.7235  0.1358
 3089SOL    HW2 9649   6.245   4.374   5.467 -0.1739  1.2337 -0.0399
 3090SOL     OW 9650   2.869   4.178   2.290  0.0524 -0.0012  0.1876
 3090SOL    HW1 9651   2.953   4.167   2.334 -0.5752 -1.6666  1.0504
 3090SOL    HW2 9652   2.806   4.137   2.350 -1.1322 -0.2789 -1.2096
 3091SOL     OW 9653   4.572   0.688   3.590 -0.7105  0.3505  0.5772
 3091SOL    HW1 9654   4.540   0.752   3.527 -0.5531  0.0355  0.1738
 3091SOL    HW2 9655   4.494   0.646   3.625 -0.7249 -0.9590 -0.9731
 3092SOL     OW 9656   5.947   3.341   1.007 -0.5177 -0.1657 -0.0779
 3092SOL    HW1 9657   6.033   3.303   1.023 -1.3146 -0.6576  3.5484
 3092SOL    HW2 9658   5.897   3.271   0.965 -0.7360 -1.8129  2.7964
 3093SOL     OW 9659   2.651   2.765   1.387 -0.0450  0.2538 -0.0138
 3093SOL    HW1 9660   2.574   2.731   1.342  0.5179  0.3284 -1.0634
 3093SOL    HW2 9661   2.725   2.720   1.345  0.5125  0.5944  0.5917
 3094SOL     OW 9662   3.167   3.585   1.203 -0.3521  0.6260 -0.0079
 3094SOL    HW1 9663   3.179   3.492   1.222  0.2750  0.4103 -1.3515
 3094SOL    HW2 9664   3.082   3.589   1.159 -0.5883  0.7432  0.4666
 3095SOL     OW 9665   2.412   5.778   4.250 -0.1460  0.4807 -0.2463
 3095SOL    HW1 9666   2.419   5.863   4.206  1.2634  0.3115 -0.3744
 3095SOL    HW2 9667   2.434   5.796   4.341  1.3456  0.0769 -0.4987
 3096SOL     OW 9668   1.214   4.905   0.517  0.3722 -0.3182  0.1246
 3096SOL    HW1 9669   1.276   4.952   0.572 -0.0781 -0.4699  0.7620
 3096SOL    HW2 9670   1.239   4.929   0.428 -0.8755  2.4057  0.4656
 3097SOL     OW 9671   1.162   5.590   0.214 -0.2237  0.8941  0.2696
 3097SOL    HW1 9672   1.203   5.672   0.239 -0.0015  0.9741 -0.3357
 3097SOL    HW2 9673   1.188   5.577   0.123 -0.9324  0.5765  0.1026
 3098SOL     OW 9674   3.305   5.812   6.307 -0.0847 -0.5303 -0.3616
 3098SOL    HW1 9675   3.352   5.732   6.284  1.6836  0.3180  0.2228
 3098SOL    HW2 9676   3.371   5.881   6.305 -1.3573  0.7445  0.2055
 3099SOL     OW 9677   3.330   3.565   6.158  0.1859 -0.4512  0.0727
 3099SOL    HW1 9678   3.403   3.547   6.100  1.6010 -0.7071  1.8938
 3099SOL    HW2 9679   3.331   3.494   6.222 -2.6408 -1.3575 -0.7836
 3100SOL     OW 9680   3.099   1.971   2.945  0.0860 -0.0003  0.0018
 3100SOL    HW1 9681   3.055   2.042   2.993 -0.6384  0.1746 -0.9198
 3100SOL    HW2 9682   3.042   1.953   2.871  1.7182  0.4251 -1.3726
 3101SOL     OW 9683   2.440   4.422   5.178 -0.2651  0.2634 -0.1056
 3101SOL    HW1 9684   2.513   4.366   5.151 -0.1603 -0.3061  1.2845
 3101SOL    HW2 9685   2.378   4.419   5.105 -0.2371 -1.6453 -0.0819
 3102SOL     OW 9686   2.646   0.202   6.240 -0.0407  0.2347 -0.2952
 3102SOL    HW1 9687   2.719   0.262   6.229 -0.7395  1.1365 -0.0588
 3102SOL    HW2 9688   2.601   0.232   6.320 -0.8352 -0.1281 -0.5948
 3103SOL     OW 9689   0.324   5.040   2.839  0.2357 -0.2956 -0.0621
 3103SOL    HW1 9690   0.407   5.066   2.798  1.2383 -2.1352  0.7187
 3103SOL    HW2 9691   0.343   4.955   2.879 -2.3336 -1.2493 -0.7665
 3104SOL     OW 9692   4.945   4.117   5.602 -0.3943 -0.1986  0.4562
 3104SOL    HW1 9693   4.960   4.040   5.547 -0.9438 -0.6397  0.9172
 3104SOL    HW2 9694   4.858   4.148   5.576  0.0462  0.5974 -0.1138
 3105SOL     OW 9695   5.771   4.959   4.529  0.5169 -0.0022  0.2520
 3105SOL    HW1 9696   5.692   5.002   4.561  0.6797 -0.7037  1.6118
 3105SOL    HW2 9697   5.740   4.879   4.486  0.3589  0.5953 -0.7797
 3106SOL     OW 9698   3.448   3.363   0.523  0.0697 -0.6789  0.3623
 3106SOL    HW1 9699   3.380   3.404   0.470  1.0752  0.9944  0.3450
 3106SOL    HW2 9700   3.429   3.390   0.613  0.7574 -0.1248  0.3476
 3107SOL     OW 9701   4.175   4.216   1.740 -0.3206 -0.2066 -1.0172
 3107SOL    HW1 9702   4.253   4.264   1.769 -0.6550 -0.4657  0.3716
 3107SOL    HW2 9703   4.161   4.150   1.808 -2.5215  0.6862 -0.5654
 3108SOL     OW 9704   1.154   3.578   5.435  0.0055  0.5525  0.1878
 3108SOL    HW1 9705   1.136   3.651   5.495 -0.6576 -0.7024  1.5466
 3108SOL    HW2 9706   1.187   3.620   5.355 -1.4214  2.3967  0.5486
 3109SOL     OW 9707   2.846   1.387   2.940 -0.4251 -1.0729 -0.5310
 3109SOL    HW1 9708   2.780   1.317   2.939  1.5956 -3.0347 -2.8355
 3109SOL    HW2 9709   2.856   1.412   2.849  1.3943 -0.2144 -0.1215
 3110SOL     OW 9710   6.273   0.077   3.256  0.2172  0.0697  0.3082
 3110SOL    HW1 9711   6.222   0.053   3.333 -0.6715 -2.0745 -0.9163
 3110SOL    HW2 9712   6.348   0.018   3.258  0.8273  0.8192  0.1439
 3111SOL     OW 9713   3.145   5.068   3.884  0.1276  0.1903 -0.4902
 3111SOL    HW1 9714   3.136   4.977   3.855  0.5815  0.7788 -2.5430
 3111SOL    HW2 9715   3.111   5.120   3.812 -2.0213  1.6265  1.4987
 3112SOL     OW 9716   2.623   5.240   5.411 -0.3072  0.5399 -0.5448
 3112SOL    HW1 9717   2.658   5.270   5.327 -0.4648  1.3237 -0.3369
 3112SOL    HW2 9718   2.640   5.313   5.472  2.4169 -1.1272  0.8120
 3113SOL     OW 9719   1.200   3.796   2.889  0.8934  0.9809 -0.7771
 3113SOL    HW1 9720   1.187   3.801   2.795 -1.6341  1.3782 -0.4598
 3113SOL    HW2 9721   1.219   3.704   2.907 -1.2463  0.3934 -1.4097
 3114SOL     OW 9722   3.255   2.616   4.398  0.4300 -0.0307  0.2176
 3114SOL    HW1 9723   3.238   2.614   4.493 -0.3016  1.0025  0.1152
 3114SOL    HW2 9724   3.178   2.575   4.359  0.7428 -0.4781  0.0610
 3115SOL     OW 9725   4.997   2.081   4.181 -0.0285  0.1199  0.0558
 3115SOL    HW1 9726   5.051   2.122   4.114 -0.2400  0.0641 -0.1513
 3115SOL    HW2 9727   5.044   2.096   4.263  0.3344  0.0048 -0.1332
 3116SOL     OW 9728   5.172   0.385   0.834 -0.2944 -0.3465 -0.0169
 3116SOL    HW1 9729   5.083   0.350   0.822 -0.0887 -1.4261  1.5445
 3116SOL    HW2 9730   5.229   0.316   0.800  0.0143 -0.4919  0.7871
 3117SOL     OW 9731   5.299   0.100   1.812 -0.1234  0.3779 -0.5533
 3117SOL    HW1 9732   5.231   0.071   1.750  2.9290 -1.6133 -3.1699
 3117SOL    HW2 9733   5.316   0.022   1.865  0.8098  0.5427 -0.6111
 3118SOL     OW 9734   4.264   3.497   2.313  0.2783 -0.0621  0.4277
 3118SOL    HW1 9735   4.297   3.413   2.346  0.2528  0.7160  2.5215
 3118SOL    HW2 9736   4.246   3.548   2.392  1.1869  2.2678 -0.8207
 3119SOL     OW 9737   3.553   6.069   0.956 -0.4485 -0.3690  0.0195
 3119SOL    HW1 9738   3.601   6.033   0.882  1.7671 -0.3817  1.4264
 3119SOL    HW2 9739   3.539   6.161   0.934 -1.3949 -0.7851 -1.1852
 3120SOL     OW 9740   0.508   4.259   4.363  0.2219 -0.0300 -0.6804
 3120SOL    HW1 9741   0.569   4.186   4.373  0.4689  0.4082  1.3924
 3120SOL    HW2 9742   0.498   4.270   4.269  0.8333 -2.1833 -1.0213
 3121SOL     OW 9743   3.209   5.757   3.945  0.1428  0.5063  0.9881
 3121SOL    HW1 9744   3.254   5.674   3.927  0.0141 -0.0253  3.0940
 3121SOL    HW2 9745   3.130   5.753   3.890  0.4677 -0.4686  0.5672
 3122SOL     OW 9746   1.472   1.754   4.277 -0.3870 -0.1895 -0.7550
 3122SOL    HW1 9747   1.526   1.708   4.341 -0.4932  2.9652  1.7429
 3122SOL    HW2 9748   1.382   1.728   4.298 -0.1769 -1.9590 -1.9969
 3123SOL     OW 9749   4.067   5.396   5.147  0.0888  0.2963 -0.2366
 3123SOL    HW1 9750   4.034   5.348   5.070 -0.5733  0.9914 -0.3868
 3123SOL    HW2 9751   4.001   5.463   5.164 -0.2716 -0.4724  1.5453
 3124SOL     OW 9752   5.462   4.165   1.256 -0.2005 -0.1133  0.0770
 3124SOL    HW1 9753   5.393   4.130   1.200  0.5815 -1.0676 -0.2934
 3124SOL    HW2 9754   5.454   4.116   1.337 -0.7585  0.6505  0.4906
 3125SOL     OW 9755   4.922   2.563   0.865 -0.1654  0.0696  0.3489
 3125SOL    HW1 9756   4.896   2.480   0.905  0.3259  0.1812  0.8994
 3125SOL    HW2 9757   4.854   2.580   0.799  0.4317 -1.4240 -0.6643
 3126SOL     OW 9758   3.940   0.576   3.321 -1.1440 -0.6126  0.3074
 3126SOL    HW1 9759   3.884   0.611   3.251 -1.5318 -0.3523  0.7424
 3126SOL    HW2 9760   3.922   0.632   3.396  1.5576  1.0389 -0.2031
 3127SOL     OW 9761   4.001   3.688   5.527  0.2563 -0.2920 -0.1786
 3127SOL    HW1 9762   4.024   3.597   5.507  2.1056 -0.5795  3.0130
 3127SOL    HW2 9763   4.081   3.738   5.507 -1.3856  1.0316 -3.9539
 3128SOL     OW 9764   6.110   0.686   6.176  0.0006  0.2469 -0.4334
 3128SOL    HW1 9765   6.188   0.727   6.213 -1.0870  0.5383  1.6138
 3128SOL    HW2 9766   6.066   0.756   6.129  2.5410 -0.6220 -4.3968
 3129SOL     OW 9767   2.550   3.051   2.646 -0.0592 -0.3252  0.4743
 3129SOL    HW1 9768   2.629   2.999   2.657 -1.1933 -2.1601  0.1903
 3129SOL    HW2 9769   2.567   3.131   2.695  2.6286  0.0741 -1.0078
 3130SOL     OW 9770   5.398   1.614   3.237  0.6874 -0.4305 -0.5122
 3130SOL    HW1 9771   5.338   1.569   3.178 -1.8623 -0.3472  1.8926
 3130SOL    HW2 9772   5.391   1.706   3.214 -1.9104 -0.1403  1.1771
 3131SOL     OW 9773   5.531   4.784   6.283  0.6820 -0.1643  0.4768
 3131SOL    HW1 9774   5.607   4.735   6.252  1.5076  2.9937 -2.8349
 3131SOL    HW2 9775   5.566   4.851   6.342  0.1037 -0.5158  1.2403
 3132SOL     OW 9776   5.797   3.440   4.880 -0.4349  0.4371  0.3435
 3132SOL    HW1 9777   5.883   3.399   4.887 -1.0937 -0.8494  1.2313
 3132SOL    HW2 9778   5.782   3.450   4.786 -0.9833 -3.0072 -0.0006
 3133SOL     OW 9779   3.917   5.711   2.530  0.6811  0.3445 -0.0574
 3133SOL    HW1 9780   3.918   5.633   2.475  1.8481  0.3539 -0.0626
 3133SOL    HW2 9781   3.853   5.769   2.488 -1.7891 -1.4224  1.1480
 3134SOL     OW 9782   6.090   5.102   5.417 -0.6309 -0.1445 -0.4693
 3134SOL    HW1 9783   6.173   5.146   5.399 -0.1188 -1.0561 -0.3801
 3134SOL    HW2 9784   6.037   5.119   5.339 -1.2625  2.4580  0.4678
 3135SOL     OW 9785   2.516   3.323   6.045  0.1136 -0.2890  0.8564
 3135SOL    HW1 9786   2.427   3.288   6.041 -0.2225  0.1834  3.1508
 3135SOL    HW2 9787   2.572   3.251   6.014 -0.9980 -0.8588  0.1437
 3136SOL     OW 9788   3.931   5.234   5.783  0.0143  0.5337 -0.4072
 3136SOL    HW1 9789   3.931   5.166   5.716  0.4978 -2.5987  2.6388
 3136SOL    HW2 9790   3.839   5.259   5.791 -0.2987 -0.3978 -0.9511
 3137SOL     OW 9791   1.067   2.345   3.933  0.0433  0.1638  0.0977
 3137SOL    HW1 9792   1.058   2.431   3.974  0.7489  0.5335 -0.5093
 3137SOL    HW2 9793   1.124   2.296   3.992 -0.0895  0.2221  0.2748
 3138SOL     OW 9794   6.311   2.722   6.346  0.7587 -0.3875 -0.0435
 3138SOL    HW1 9795   6.290   2.640   6.390 -0.5237 -0.2606 -0.4048
 3138SOL    HW2 9796   6.312   2.700   6.253  1.5129 -0.2259 -0.0782
 3139SOL     OW 9797   2.956   1.004   5.037 -0.1338  0.3724  0.2060
 3139SOL    HW1 9798   2.941   1.018   4.943 -0.0975 -1.8166 -0.1663
 3139SOL    HW2 9799   3.014   0.928   5.040  0.0519  0.5716  2.0164
 3140SOL     OW 9800   1.287   4.900   6.295 -0.0751  0.0081 -0.2185
 3140SOL    HW1 9801   1.249   4.954   6.364  0.1957  1.0079 -0.8397
 3140SOL    HW2 9802   1.314   4.819   6.339 -2.7475 -0.6605  0.2699
 3141SOL     OW 9803   3.406   4.258   3.669 -0.1593  0.4325  0.2085
 3141SOL    HW1 9804   3.465   4.204   3.617 -1.2303 -0.6220  0.0546
 3141SOL    HW2 9805   3.445   4.345   3.668  0.5784  0.0964 -1.1693
 3142SOL     OW 9806   4.733   3.244   5.855  0.0255  0.0776  0.5308
 3142SOL    HW1 9807   4.716   3.244   5.761  0.7463 -0.3769  0.3928
 3142SOL    HW2 9808   4.730   3.336   5.880 -3.1135 -0.0034  0.6422
 3143SOL     OW 9809   5.257   1.867   0.708  0.0535 -0.0993  0.0158
 3143SOL    HW1 9810   5.299   1.787   0.741 -0.2135 -0.4795 -0.5577
 3143SOL    HW2 9811   5.227   1.844   0.620 -0.4122  0.5024  0.0120
 3144SOL     OW 9812   5.470   1.182   3.592  0.0460  0.3207  0.6623
 3144SOL    HW1 9813   5.445   1.249   3.529  0.0430  0.2580  0.5971
 3144SOL    HW2 9814   5.389   1.162   3.639 -0.3704 -0.9792 -0.5772
 3145SOL     OW 9815   5.098   5.597   2.758  0.2721 -0.2308 -0.4917
 3145SOL    HW1 9816   5.154   5.638   2.823 -0.3511 -0.4958  0.2211
 3145SOL    HW2 9817   5.070   5.515   2.798 -1.4181  0.3498 -0.4195
 3146SOL     OW 9818   1.506   2.880   2.057 -0.0294 -0.1836  0.4476
 3146SOL    HW1 9819   1.494   2.789   2.028 -1.6511 -0.0071  0.5514
 3146SOL    HW2 9820   1.520   2.929   1.976  3.8919 -0.9229  0.5456
 3147SOL     OW 9821   2.061   4.566   3.212 -0.2626  0.0792  0.1883
 3147SOL    HW1 9822   2.099   4.479   3.207  1.2972  0.8776 -3.7132
 3147SOL    HW2 9823   2.136   4.625   3.216 -1.2434  1.3641 -0.1258
 3148SOL     OW 9824   4.989   5.752   0.704 -0.5077 -0.5608 -0.1566
 3148SOL    HW1 9825   4.931   5.772   0.631  0.5077 -0.0668 -0.8504
 3148SOL    HW2 9826   5.071   5.796   0.682 -0.0960 -0.6392  1.1483
 3149SOL     OW 9827   0.378   0.791   2.267 -0.5099  0.3297 -0.4278
 3149SOL    HW1 9828   0.395   0.828   2.181 -1.7540 -1.0865 -1.3074
 3149SOL    HW2 9829   0.417   0.704   2.265 -0.0287  0.5055  0.6552
 3150SOL     OW 9830   0.816   4.646   5.593 -0.0738  0.3919  0.8555
 3150SOL    HW1 9831   0.897   4.689   5.620 -0.1548  1.5436 -0.6644
 3150SOL    HW2 9832   0.772   4.623   5.675  1.6051  0.1050  1.6929
 3151SOL     OW 9833   3.850   0.160   1.519  0.0414 -0.0559 -0.0059
 3151SOL    HW1 9834   3.852   0.133   1.611  0.4191 -0.6439 -0.1856
 3151SOL    HW2 9835   3.837   0.255   1.522 -2.0896 -0.3283  0.6232
 3152SOL     OW 9836   2.991   6.187   2.198  0.0183  0.7645  0.4656
 3152SOL    HW1 9837   2.963   6.133   2.124  0.8167  2.2535 -0.9368
 3152SOL    HW2 9838   2.918   6.181   2.260 -0.2187 -1.3191  0.0419
 3153SOL     OW 9839   1.584   3.553   1.835  0.3573 -0.8927 -0.5170
 3153SOL    HW1 9840   1.569   3.514   1.749  0.7285 -0.2978 -0.8521
 3153SOL    HW2 9841   1.502   3.599   1.856  0.0211 -1.6094 -0.2472
 3154SOL     OW 9842   3.706   1.487   0.201 -0.3766 -0.2223  0.1363
 3154SOL    HW1 9843   3.641   1.442   0.255  0.0110 -1.5491 -0.4690
 3154SOL    HW2 9844   3.779   1.505   0.260 -0.5425 -0.3918  0.3909
 3155SOL     OW 9845   3.070   0.818   4.674 -0.0078  0.0662 -0.2241
 3155SOL    HW1 9846   3.126   0.834   4.750  0.5090 -2.1087 -0.1026
 3155SOL    HW2 9847   2.990   0.780   4.712  0.5322 -1.6866 -0.7956
 3156SOL     OW 9848   0.128   4.608   1.742 -0.1442 -0.0696 -0.4889
 3156SOL    HW1 9849   0.059   4.570   1.688 -1.7254  0.8239  0.8733
 3156SOL    HW2 9850   0.170   4.533   1.784  0.2653 -0.6705 -1.9446
 3157SOL     OW 9851   2.556   5.327   5.799 -0.3421  0.2604 -0.4873
 3157SOL    HW1 9852   2.535   5.296   5.887 -0.4811  0.3002 -0.5056
 3157SOL    HW2 9853   2.476   5.370   5.769 -0.3551  0.0850 -0.7051
 3158SOL     OW 9854   2.019   3.949   5.460 -0.2116 -0.3235  0.6309
 3158SOL    HW1 9855   2.000   4.010   5.389 -1.0556  0.0562  1.1703
 3158SOL    HW2 9856   1.960   3.976   5.531 -0.0197 -1.2597  1.1538
 3159SOL     OW 9857   1.154   5.185   5.841  0.5384  0.0620 -0.1371
 3159SOL    HW1 9858   1.235   5.234   5.856  0.2115  0.7568 -0.6370
 3159SOL    HW2 9859   1.085   5.242   5.876  0.1746 -0.1375 -0.5317
 3160SOL     OW 9860   6.251   3.298   5.313  0.2158 -0.8405  0.4918
 3160SOL    HW1 9861   6.284   3.266   5.397 -0.3436  3.2740  2.3660
 3160SOL    HW2 9862   6.328   3.330   5.267  0.2979 -1.6144  0.0754
 3161SOL     OW 9863   0.625   1.361   0.347  0.3554  0.4351  0.6628
 3161SOL    HW1 9864   0.664   1.335   0.263  0.7477 -1.7226  1.4888
 3161SOL    HW2 9865   0.699   1.375   0.405  0.0582  1.2284  0.8574
 3162SOL     OW 9866   5.836   3.695   6.315  0.1417 -0.2549  0.3290
 3162SOL    HW1 9867   5.834   3.651   6.399 -1.4034  0.1952  0.5582
 3162SOL    HW2 9868   5.840   3.625   6.250 -0.8525 -0.6962  0.7335
 3163SOL     OW 9869   4.598   5.875   5.720 -0.3101 -0.3696 -0.1575
 3163SOL    HW1 9870   4.591   5.967   5.748 -1.0129 -0.7711  1.0019
 3163SOL    HW2 9871   4.561   5.875   5.632 -2.1453  0.1086  0.5914
 3164SOL     OW 9872   0.548   5.317   2.936 -0.1066  0.2130  0.2254
 3164SOL    HW1 9873   0.457   5.329   2.962 -0.2705 -1.2056  0.3517
 3164SOL    HW2 9874   0.563   5.383   2.869 -2.2661 -1.7966 -2.3557
 3165SOL     OW 9875   2.264   0.189   5.935 -0.1022 -0.2618 -0.4107
 3165SOL    HW1 9876   2.320   0.211   5.860 -2.1396 -0.0313 -1.8959
 3165SOL    HW2 9877   2.252   0.273   5.981  2.6824 -0.7446  1.2827
 3166SOL     OW 9878   2.056   1.808   0.193 -0.3598 -0.0539  0.0668
 3166SOL    HW1 9879   1.979   1.865   0.200 -0.4999 -0.4541  2.2351
 3166SOL    HW2 9880   2.021   1.721   0.210  0.6322 -0.1877  1.4324
 3167SOL     OW 9881   5.207   2.679   3.726 -0.3687 -0.5901  0.3283
 3167SOL    HW1 9882   5.214   2.770   3.698 -2.5660 -0.0639  1.3782
 3167SOL    HW2 9883   5.294   2.642   3.708 -0.2103  1.0026 -2.4581
 3168SOL     OW 9884   5.778   2.915   5.027  0.0043  0.2623  0.0600
 3168SOL    HW1 9885   5.871   2.908   5.007  0.0571  0.9325  0.0591
 3168SOL    HW2 9886   5.774   2.918   5.122  0.1409  2.1863  0.0301
 3169SOL     OW 9887   0.743   2.853   0.205 -0.1329  0.2234  0.1952
 3169SOL    HW1 9888   0.781   2.772   0.241 -0.0950  0.8835  1.6673
 3169SOL    HW2 9889   0.806   2.921   0.230 -0.6244  0.8434 -0.2601
 3170SOL     OW 9890   1.658   1.130   1.478  0.7494 -0.4503  0.1747
 3170SOL    HW1 9891   1.682   1.154   1.567  2.6497  1.5163 -0.8177
 3170SOL    HW2 9892   1.584   1.186   1.456  0.6033 -0.5799  0.3341
 3171SOL     OW 9893   6.241   3.812   1.836 -0.5405 -0.4599  0.1977
 3171SOL    HW1 9894   6.243   3.732   1.889 -2.9245 -0.8315 -0.2045
 3171SOL    HW2 9895   6.233   3.781   1.746  0.0190  0.2196 -0.0903
 3172SOL     OW 9896   5.164   1.504   3.726  0.5988 -0.8674  0.0947
 3172SOL    HW1 9897   5.199   1.575   3.779  0.9358 -1.0590  0.1262
 3172SOL    HW2 9898   5.170   1.535   3.636 -0.2323 -0.4269  0.1854
 3173SOL     OW 9899   6.280   2.641   6.062 -0.5920 -0.0745 -0.0457
 3173SOL    HW1 9900   6.366   2.633   6.022 -0.2381  0.9458  0.4986
 3173SOL    HW2 9901   6.224   2.584   6.010  0.7004 -1.8123  0.4168
 3174SOL     OW 9902   1.497   2.657   4.127 -0.4142  0.4787  0.3042
 3174SOL    HW1 9903   1.416   2.630   4.170  0.6031  0.9133  2.5601
 3174SOL    HW2 9904   1.552   2.689   4.198  1.2458  1.4232 -1.3714
 3175SOL     OW 9905   3.524   0.543   5.868 -0.1421 -0.2622 -0.0005
 3175SOL    HW1 9906   3.456   0.476   5.878 -0.4794 -0.2836 -2.0942
 3175SOL    HW2 9907   3.488   0.620   5.911 -0.2129 -1.1150  1.4991
 3176SOL     OW 9908   3.716   2.271   3.817 -0.0852 -0.0725 -0.0825
 3176SOL    HW1 9909   3.689   2.193   3.865  1.4773 -0.5098  0.1261
 3176SOL    HW2 9910   3.733   2.336   3.885 -1.9878  0.6542 -0.2908
 3177SOL     OW 9911   2.285   5.445   5.773  0.0158 -0.5658 -0.2384
 3177SOL    HW1 9912   2.248   5.372   5.723  0.8071 -1.3089  0.2476
 3177SOL    HW2 9913   2.230   5.451   5.852 -0.0259 -0.6604 -0.2600
 3178SOL     OW 9914   5.911   2.921   1.405  0.0785  0.1109  0.3724
 3178SOL    HW1 9915   5.832   2.945   1.455 -0.3281 -1.7953  0.6671
 3178SOL    HW2 9916   5.969   2.882   1.471  0.4945 -0.2419 -0.2043
 3179SOL     OW 9917   5.103   3.637   4.521  0.1251 -0.8505 -0.4537
 3179SOL    HW1 9918   5.045   3.572   4.482 -0.8451  0.7755 -1.7584
 3179SOL    HW2 9919   5.047   3.688   4.579  0.7714 -0.8334  0.1668
 3180SOL     OW 9920   6.321   3.374   0.350  0.1032  0.4589  0.8183
 3180SOL    HW1 9921   6.310   3.279   0.360 -0.8636  0.6999  2.2012
 3180SOL    HW2 9922   6.272   3.394   0.270  0.8578 -0.2998  0.1577
 3181SOL     OW 9923   4.448   2.298   2.094  0.0008 -0.2294 -0.4917
 3181SOL    HW1 9924   4.416   2.237   2.160 -0.3937 -0.0428 -0.5079
 3181SOL    HW2 9925   4.525   2.339   2.134 -0.4716  0.1794  0.0209
 3182SOL     OW 9926   1.948   2.854   5.127 -0.3476 -0.4335 -0.0881
 3182SOL    HW1 9927   1.895   2.785   5.087 -1.3806  0.0135  0.4864
 3182SOL    HW2 9928   1.886   2.925   5.144 -0.3310 -1.2065  3.8000
 3183SOL     OW 9929   5.353   1.972   3.683 -0.1958  0.0472  0.3757
 3183SOL    HW1 9930   5.349   1.999   3.774 -1.4444  0.8966  0.0847
 3183SOL    HW2 9931   5.393   2.047   3.637 -1.3846  0.4231 -0.0600
 3184SOL     OW 9932   6.046   2.181   3.665  0.4161  0.5066  0.2525
 3184SOL    HW1 9933   5.980   2.248   3.680 -1.3327 -1.5569  2.3020
 3184SOL    HW2 9934   6.002   2.117   3.609  1.7598  0.6270 -0.9544
 3185SOL     OW 9935   1.467   5.526   0.379 -0.3719  0.5845  0.0605
 3185SOL    HW1 9936   1.386   5.568   0.409 -0.1189  1.7846 -0.8773
 3185SOL    HW2 9937   1.530   5.598   0.373  0.1736  0.0121 -1.2553
 3186SOL     OW 9938   3.447   0.785   1.775  0.1952  0.5239  0.1291
 3186SOL    HW1 9939   3.531   0.831   1.780  0.4723 -0.1549  2.5497
 3186SOL    HW2 9940   3.471   0.696   1.749  0.1207  0.6336 -0.3043
 3187SOL     OW 9941   4.871   2.915   4.636 -0.3100  0.3590  0.5159
 3187SOL    HW1 9942   4.928   2.905   4.712 -1.0114  1.0604  1.1520
 3187SOL    HW2 9943   4.883   2.835   4.586 -1.4351 -1.0830  2.4693
 3188SOL     OW 9944   1.909   4.226   2.091 -0.1708 -0.3085 -0.5316
 3188SOL    HW1 9945   1.985   4.220   2.033 -0.4259 -1.7072 -0.7492
 3188SOL    HW2 9946   1.944   4.259   2.174  0.5959 -0.5320 -0.7620
 3189SOL     OW 9947   1.855   0.019   3.659 -0.0644 -0.0976  0.4859
 3189SOL    HW1 9948   1.837  -0.072   3.637 -2.8975  0.5884 -0.2100
 3189SOL    HW2 9949   1.839   0.025   3.753 -0.0513 -0.2580  0.4980
 3190SOL     OW 9950   6.084   4.836   4.472 -0.6275 -0.3211 -0.0079
 3190SOL    HW1 9951   6.007   4.888   4.452  0.1365  0.7502 -0.2189
 3190SOL    HW2 9952   6.055   4.745   4.462 -1.7059  0.0810 -0.6203
 3191SOL     OW 9953   1.337   1.165   3.048  0.4567 -0.8272  0.3550
 3191SOL    HW1 9954   1.279   1.111   3.102  0.2751 -0.5619  0.4236
 3191SOL    HW2 9955   1.425   1.133   3.069  0.3454 -1.1531  0.3352
 3192SOL     OW 9956   4.367   1.434   2.883 -0.3632  0.6901 -0.4890
 3192SOL    HW1 9957   4.380   1.441   2.978  3.1949  0.2685 -0.9137
 3192SOL    HW2 9958   4.428   1.497   2.846  0.4918 -1.3210 -2.6112
 3193SOL     OW 9959   1.900   3.682   0.722 -0.7734  0.2330 -0.2469
 3193SOL    HW1 9960   1.819   3.708   0.678 -0.6666 -0.1045 -0.6388
 3193SOL    HW2 9961   1.958   3.656   0.652 -0.7391 -0.6977  0.1232
 3194SOL     OW 9962   5.288   3.008   5.560  0.5138 -0.2204 -0.3166
 3194SOL    HW1 9963   5.232   2.933   5.538  0.6228 -0.5243  0.4145
 3194SOL    HW2 9964   5.239   3.084   5.529  0.1642 -0.5543 -0.5967
 3195SOL     OW 9965   0.718   3.520   5.067 -0.2742 -0.1113  0.6063
 3195SOL    HW1 9966   0.652   3.521   4.998  0.8619 -0.5110 -0.4975
 3195SOL    HW2 9967   0.800   3.541   5.023  0.5079 -0.6054  1.7915
 3196SOL     OW 9968   2.789   3.647   4.668  0.0192 -0.2805 -0.1843
 3196SOL    HW1 9969   2.867   3.607   4.628 -0.6391 -0.3281 -1.4568
 3196SOL    HW2 9970   2.716   3.612   4.617 -0.9790 -1.4392  1.9713
 3197SOL     OW 9971   3.248   0.144   2.874 -0.1031 -0.1627  0.9020
 3197SOL    HW1 9972   3.190   0.068   2.880 -0.7000  0.2935  1.0344
 3197SOL    HW2 9973   3.336   0.108   2.870 -0.4709 -0.9118 -0.5717
 3198SOL     OW 9974   3.126   4.198   4.200  0.5738 -0.1739 -0.3468
 3198SOL    HW1 9975   3.052   4.171   4.146 -0.2127  0.8771  0.2020
 3198SOL    HW2 9976   3.087   4.223   4.284  1.6309 -0.3630  0.2079
 3199SOL     OW 9977   1.043   2.552   0.554 -0.6678 -0.2564  0.0685
 3199SOL    HW1 9978   1.095   2.560   0.474 -0.1056  0.7735  0.5267
 3199SOL    HW2 9979   1.107   2.529   0.622 -0.9015  0.3853  0.5097
 3200SOL     OW 9980   4.704   1.251   4.918 -0.0560 -0.5601 -0.1565
 3200SOL    HW1 9981   4.720   1.158   4.933  2.5633 -0.3383 -1.3401
 3200SOL    HW2 9982   4.635   1.253   4.852  0.4230 -1.6844 -0.7010
 3201SOL     OW 9983   0.882   0.129   0.059 -0.0335  0.4813  0.2356
 3201SOL    HW1 9984   0.872   0.177  -0.023 -0.5433  1.0474  0.6212
 3201SOL    HW2 9985   0.817   0.059   0.054  2.1710 -1.4999 -1.2530
 3202SOL     OW 9986   3.016   5.213   2.087  0.6991 -0.6533  0.4469
 3202SOL    HW1 9987   3.006   5.148   2.017 -0.3407  1.8647 -1.8579
 3202SOL    HW2 9988   2.986   5.168   2.166 -1.7782 -2.4112 -1.4125
 3203SOL     OW 9989   1.630   2.097   3.951 -0.3612 -0.1498  0.2040
 3203SOL    HW1 9990   1.650   2.057   4.036 -0.8557 -0.6166  0.1020
 3203SOL    HW2 9991   1.535   2.087   3.941 -0.0755 -1.5917 -1.1680
 3204SOL     OW 9992   6.140   3.718   2.336 -0.4222  0.0767 -0.7264
 3204SOL    HW1 9993   6.093   3.722   2.253 -1.9233  2.3156  0.1944
 3204SOL    HW2 9994   6.072   3.703   2.402  0.6322 -0.6341  0.2312
 3205SOL     OW 9995   1.275   1.252   1.754  0.2806 -0.1419 -0.5301
 3205SOL    HW1 9996   1.369   1.248   1.737  0.5423 -1.1913  1.0717
 3205SOL    HW2 9997   1.268   1.283   1.844 -0.9120 -0.0905 -0.6343
 3206SOL     OW 9998   2.471   5.291   4.991 -0.2567 -0.5209  0.2297
 3206SOL    HW1 9999   2.466   5.196   4.981 -1.9153 -0.5287  1.0659
 3206SOL    HW210000   2.380   5.321   4.992  0.2538  1.1483 -0.6306
 3207SOL     OW10001   3.414   4.504   0.870 -0.4644  0.2825 -0.3622
 3207SOL    HW110002   3.324   4.518   0.901 -0.4921  0.3328 -0.4637
 3207SOL    HW210003   3.425   4.569   0.801 -0.6424 -0.2892 -0.9366
 3208SOL     OW10004   2.175   4.273   5.603 -0.3259  0.1705  0.0163
 3208SOL    HW110005   2.212   4.304   5.520  0.4404 -1.3755 -0.2390
 3208SOL    HW210006   2.110   4.339   5.627  0.6387  1.4870 -0.9623
 3209SOL     OW10007   5.097   5.264   1.534  1.1157  0.2949 -0.0697
 3209SOL    HW110008   5.148   5.183   1.532  0.3161 -0.1913 -3.3053
 3209SOL    HW210009   5.155   5.330   1.498  2.4446  1.6730  4.3171
 3210SOL     OW10010   6.142   5.599   3.260  0.2603 -0.1357  0.1836
 3210SOL    HW110011   6.102   5.518   3.228 -2.4791  0.9259  0.8258
 3210SOL    HW210012   6.184   5.574   3.343  1.9987 -1.5118 -1.0727
 3211SOL     OW10013   2.215   2.832   3.550 -0.6227 -0.0874 -0.2974
 3211SOL    HW110014   2.197   2.786   3.631  1.9846  1.4266  1.2169
 3211SOL    HW210015   2.298   2.795   3.519 -0.3457  1.0654 -0.9704
 3212SOL     OW10016   5.988   1.784   0.297 -0.1108  0.2715  0.5190
 3212SOL    HW110017   5.982   1.848   0.368  2.7751  0.4410  0.6486
 3212SOL    HW210018   5.978   1.835   0.217  1.5598  0.8281  0.6456
 3213SOL     OW10019   0.566   1.592   2.343  0.3306 -0.0836  0.4593
 3213SOL    HW110020   0.605   1.603   2.257  1.4539  1.2657  1.1290
 3213SOL    HW210021   0.640   1.592   2.404 -0.5365  0.2121  1.5370
 3214SOL     OW10022   3.279   6.049   0.586  0.7290 -0.1900  0.0129
 3214SOL    HW110023   3.219   6.011   0.650 -1.3549 -1.1827 -2.4465
 3214SOL    HW210024   3.253   6.141   0.581  1.0237 -0.0624  0.6871
 3215SOL     OW10025   4.086   0.438   1.616 -0.1687 -0.0408  0.0722
 3215SOL    HW110026   4.051   0.436   1.527  2.9184  2.3576 -1.2890
 3215SOL    HW210027   4.164   0.384   1.613  0.2371  0.4551  1.1747
 3216SOL     OW10028   2.768   1.799   4.778 -0.5517 -0.3064 -0.4660
 3216SOL    HW110029   2.820   1.877   4.799 -0.2598 -0.8119  0.7483
 3216SOL    HW210030   2.807   1.765   4.697 -0.1705  0.3506 -0.5622
 3217SOL     OW10031   4.680   4.643   1.429  0.0204 -0.2018  0.1407
 3217SOL    HW110032   4.759   4.697   1.434  0.2395 -0.3645 -1.4943
 3217SOL    HW210033   4.611   4.703   1.402 -0.2761 -0.2071  0.8745
 3218SOL     OW10034   3.650   1.798   1.112  0.3108  0.0022  0.1051
 3218SOL    HW110035   3.700   1.748   1.048  1.4472  1.9113 -0.5539
 3218SOL    HW210036   3.621   1.876   1.064 -2.5566 -0.6395  0.7241
 3219SOL     OW10037   5.711   4.624   1.490 -0.5048 -0.3249  0.4006
 3219SOL    HW110038   5.627   4.583   1.473 -2.0507  2.4183  1.1364
 3219SOL    HW210039   5.709   4.705   1.438  1.9681 -0.5346 -0.1071
 3220SOL     OW10040   6.233   6.291   1.802  0.3513 -0.1124 -0.2800
 3220SOL    HW110041   6.287   6.360   1.765  0.4895 -0.7266 -1.2344
 3220SOL    HW210042   6.253   6.293   1.896  0.4813  1.0172 -0.3296
 3221SOL     OW10043   6.220   2.267   6.039 -0.0017  0.3046 -0.5836
 3221SOL    HW110044   6.300   2.215   6.054 -1.0885 -1.4844 -0.8255
 3221SOL    HW210045   6.153   2.202   6.019 -1.8430  1.6910  0.9045
 3222SOL     OW10046   3.481   4.502   4.230  0.1008 -0.3388  0.8564
 3222SOL    HW110047   3.572   4.492   4.259 -0.2676 -0.4697  1.9698
 3222SOL    HW210048   3.469   4.433   4.165  1.1372  0.3892 -0.1541
 3223SOL     OW10049   0.647   1.535   0.901 -0.5924  0.4243 -0.3471
 3223SOL    HW110050   0.741   1.522   0.908 -0.6389  0.8664  1.1065
 3223SOL    HW210051   0.631   1.542   0.807  0.4458 -2.4927 -0.7954
 3224SOL     OW10052   4.805   2.366   1.366 -0.1252  0.1650  0.2884
 3224SOL    HW110053   4.812   2.453   1.403  0.7601  0.4129 -0.4509
 3224SOL    HW210054   4.862   2.367   1.289 -2.3957 -0.1212 -1.4795
 3225SOL     OW10055   4.800   2.150   0.282  0.2139 -0.6144 -0.2975
 3225SOL    HW110056   4.719   2.200   0.294  0.0228 -0.6273 -1.4372
 3225SOL    HW210057   4.860   2.210   0.239  1.3603 -0.1187  1.9525
 3226SOL     OW10058   4.442   6.063   0.976  1.1483  0.0384 -0.0197
 3226SOL    HW110059   4.474   6.080   1.065  0.6899  0.9732 -0.0281
 3226SOL    HW210060   4.384   5.987   0.986  2.8717 -1.2719  0.0902
 3227SOL     OW10061   1.182   1.522   0.888  0.0708 -0.0666 -0.1756
 3227SOL    HW110062   1.241   1.568   0.948  0.0888  1.2398 -1.1864
 3227SOL    HW210063   1.160   1.587   0.822 -0.0644 -1.4588 -1.5080
 3228SOL     OW10064   3.251   3.523   0.129  0.0404 -0.2868 -0.4304
 3228SOL    HW110065   3.183   3.552   0.191  1.1234  0.2151  0.5363
 3228SOL    HW210066   3.258   3.595   0.067  1.1779  0.6054  0.7039
 3229SOL     OW10067   0.316   5.145   1.601  0.2701  0.6781 -0.5748
 3229SOL    HW110068   0.360   5.118   1.681  0.4311  0.2297 -0.8148
 3229SOL    HW210069   0.342   5.080   1.536 -0.6634  0.4618 -0.7459
 3230SOL     OW10070   4.108   0.746   4.319  0.0359  0.1235  0.7153
 3230SOL    HW110071   4.144   0.834   4.328  0.2051  0.1109  0.1543
 3230SOL    HW210072   4.112   0.727   4.226 -1.9376  0.3336  0.5728
 3231SOL     OW10073   4.170   1.139   5.083 -0.3878  1.0607 -0.4657
 3231SOL    HW110074   4.131   1.214   5.039  0.0533  0.5196 -1.8195
 3231SOL    HW210075   4.203   1.084   5.011  1.6937  0.8995  0.5879
 3232SOL     OW10076   3.138   3.929   4.874  0.4325 -0.2893 -0.4058
 3232SOL    HW110077   3.145   3.845   4.828  1.1114 -1.5339  1.9237
 3232SOL    HW210078   3.047   3.934   4.901  0.5230 -0.5283 -0.0609
 3233SOL     OW10079   3.921   1.510   0.391  0.2957 -0.0285  0.0126
 3233SOL    HW110080   3.893   1.594   0.426 -0.1469 -0.0519 -0.2812
 3233SOL    HW210081   4.016   1.513   0.393  0.2981 -0.4061  2.1783
 3234SOL     OW10082   0.671   2.280   0.865  0.7674  0.1542 -0.2035
 3234SOL    HW110083   0.718   2.199   0.886  1.8699  1.1689  1.2777
 3234SOL    HW210084   0.720   2.349   0.910 -1.3459  1.4100  0.1995
 3235SOL     OW10085   3.510   2.536   0.055  0.1905  0.5937 -0.3277
 3235SOL    HW110086   3.498   2.618   0.103 -2.9185  0.4989 -0.8393
 3235SOL    HW210087   3.523   2.563  -0.036  1.0131  0.5760 -0.2193
 3236SOL     OW10088   6.168   4.481   0.621 -0.1524  0.6876 -0.3198
 3236SOL    HW110089   6.133   4.571   0.624  0.1274  0.8373 -1.3789
 3236SOL    HW210090   6.219   4.478   0.540  1.4272  0.1499  0.6797
 3237SOL     OW10091   4.109   4.364   5.744  0.2413  0.3498 -0.2347
 3237SOL    HW110092   4.165   4.306   5.693 -0.2733 -0.4794  0.1415
 3237SOL    HW210093   4.109   4.327   5.832  0.4725  1.3177  0.1853
 3238SOL     OW10094   2.507   0.351   5.374  0.2500  0.2290  0.1153
 3238SOL    HW110095   2.590   0.306   5.392  1.0781  1.2108 -1.1316
 3238SOL    HW210096   2.483   0.392   5.458  1.1643  0.1541  0.4190
 3239SOL     OW10097   3.328   3.816   3.381  0.8081 -0.2486  0.3109
 3239SOL    HW110098   3.400   3.791   3.440 -0.9872 -0.2349  2.6088
 3239SOL    HW210099   3.331   3.911   3.378  1.4927 -0.2925 -0.3878
 3240SOL     OW10100   4.319   2.726   1.862 -0.1300  0.1350  0.0360
 3240SOL    HW110101   4.252   2.793   1.877 -0.4011 -0.3328  0.9258
 3240SOL    HW210102   4.323   2.677   1.944  1.4672  0.3044  0.0779
 3241SOL     OW10103   3.068   1.185   2.507  0.0873  0.0475 -0.2197
 3241SOL    HW110104   3.126   1.253   2.540 -1.5331  1.2791  0.1333
 3241SOL    HW210105   3.116   1.145   2.434 -0.3198  3.8223 -2.6676
 3242SOL     OW10106   0.263   0.406   4.561  0.3830  0.3458 -0.0503
 3242SOL    HW110107   0.304   0.428   4.645  0.0343 -0.9951  0.4924
 3242SOL    HW210108   0.271   0.311   4.555 -1.1358  0.2415 -0.7220
 3243SOL     OW10109   3.877   6.299   3.502 -0.4157  0.4790  0.3115
 3243SOL    HW110110   3.792   6.283   3.461 -0.8899  0.3783  1.3231
 3243SOL    HW210111   3.904   6.213   3.534  0.4596  0.3571 -0.7488
 3244SOL     OW10112   5.921   5.589   6.126  0.1926  0.0660 -0.4076
 3244SOL    HW110113   5.939   5.655   6.192  0.5788 -0.7084  0.2743
 3244SOL    HW210114   5.828   5.599   6.106  0.0735  0.3004  0.2604
 3245SOL     OW10115   6.030   1.932   1.163 -0.2781 -0.4424  0.1265
 3245SOL    HW110116   6.014   1.998   1.096  0.5796  0.2832  0.6136
 3245SOL    HW210117   6.115   1.957   1.201 -1.7833  0.5338  3.0378
 3246SOL     OW10118   4.697   5.272   0.687  0.4447  0.6771  0.6305
 3246SOL    HW110119   4.779   5.262   0.737  0.0115  1.9931  1.6415
 3246SOL    HW210120   4.628   5.252   0.750 -0.0148 -0.4088 -0.2158
 3247SOL     OW10121   5.409   0.578   0.549 -0.2338  0.2789  0.2627
 3247SOL    HW110122   5.409   0.661   0.502 -0.1335  0.8178  1.2083
 3247SOL    HW210123   5.480   0.586   0.612 -1.1395  0.0382  1.3275
 3248SOL     OW10124   5.909   2.426   5.726 -0.2159 -0.2584 -0.2537
 3248SOL    HW110125   5.865   2.506   5.754  0.9180  0.6659 -1.1071
 3248SOL    HW210126   5.844   2.383   5.669 -0.7451  0.1577  0.0256
 3249SOL     OW10127   2.800   2.917   5.059  0.6142  0.2305 -0.0349
 3249SOL    HW110128   2.888   2.881   5.044  0.4347  0.1213 -0.8446
 3249SOL    HW210129   2.741   2.854   5.017  0.3790  2.1673 -2.7477
 3250SOL     OW10130   1.482   2.706   1.828  0.0211 -0.3445 -0.1113
 3250SOL    HW110131   1.447   2.788   1.793 -2.2225 -1.9593 -1.7710
 3250SOL    HW210132   1.408   2.663   1.870  1.0884 -1.7150  0.4291
 3251SOL     OW10133   3.176   4.703   1.784 -0.0762  0.1504 -0.3393
 3251SOL    HW110134   3.107   4.704   1.718 -0.3130  1.5980 -0.1012
 3251SOL    HW210135   3.246   4.756   1.747  0.2000  0.1338  0.1451
 3252SOL     OW10136   2.951   3.362   4.940 -0.8484 -0.4030 -0.5265
 3252SOL    HW110137   2.934   3.457   4.942 -0.8822 -0.4285  1.1996
 3252SOL    HW210138   2.995   3.348   4.857 -1.8325  0.9632 -1.3074
 3253SOL     OW10139   0.872   5.116   1.883 -0.3543 -0.3055  0.1000
 3253SOL    HW110140   0.805   5.093   1.819 -0.0753 -0.2081 -0.2285
 3253SOL    HW210141   0.954   5.095   1.840 -0.0461  2.1377 -0.5678
 3254SOL     OW10142   0.414   2.421   4.382  0.0897  0.0230  0.3841
 3254SOL    HW110143   0.442   2.330   4.382 -0.2316 -0.0728  0.9567
 3254SOL    HW210144   0.359   2.430   4.459 -0.8190  0.4166 -0.3048
 3255SOL     OW10145   5.040   3.218   2.581  0.3665  0.9515 -0.4267
 3255SOL    HW110146   5.115   3.162   2.558 -0.1173 -0.5288  1.3895
 3255SOL    HW210147   5.000   3.240   2.498  1.6454  0.0479 -1.3053
 3256SOL     OW10148   6.010   0.779   5.419  0.0062  0.0129 -0.0912
 3256SOL    HW110149   5.945   0.789   5.488 -0.2989 -1.2198 -0.1910
 3256SOL    HW210150   6.076   0.846   5.439  0.2496 -0.7425  1.7622
 3257SOL     OW10151   5.295   5.470   6.222 -0.1451 -0.3858  0.4292
 3257SOL    HW110152   5.378   5.518   6.222 -1.8626  2.7727  1.1831
 3257SOL    HW210153   5.264   5.476   6.313 -0.8192 -2.2328  0.3412
 3258SOL     OW10154   1.091   2.774   4.198 -0.5002 -0.2450 -0.1312
 3258SOL    HW110155   1.005   2.809   4.218 -0.3302  0.5330 -0.7085
 3258SOL    HW210156   1.129   2.837   4.137  0.2754 -0.8418 -0.2840
 3259SOL     OW10157   5.619   6.204   2.830 -0.2959 -0.2771  0.3775
 3259SOL    HW110158   5.582   6.130   2.782  0.9241 -0.6277 -0.0317
 3259SOL    HW210159   5.580   6.282   2.789 -0.9362 -0.6563  0.2641
 3260SOL     OW10160   5.914   2.226   4.200 -0.0424 -0.0937  0.2839
 3260SOL    HW110161   5.900   2.151   4.258 -0.0221 -1.8094 -1.8682
 3260SOL    HW210162   5.994   2.267   4.232  1.5966 -2.7359 -0.2489
 3261SOL     OW10163   1.084   2.965   3.658  0.0161 -0.0145  0.1755
 3261SOL    HW110164   1.072   2.949   3.564 -0.1410  0.4815  0.1121
 3261SOL    HW210165   0.996   2.982   3.691  0.4021  2.9100 -0.1626
 3262SOL     OW10166   4.746   3.661   2.430 -0.0930  0.1497 -0.4198
 3262SOL    HW110167   4.720   3.720   2.359 -0.9883  0.5192  0.2051
 3262SOL    HW210168   4.696   3.691   2.505  1.6518  0.4556  0.6657
 3263SOL     OW10169   3.527   3.466   4.505  0.5528 -0.2025  0.0991
 3263SOL    HW110170   3.585   3.391   4.513 -0.9270 -1.6265 -2.0462
 3263SOL    HW210171   3.566   3.520   4.436  0.5572 -0.0064  0.2548
 3264SOL     OW10172   3.742   5.673   5.452  0.2514  0.0981  0.2846
 3264SOL    HW110173   3.818   5.727   5.429 -0.3537  0.9184  0.1888
 3264SOL    HW210174   3.666   5.729   5.436 -0.4347 -1.0235 -0.5116
 3265SOL     OW10175   5.479   3.529   4.811  0.3361 -0.4249  0.0046
 3265SOL    HW110176   5.385   3.528   4.827  0.7406 -0.8558  2.6591
 3265SOL    HW210177   5.503   3.436   4.806  0.8386 -0.3450  0.8582
 3266SOL     OW10178   4.706   6.271   0.370 -0.2989 -0.1340 -0.5508
 3266SOL    HW110179   4.704   6.282   0.465 -1.2966 -2.1653 -0.3253
 3266SOL    HW210180   4.794   6.239   0.351 -0.1067  0.2512 -0.3135
 3267SOL     OW10181   3.189   3.383   5.974  0.3812 -0.1459  0.3048
 3267SOL    HW110182   3.229   3.303   6.009 -0.6993 -0.3841  1.0260
 3267SOL    HW210183   3.219   3.453   6.033  2.8234  0.3031 -1.3965
 3268SOL     OW10184   2.844   4.360   1.913 -0.1968  0.0378 -0.1652
 3268SOL    HW110185   2.829   4.411   1.993  3.4778  0.0872  0.5555
 3268SOL    HW210186   2.843   4.425   1.842 -1.9363  0.1938 -0.0257
 3269SOL     OW10187   3.106   0.311   1.906 -0.3582  0.1280  0.2511
 3269SOL    HW110188   3.015   0.285   1.918 -0.6138  1.3421  1.0160
 3269SOL    HW210189   3.126   0.365   1.982  1.3096 -0.9291  0.5758
 3270SOL     OW10190   1.793   5.757   4.529  0.2288  0.2803  0.3258
 3270SOL    HW110191   1.815   5.844   4.496  0.8823 -0.2721 -0.7182
 3270SOL    HW210192   1.795   5.701   4.452  0.0693 -0.7085  1.0360
 3271SOL     OW10193   2.647   5.613   5.921  0.8335  0.1784 -0.2231
 3271SOL    HW110194   2.623   5.533   5.969  1.7237 -0.9739 -1.6743
 3271SOL    HW210195   2.717   5.652   5.974 -0.8495  1.0062  1.4686
 3272SOL     OW10196   0.668   3.571   1.428 -0.3846 -0.1920  0.0351
 3272SOL    HW110197   0.651   3.616   1.511 -0.4498 -0.8726  0.3887
 3272SOL    HW210198   0.679   3.642   1.365 -1.1036  0.3211  0.4729
 3273SOL     OW10199   2.262   0.436   6.074 -0.6555  0.4926  0.1947
 3273SOL    HW110200   2.206   0.500   6.118 -0.2209  0.2166  1.1625
 3273SOL    HW210201   2.344   0.482   6.058 -0.2913  0.1281  1.0261
 3274SOL     OW10202   1.639   3.826   1.847 -0.3592  0.2220  0.2599
 3274SOL    HW110203   1.648   3.735   1.817 -0.1300  0.6671 -1.0412
 3274SOL    HW210204   1.715   3.839   1.904 -0.5879 -0.5086  0.7473
 3275SOL     OW10205   0.755   2.001   4.181  0.0773 -0.4319 -0.3724
 3275SOL    HW110206   0.719   1.982   4.095 -1.5333  4.0749 -0.8283
 3275SOL    HW210207   0.846   2.025   4.165  0.5031 -2.0566 -0.4633
 3276SOL     OW10208   5.950   1.850   6.064 -0.0048  0.0396  0.1823
 3276SOL    HW110209   5.935   1.850   5.970 -1.6424  1.1671  0.4437
 3276SOL    HW210210   5.989   1.764   6.081 -0.2586 -0.4115 -1.4217
 3277SOL     OW10211   1.210   2.247   4.535 -0.3511  0.3240  0.4931
 3277SOL    HW110212   1.279   2.313   4.525 -1.4454  1.2988 -0.8236
 3277SOL    HW210213   1.230   2.180   4.470 -1.5377  1.4241 -1.0447
 3278SOL     OW10214   1.729   1.042   5.493 -0.1119 -0.3689  0.2192
 3278SOL    HW110215   1.814   1.023   5.453  1.0738  1.5810  1.7142
 3278SOL    HW210216   1.731   1.136   5.509 -3.8957  0.3088 -2.7074
 3279SOL     OW10217   4.656   3.179   2.174  0.3500 -0.1007  0.2894
 3279SOL    HW110218   4.562   3.166   2.159  0.1550  0.6016  0.8856
 3279SOL    HW210219   4.688   3.218   2.092 -0.0035  0.2537  0.3199
 3280SOL     OW10220   2.544   5.143   3.164  0.3327 -0.2004 -0.8520
 3280SOL    HW110221   2.611   5.132   3.096  0.6088 -0.4299 -0.5451
 3280SOL    HW210222   2.488   5.213   3.131  0.0642 -0.7717 -1.6429
 3281SOL     OW10223   2.505   5.628   4.708 -0.2381  0.2582 -0.1876
 3281SOL    HW110224   2.447   5.556   4.681 -1.3897  0.7704  0.8675
 3281SOL    HW210225   2.491   5.636   4.802 -1.3020  2.8691 -0.5367
 3282SOL     OW10226   0.237   6.108   2.808 -0.1286 -0.0898 -0.2286
 3282SOL    HW110227   0.316   6.142   2.765 -0.1460 -0.2048 -0.3495
 3282SOL    HW210228   0.266   6.087   2.897 -0.7984  3.0784  0.7979
 3283SOL     OW10229   5.308   6.126   2.929 -0.0804  0.0851  0.2161
 3283SOL    HW110230   5.371   6.091   2.866  2.0270  1.2793  1.6130
 3283SOL    HW210231   5.338   6.095   3.014 -1.0292  1.1880  0.9753
 3284SOL     OW10232   1.575   4.445   0.636  0.1868 -0.1070  0.1893
 3284SOL    HW110233   1.570   4.539   0.649 -2.6529 -0.2912  0.7910
 3284SOL    HW210234   1.489   4.412   0.664  0.1697 -2.5682 -2.4775
 3285SOL     OW10235   3.335   5.181   6.064 -0.3231  0.2138  0.1372
 3285SOL    HW110236   3.286   5.117   6.116 -0.1093 -0.6696 -0.7370
 3285SOL    HW210237   3.422   5.182   6.103  0.3786 -1.7850 -1.2959
 3286SOL     OW10238   1.429   1.930   1.439  0.3469 -0.1967 -0.7579
 3286SOL    HW110239   1.474   1.940   1.355 -0.0097 -0.2980 -0.9599
 3286SOL    HW210240   1.343   1.970   1.426 -0.5033 -2.0614 -1.0920
 3287SOL     OW10241   4.158   4.118   4.414 -0.0244  0.1506 -0.0037
 3287SOL    HW110242   4.196   4.195   4.372 -2.2710  2.2808  1.6868
 3287SOL    HW210243   4.202   4.112   4.499  0.2456 -0.5133 -0.1858
 3288SOL     OW10244   5.780   0.923   2.055 -0.2684 -0.3775  0.1288
 3288SOL    HW110245   5.705   0.940   2.112  1.5969  2.3481  1.8733
 3288SOL    HW210246   5.787   1.002   2.001  0.8480 -0.9785 -0.6191
 3289SOL     OW10247   3.273   3.160   2.359  0.6492 -0.3308 -0.0020
 3289SOL    HW110248   3.368   3.168   2.353  0.5199  1.1769 -0.3400
 3289SOL    HW210249   3.248   3.221   2.428 -0.2979  1.2960 -1.7273
 3290SOL     OW10250   4.058   2.434   2.824 -0.4178  0.2755 -0.4527
 3290SOL    HW110251   4.029   2.458   2.912 -1.1101  0.6704 -0.7903
 3290SOL    HW210252   4.150   2.462   2.821 -0.9227  1.9811 -0.4991
 3291SOL     OW10253   0.852   4.176   1.321 -0.4951 -0.0758 -0.1055
 3291SOL    HW110254   0.934   4.211   1.356 -0.7352 -0.2115  0.5972
 3291SOL    HW210255   0.849   4.086   1.352 -1.3282  0.1866  0.5865
 3292SOL     OW10256   1.921   6.343   2.311 -0.1546 -0.6875  0.0361
 3292SOL    HW110257   1.867   6.342   2.390 -0.2567 -1.0672 -0.0380
 3292SOL    HW210258   1.875   6.403   2.252  0.2110  0.0136  0.4656
 3293SOL     OW10259   3.294   0.751   5.600  0.2000  0.5679 -0.4358
 3293SOL    HW110260   3.202   0.775   5.617 -0.0660 -0.0241 -1.0139
 3293SOL    HW210261   3.297   0.658   5.618  1.0802  0.9003  1.1697
 3294SOL     OW10262   3.727   2.380   4.708  0.4965 -0.1944  0.2331
 3294SOL    HW110263   3.657   2.440   4.682  1.2743 -0.2694 -2.2053
 3294SOL    HW210264   3.786   2.434   4.761  0.6169  0.9259 -1.0100
 3295SOL     OW10265   4.224   3.467   2.991 -0.1610 -0.6242  0.5637
 3295SOL    HW110266   4.196   3.380   3.019 -0.4693 -0.4239  0.8813
 3295SOL    HW210267   4.147   3.522   3.003  0.4790  0.0145  1.8360
 3296SOL     OW10268   2.222   2.025   6.007 -0.3784  0.4003  0.2044
 3296SOL    HW110269   2.184   2.112   5.991  0.6666  1.2546  2.1287
 3296SOL    HW210270   2.313   2.043   6.029 -0.0668 -1.2225  0.3023
 3297SOL     OW10271   3.549   2.728   2.464 -0.3430 -0.0603 -0.4801
 3297SOL    HW110272   3.584   2.810   2.496  0.0886 -0.2054 -0.5848
 3297SOL    HW210273   3.463   2.720   2.507  0.7294 -0.8447  1.5797
 3298SOL     OW10274   4.660   5.602   3.507  0.3443  0.3441  0.0414
 3298SOL    HW110275   4.682   5.591   3.414 -1.2889  1.2968 -0.4861
 3298SOL    HW210276   4.565   5.608   3.508  0.3007 -0.3668  1.8787
 3299SOL     OW10277   2.593   3.718   5.609 -0.1660  0.3624 -0.6503
 3299SOL    HW110278   2.656   3.746   5.543  0.8222  1.0605  0.5447
 3299SOL    HW210279   2.641   3.725   5.692 -1.2589 -0.8059  0.1159
 3300SOL     OW10280   3.080   5.946   0.296 -0.1480  0.1130 -0.4730
 3300SOL    HW110281   3.153   5.884   0.295 -0.7493 -0.6314  0.2126
 3300SOL    HW210282   3.035   5.927   0.379 -0.6908  1.0630 -0.5457
 3301SOL     OW10283   4.998   2.503   2.675  0.3423 -0.2476  0.2124
 3301SOL    HW110284   4.987   2.504   2.771  0.2317 -0.6330  0.2055
 3301SOL    HW210285   4.913   2.533   2.642 -0.0530 -1.3145  0.2103
 3302SOL     OW10286   4.158   5.846   5.725  0.1586  0.0576 -1.0047
 3302SOL    HW110287   4.210   5.766   5.731  1.4920  0.9873  0.2217
 3302SOL    HW210288   4.175   5.892   5.807 -0.5754  1.6089 -1.6919
 3303SOL     OW10289   1.882   4.874   0.455 -0.2117 -0.3538  0.5041
 3303SOL    HW110290   1.823   4.906   0.523 -0.3550  1.1437 -0.3132
 3303SOL    HW210291   1.851   4.786   0.435 -0.4262 -0.6388  2.0757
 3304SOL     OW10292   5.405   1.498   5.639 -0.1400 -0.8364 -0.1466
 3304SOL    HW110293   5.356   1.528   5.562 -0.1316  1.0597  0.5728
 3304SOL    HW210294   5.339   1.489   5.708  0.4441  1.4957  0.7567
 3305SOL     OW10295   2.398   5.046   4.365  0.1484 -0.1288  0.4410
 3305SOL    HW110296   2.347   4.990   4.424  1.0712 -0.7822  0.6314
 3305SOL    HW210297   2.365   5.025   4.278 -0.4390  0.0174  0.6255
 3306SOL     OW10298   5.187   4.870   1.378  0.2502  0.3256  0.7861
 3306SOL    HW110299   5.250   4.940   1.365 -0.2651  0.6106 -0.2149
 3306SOL    HW210300   5.136   4.868   1.297 -0.9277  0.0030  1.5288
 3307SOL     OW10301   5.648   3.204   2.442 -0.1149  0.0498  0.5948
 3307SOL    HW110302   5.566   3.234   2.403  0.9462  1.5717 -0.5660
 3307SOL    HW210303   5.637   3.219   2.536 -1.1990  0.1746  0.4533
 3308SOL     OW10304   2.591   5.727   3.701 -0.2629 -1.0810  0.0378
 3308SOL    HW110305   2.618   5.741   3.610 -0.3358 -2.0135 -0.1287
 3308SOL    HW210306   2.673   5.713   3.748 -0.0123  1.9278  0.5855
 3309SOL     OW10307   0.097   5.920   5.814  0.7815 -0.2642 -0.2601
 3309SOL    HW110308   0.181   5.874   5.819  0.1767 -1.3831 -0.2415
 3309SOL    HW210309   0.041   5.876   5.879  0.0560  0.2111 -0.5513
 3310SOL     OW10310   0.207   6.147   4.964 -0.2623 -0.0531  0.3419
 3310SOL    HW110311   0.300   6.154   4.940  0.4440 -2.6574  2.0613
 3310SOL    HW210312   0.201   6.190   5.049 -0.9034  1.2461 -0.3571
 3311SOL     OW10313   3.873   2.646   3.498 -0.3894 -0.0786  0.0550
 3311SOL    HW110314   3.828   2.624   3.580 -0.2657  1.2399  0.4885
 3311SOL    HW210315   3.856   2.739   3.486  2.4237  0.5128  0.3373
 3312SOL     OW10316   0.484   3.080   3.857 -0.7675 -0.2496 -0.4023
 3312SOL    HW110317   0.436   3.151   3.900  0.0069 -0.0061  0.0814
 3312SOL    HW210318   0.539   3.125   3.793  0.2909 -0.3368  0.4371
 3313SOL     OW10319   4.419   5.001   0.956 -0.7217  0.1886 -0.2344
 3313SOL    HW110320   4.437   5.095   0.953 -0.3883  0.1034 -3.8397
 3313SOL    HW210321   4.464   4.970   1.035  3.2875  2.2995 -1.5164
 3314SOL     OW10322   4.601   3.784   2.085 -0.0586 -0.4518 -0.9792
 3314SOL    HW110323   4.629   3.700   2.048  1.2549 -0.0540 -0.9155
 3314SOL    HW210324   4.678   3.815   2.133 -0.9821  0.1606  0.1155
 3315SOL     OW10325   1.498   2.559   1.197  0.1744  0.4412 -0.1234
 3315SOL    HW110326   1.585   2.555   1.235 -0.1627 -3.9848  0.4774
 3315SOL    HW210327   1.504   2.508   1.116 -1.6947  0.5073 -0.3415
 3316SOL     OW10328   6.300   1.133   2.753 -0.0578 -0.0154  0.0875
 3316SOL    HW110329   6.378   1.082   2.772  0.1892  0.4657  0.3534
 3316SOL    HW210330   6.301   1.144   2.657  0.6240  0.6636  0.1669
 3317SOL     OW10331   0.996   1.054   0.802 -0.1635 -0.0370  0.0738
 3317SOL    HW110332   1.070   1.088   0.753 -1.4965  1.5392 -0.9169
 3317SOL    HW210333   0.991   0.962   0.777  0.8856  0.0851 -0.5925
 3318SOL     OW10334   2.983   5.129   1.497  0.2394 -0.2685  0.1392
 3318SOL    HW110335   2.907   5.103   1.549  0.8255  0.5999  1.4510
 3318SOL    HW210336   3.058   5.091   1.544  0.7743  0.5220 -0.0708
 3319SOL     OW10337   1.611   2.933   4.996  0.3606  0.2976  0.3002
 3319SOL    HW110338   1.602   2.988   4.919  0.6239 -0.1387 -0.0408
 3319SOL    HW210339   1.647   2.851   4.963  0.1804  0.0017  0.8401
 3320SOL     OW10340   3.864   0.993   4.148 -1.0501  0.1166 -0.2383
 3320SOL    HW110341   3.915   1.019   4.224 -1.8666  0.3877  0.2256
 3320SOL    HW210342   3.873   1.066   4.086  0.7162 -0.6848 -0.9711
 3321SOL     OW10343   2.019   2.096   3.429  0.4579  0.0864 -0.1006
 3321SOL    HW110344   2.018   2.009   3.469  1.5827 -0.5325 -1.3423
 3321SOL    HW210345   1.974   2.085   3.345 -0.1905  0.9073  0.1360
 3322SOL     OW10346   0.647   5.605   5.360 -0.8438  0.2069 -0.1187
 3322SOL    HW110347   0.664   5.665   5.432  1.4024 -0.2527 -0.2476
 3322SOL    HW210348   0.721   5.545   5.360 -0.2885  0.7896 -3.4041
 3323SOL     OW10349   3.290   1.755   6.052 -0.4325 -0.7088 -0.8552
 3323SOL    HW110350   3.274   1.842   6.018 -1.8588 -1.2158 -1.4956
 3323SOL    HW210351   3.385   1.749   6.060 -0.3381  0.9405 -0.6738
 3324SOL     OW10352   1.667   4.338   2.417  0.3749  0.1281  0.1846
 3324SOL    HW110353   1.706   4.357   2.503  0.7924 -0.9335  0.2331
 3324SOL    HW210354   1.613   4.415   2.398  1.0577  0.8039  0.9471
 3325SOL     OW10355   6.198   5.511   0.228 -0.4798  0.0051  0.2131
 3325SOL    HW110356   6.231   5.534   0.141 -0.5933 -1.8108 -0.3188
 3325SOL    HW210357   6.273   5.525   0.286 -0.1922  0.5117 -0.2756
 3326SOL     OW10358   2.859   2.921   0.441 -0.2589 -0.4212  0.5831
 3326SOL    HW110359   2.796   2.865   0.397 -0.2854  0.7736 -0.9172
 3326SOL    HW210360   2.865   2.999   0.387 -0.4331  1.1764  2.7928
 3327SOL     OW10361   4.241   0.929   4.919 -0.1196  0.1997 -0.5364
 3327SOL    HW110362   4.318   0.970   4.880 -0.0540  0.5132 -0.0796
 3327SOL    HW210363   4.269   0.901   5.006 -0.9961  1.9413  0.3539
 3328SOL     OW10364   2.486   0.051   3.089 -0.5808 -0.4001 -0.0786
 3328SOL    HW110365   2.421  -0.010   3.123  0.9887 -1.8024  0.4736
 3328SOL    HW210366   2.561   0.041   3.146  0.6062  0.2464 -1.4859
 3329SOL     OW10367   2.252   4.309   1.561  0.3057  0.2086  0.5567
 3329SOL    HW110368   2.199   4.230   1.565  0.1160  0.2620 -0.8737
 3329SOL    HW210369   2.334   4.285   1.605  0.8370 -1.2534 -1.1867
 3330SOL     OW10370   1.987   2.254   2.343  0.3484 -0.0971  0.0861
 3330SOL    HW110371   1.949   2.319   2.285 -1.4000 -2.9963 -2.1363
 3330SOL    HW210372   1.921   2.242   2.412  0.4185  0.0381  0.1780
 3331SOL     OW10373   2.866   6.073   3.194 -0.1605  0.3278 -0.0170
 3331SOL    HW110374   2.936   6.074   3.258 -0.2559  0.3404  0.0878
 3331SOL    HW210375   2.792   6.116   3.238 -0.0328  0.9015 -0.3626
 3332SOL     OW10376   5.202   0.240   2.787 -0.6444 -0.0700 -0.3793
 3332SOL    HW110377   5.107   0.229   2.779 -0.5417 -2.3389  1.0452
 3332SOL    HW210378   5.213   0.328   2.823 -2.1269  0.6447 -1.5909
 3333SOL     OW10379   6.194   0.363   5.548  0.7040 -0.3661  0.4154
 3333SOL    HW110380   6.130   0.386   5.615  0.3082 -2.0825  0.6745
 3333SOL    HW210381   6.166   0.409   5.469 -1.3910 -1.8003  0.2895
 3334SOL     OW10382   2.216   2.306   3.420  0.6791 -0.2019  0.1355
 3334SOL    HW110383   2.135   2.255   3.413  1.4757 -1.5626  0.7220
 3334SOL    HW210384   2.195   2.375   3.482 -0.4611  0.3088 -0.7954
 3335SOL     OW10385   5.488   3.761   4.644  0.1950 -0.0016  0.1752
 3335SOL    HW110386   5.418   3.755   4.579 -0.0140  0.5714  0.3483
 3335SOL    HW210387   5.486   3.677   4.690 -1.3300  0.5556  1.1644
 3336SOL     OW10388   3.866   2.583   5.563  0.6556 -0.3317  0.1314
 3336SOL    HW110389   3.775   2.567   5.537  0.3592 -0.2358  1.1090
 3336SOL    HW210390   3.908   2.617   5.483  0.0798 -1.3046 -0.5935
 3337SOL     OW10391   5.503   1.993   5.486  0.1673  0.4700 -0.5510
 3337SOL    HW110392   5.526   1.931   5.417 -0.4620  0.8621 -1.1149
 3337SOL    HW210393   5.448   1.943   5.546  0.9660  0.0419 -0.1575
 3338SOL     OW10394   3.889   0.191   4.757 -0.0929  0.1075 -0.5877
 3338SOL    HW110395   3.933   0.110   4.733  0.4580  0.4642 -0.7829
 3338SOL    HW210396   3.957   0.245   4.795 -0.3843  0.6178 -0.7886
 3339SOL     OW10397   1.686   4.868   5.637  0.0212  0.0283  0.2444
 3339SOL    HW110398   1.654   4.796   5.691 -0.7490 -1.7038 -2.4019
 3339SOL    HW210399   1.618   4.935   5.643  0.2285  0.1002  1.8594
 3340SOL     OW10400   0.317   1.500   5.554 -0.7265  0.0603  0.1773
 3340SOL    HW110401   0.343   1.535   5.639 -0.0073  0.5733 -0.2403
 3340SOL    HW210402   0.388   1.527   5.495 -1.4238  0.0814 -0.6617
 3341SOL     OW10403   5.385   0.573   4.801 -0.7283 -0.4708  0.5112
 3341SOL    HW110404   5.394   0.515   4.876 -0.2782  0.3049  1.0566
 3341SOL    HW210405   5.463   0.628   4.803 -0.7917 -0.3371 -0.4302
 3342SOL     OW10406   0.905   2.975   2.971  0.0993  0.2926  0.0744
 3342SOL    HW110407   0.954   2.893   2.971  1.8727  1.3390  0.6795
 3342SOL    HW210408   0.879   2.988   3.062  0.1645  0.5937  0.0506
 3343SOL     OW10409   0.301   0.148   2.628 -0.2224 -0.1274 -0.1154
 3343SOL    HW110410   0.280   0.234   2.667 -0.9963 -0.3798  0.0447
 3343SOL    HW210411   0.218   0.120   2.588 -0.0413 -0.9165  0.0580
 3344SOL     OW10412   0.314   1.200   1.896  0.1358 -0.1601  0.0115
 3344SOL    HW110413   0.349   1.289   1.908 -0.8719  0.0896  1.2750
 3344SOL    HW210414   0.224   1.214   1.865  0.0673 -0.7424 -0.0546
 3345SOL     OW10415   4.714   4.538   2.375 -0.0057 -0.2480  0.3861
 3345SOL    HW110416   4.696   4.563   2.285  1.8902 -0.2325 -0.0011
 3345SOL    HW210417   4.627   4.534   2.416 -1.0077 -1.5506 -1.7636
 3346SOL     OW10418   1.497   4.213   3.306  0.2139  0.0266 -0.2609
 3346SOL    HW110419   1.435   4.283   3.325  0.7386  0.0365  1.4438
 3346SOL    HW210420   1.445   4.147   3.260 -1.0598  0.0632  1.0893
 3347SOL     OW10421   5.420   0.289   4.614 -0.5625 -0.6063 -0.2579
 3347SOL    HW110422   5.357   0.298   4.685  0.2671 -1.4802  0.6069
 3347SOL    HW210423   5.496   0.341   4.641 -0.3492 -0.7174 -0.6270
 3348SOL     OW10424   2.156   3.198   0.133 -0.3254  0.8499 -0.1246
 3348SOL    HW110425   2.203   3.203   0.050  1.6315  0.7361  0.9450
 3348SOL    HW210426   2.179   3.112   0.168 -0.7126  1.1182  0.7943
 3349SOL     OW10427   2.387   0.127   5.256 -0.3537 -0.5585  0.2880
 3349SOL    HW110428   2.461   0.084   5.212 -1.3711 -1.1042 -0.9173
 3349SOL    HW210429   2.423   0.210   5.286  1.4203 -1.8331  1.8908
 3350SOL     OW10430   3.153   6.225   0.985  0.5009 -0.2968  0.2755
 3350SOL    HW110431   3.242   6.250   1.011 -0.2822  1.8453  1.0675
 3350SOL    HW210432   3.099   6.245   1.062 -0.6205 -1.8566 -0.0911
 3351SOL     OW10433   6.032   2.844   1.803  0.0915 -0.2878 -0.6797
 3351SOL    HW110434   6.030   2.920   1.861 -0.4645 -0.1300 -0.9041
 3351SOL    HW210435   6.060   2.772   1.859  0.7182  0.1005 -0.4907
 3352SOL     OW10436   3.784   2.030   2.123  0.2776  0.2665 -0.0047
 3352SOL    HW110437   3.759   1.976   2.198  0.0091 -0.1278 -0.3732
 3352SOL    HW210438   3.795   2.118   2.159 -1.5110  0.4318  0.1870
 3353SOL     OW10439   5.320   4.015   6.126 -0.0922 -0.1342 -0.3922
 3353SOL    HW110440   5.412   3.993   6.143 -0.1677  0.3945  0.7382
 3353SOL    HW210441   5.314   4.019   6.030  1.4926  1.5509 -0.4649
 3354SOL     OW10442   5.570   1.154   1.189 -0.2026  0.4021 -0.3336
 3354SOL    HW110443   5.530   1.092   1.127  0.0207  0.8358 -0.9217
 3354SOL    HW210444   5.619   1.099   1.250  0.1214  0.0069 -0.9448
 3355SOL     OW10445   3.486   3.721   1.456 -0.1722  0.1166  0.3403
 3355SOL    HW110446   3.425   3.652   1.483  0.6280 -0.2214  1.3066
 3355SOL    HW210447   3.573   3.686   1.476  0.4199  0.2280 -1.8866
 3356SOL     OW10448   2.824   3.700   5.854  0.4463 -0.0405  0.1461
 3356SOL    HW110449   2.864   3.655   5.780 -1.9173 -2.9082  0.4857
 3356SOL    HW210450   2.880   3.679   5.928  0.2040 -1.1953  0.0113
 3357SOL     OW10451   4.597   2.919   3.333 -0.6734 -0.1665  0.3042
 3357SOL    HW110452   4.559   2.840   3.295 -0.8586 -0.4843  1.1351
 3357SOL    HW210453   4.676   2.889   3.378 -0.0721  0.3123 -0.4096
 3358SOL     OW10454   4.572   1.559   5.728 -0.5753 -0.4181 -0.1503
 3358SOL    HW110455   4.586   1.610   5.808  1.2480 -1.2212  0.0685
 3358SOL    HW210456   4.567   1.468   5.758 -0.9193 -0.6286 -0.8361
 3359SOL     OW10457   2.892   3.526   3.979  0.1292 -0.2634  0.6962
 3359SOL    HW110458   2.957   3.594   3.961 -1.4159  0.7814 -1.1659
 3359SOL    HW210459   2.913   3.456   3.918 -0.3755  0.0034  0.2120
 3360SOL     OW10460   0.503   4.601   1.068 -0.5887  0.6432 -0.0908
 3360SOL    HW110461   0.582   4.635   1.110 -0.0082 -0.3779 -0.3567
 3360SOL    HW210462   0.469   4.675   1.017  0.6744  0.8254 -0.6778
 3361SOL     OW10463   5.270   1.813   4.741  0.2376 -0.0541 -0.6804
 3361SOL    HW110464   5.332   1.778   4.804 -0.7585  0.8277  0.8167
 3361SOL    HW210465   5.314   1.804   4.656  1.4373 -1.5782  0.0860
 3362SOL     OW10466   3.044   1.027   1.559 -0.3251  0.0693  0.2923
 3362SOL    HW110467   3.125   1.039   1.608  0.0926  0.1878 -0.4263
 3362SOL    HW210468   3.071   1.018   1.468 -1.2673  1.9925 -0.1974
 3363SOL     OW10469   0.172   2.322   5.505 -0.0429  0.0277  0.0733
 3363SOL    HW110470   0.197   2.398   5.558 -1.2499  0.6590 -0.2263
 3363SOL    HW210471   0.139   2.360   5.423  0.0967 -0.8570 -0.3974
 3364SOL     OW10472   2.182   0.304   5.550 -0.0528  0.6688  0.1700
 3364SOL    HW110473   2.138   0.338   5.472  0.2962  0.2825 -0.1946
 3364SOL    HW210474   2.120   0.321   5.621 -1.3526 -1.0079 -0.5118
 3365SOL     OW10475   5.821   1.345   5.726 -0.1203  0.2903 -0.5091
 3365SOL    HW110476   5.817   1.432   5.688  0.4490  0.7556  0.4526
 3365SOL    HW210477   5.881   1.354   5.800  0.2344 -0.9991 -0.6155
 3366SOL     OW10478   0.001   6.127   1.472  0.1715 -0.6642 -0.3084
 3366SOL    HW110479   0.064   6.074   1.424  0.8491  0.2626 -0.4612
 3366SOL    HW210480   0.050   6.161   1.547 -0.1106  0.1343 -0.4734
 3367SOL     OW10481   5.940   4.331   3.149  0.0959 -0.0432 -0.4872
 3367SOL    HW110482   5.908   4.343   3.238  0.5467 -1.7361 -0.0755
 3367SOL    HW210483   5.864   4.301   3.100  0.4648 -1.8234 -0.0234
 3368SOL     OW10484   0.076   5.471   3.398 -0.4486 -0.1841 -0.0800
 3368SOL    HW110485   0.067   5.567   3.405 -0.9629 -0.2838  0.7192
 3368SOL    HW210486   0.160   5.458   3.354  0.5109  0.6196  1.4476
 3369SOL     OW10487   4.047   6.336   4.736 -0.3376  0.0754 -0.1963
 3369SOL    HW110488   4.024   6.297   4.652 -1.8832  1.2629 -0.3658
 3369SOL    HW210489   4.081   6.264   4.789 -1.0934 -1.0461 -1.2305
 3370SOL     OW10490   1.776   1.349   4.371 -0.1676 -0.1487  0.1688
 3370SOL    HW110491   1.806   1.396   4.449 -1.2065 -1.0253  1.1046
 3370SOL    HW210492   1.830   1.385   4.300  2.4424 -0.9890  1.6388
 3371SOL     OW10493   4.869   2.122   0.737  0.0802  0.2564  0.1141
 3371SOL    HW110494   4.777   2.113   0.764 -0.0148  0.4909 -0.1234
 3371SOL    HW210495   4.900   2.032   0.729  0.0044  0.1818  0.6465
 3372SOL     OW10496   0.243   1.872   4.291 -0.1999 -0.2861  0.2126
 3372SOL    HW110497   0.160   1.888   4.246 -0.3925  0.6111  0.8760
 3372SOL    HW210498   0.218   1.839   4.377  0.1808 -2.6998 -0.5822
 3373SOL     OW10499   1.591   6.304   2.763  0.0882  0.0186  0.2960
 3373SOL    HW110500   1.539   6.230   2.796 -1.0839  0.3078 -0.8503
 3373SOL    HW210501   1.659   6.316   2.829  1.0249 -2.8277 -0.0936
 3374SOL     OW10502   4.403   0.846   5.469  0.2758 -0.4675 -0.5757
 3374SOL    HW110503   4.383   0.937   5.449 -0.0208 -0.2654  0.5915
 3374SOL    HW210504   4.488   0.848   5.513 -0.8714 -0.4625  1.7160
 3375SOL     OW10505   0.358   2.280   5.197 -0.3515 -0.3228  0.6621
 3375SOL    HW110506   0.267   2.303   5.180 -0.5441  0.0706  2.1622
 3375SOL    HW210507   0.409   2.348   5.153 -0.8301  0.5844  1.5006
 3376SOL     OW10508   1.626   0.329   5.970  0.1756  0.7290  0.2889
 3376SOL    HW110509   1.563   0.261   5.946  2.7227 -0.9995 -1.8571
 3376SOL    HW210510   1.659   0.302   6.055 -0.4621  0.5008  0.4673
 3377SOL     OW10511   2.632   4.819   1.820 -0.0793  0.0218 -0.0662
 3377SOL    HW110512   2.605   4.858   1.737  0.5285 -1.9894 -1.2321
 3377SOL    HW210513   2.658   4.894   1.874  0.3771  1.2788 -1.9791
 3378SOL     OW10514   3.108   1.573   4.876  0.2833 -0.6492 -0.8176
 3378SOL    HW110515   3.093   1.480   4.894 -0.3348 -0.6136 -1.1558
 3378SOL    HW210516   3.115   1.578   4.781 -0.2819 -0.2627 -0.8396
 3379SOL     OW10517   6.189   5.014   3.274  0.2562  0.0631 -0.0690
 3379SOL    HW110518   6.268   5.064   3.257  0.6408 -0.6695 -0.4601
 3379SOL    HW210519   6.184   5.009   3.370  0.5617  0.2911 -0.0426
 3380SOL     OW10520   2.503   0.840   3.551 -0.2061 -0.1275  0.3611
 3380SOL    HW110521   2.529   0.829   3.459  2.8955  0.2846  1.1351
 3380SOL    HW210522   2.442   0.914   3.551  3.7889  3.3246 -0.7474
 3381SOL     OW10523   0.917   5.185   5.613  0.4802 -0.1694  0.4932
 3381SOL    HW110524   0.943   5.262   5.663 -2.5125  0.4010  1.2202
 3381SOL    HW210525   0.844   5.215   5.558 -0.4451 -2.3678  0.4685
 3382SOL     OW10526   1.072   0.094   5.036 -0.0408 -0.2189 -0.0726
 3382SOL    HW110527   1.164   0.069   5.030 -0.2813 -0.8424 -1.2703
 3382SOL    HW210528   1.053   0.137   4.953 -0.7677  0.1077  0.2620
 3383SOL     OW10529   4.951   1.040   4.261 -0.6009  0.1469 -0.2114
 3383SOL    HW110530   4.992   1.104   4.318 -0.6895  0.7644 -0.8335
 3383SOL    HW210531   4.951   1.081   4.174  0.1336 -1.0416 -0.7888
 3384SOL     OW10532   5.623   0.719   5.241 -0.6712  0.8242  0.3078
 3384SOL    HW110533   5.577   0.803   5.247  0.1603  1.2353  1.0230
 3384SOL    HW210534   5.623   0.685   5.331  0.8509  1.0638  0.4133
 3385SOL     OW10535   0.182   2.117   1.722  0.0960  0.2480  0.4598
 3385SOL    HW110536   0.144   2.034   1.695  0.5832  0.1413  0.0992
 3385SOL    HW210537   0.110   2.163   1.765 -0.6332  0.3234 -0.8199
 3386SOL     OW10538   4.757   2.974   1.703  0.2473 -0.8188  0.2783
 3386SOL    HW110539   4.707   3.017   1.772 -1.5701 -2.4070 -0.0099
 3386SOL    HW210540   4.821   2.920   1.749  0.7463  0.0941  0.6674
 3387SOL     OW10541   2.507   2.716   2.173  0.4075 -0.1399 -0.1890
 3387SOL    HW110542   2.544   2.794   2.132 -0.4636  1.2630  1.6253
 3387SOL    HW210543   2.421   2.707   2.130 -0.9485  1.9324  1.9456
 3388SOL     OW10544   4.468   5.446   5.275 -0.3833 -0.8317 -0.0528
 3388SOL    HW110545   4.504   5.362   5.303  0.0249 -0.7594 -0.3613
 3388SOL    HW210546   4.412   5.424   5.201 -0.1738 -0.8158 -0.2157
 3389SOL     OW10547   3.350   0.995   3.132 -0.3960  0.3715 -0.7033
 3389SOL    HW110548   3.368   1.050   3.056 -0.5451 -0.0594 -1.0487
 3389SOL    HW210549   3.344   1.056   3.205 -1.5918  0.9143 -1.2472
 3390SOL     OW10550   6.327   5.248   1.817  0.1640  0.1924  0.1557
 3390SOL    HW110551   6.413   5.218   1.847 -1.0646 -2.2787  1.2789
 3390SOL    HW210552   6.278   5.265   1.898 -1.1976 -0.7636 -0.4520
 3391SOL     OW10553   1.015   4.916   3.951 -0.7389 -0.0631  0.3165
 3391SOL    HW110554   1.047   4.827   3.937  0.1098  0.3136 -0.1258
 3391SOL    HW210555   0.961   4.935   3.874  1.0553  0.7024 -0.7574
 3392SOL     OW10556   0.907   5.707   4.462 -0.0254  0.0923 -0.3032
 3392SOL    HW110557   0.842   5.656   4.413  0.9133  0.2166 -1.6909
 3392SOL    HW210558   0.901   5.795   4.426 -0.1974  0.4866  0.6724
 3393SOL     OW10559   6.000   2.121   3.948 -0.7804 -0.2171 -0.3413
 3393SOL    HW110560   5.949   2.184   3.999 -1.0943 -1.0901  0.4236
 3393SOL    HW210561   6.002   2.158   3.860 -2.3959  0.0282 -0.2895
 3394SOL     OW10562   5.292   5.138   1.903 -0.3916 -0.0906  0.1898
 3394SOL    HW110563   5.381   5.137   1.869  0.4497 -0.1394  2.3175
 3394SOL    HW210564   5.240   5.096   1.835  1.0306  0.8245 -1.5077
 3395SOL     OW10565   3.636   3.357   2.614  0.2043 -0.1466 -1.0456
 3395SOL    HW110566   3.666   3.378   2.525  0.3283  1.7721 -0.5778
 3395SOL    HW210567   3.665   3.432   2.667  1.2117 -1.8173  0.8579
 3396SOL     OW10568   2.483   3.085   3.452 -0.2429  0.0590  0.9921
 3396SOL    HW110569   2.392   3.107   3.470 -0.5447 -0.8862  0.6486
 3396SOL    HW210570   2.513   3.040   3.531 -0.3200 -0.3786  0.7692
 3397SOL     OW10571   1.274   1.195   2.479  0.1329 -0.4576 -0.0084
 3397SOL    HW110572   1.289   1.233   2.566  0.8197  1.3763 -0.8975
 3397SOL    HW210573   1.338   1.125   2.472  0.6362 -0.0669  0.6405
 3398SOL     OW10574   4.026   5.510   1.684 -0.0663  0.1395  0.6560
 3398SOL    HW110575   4.093   5.562   1.729  0.6328 -0.5952  0.4805
 3398SOL    HW210576   4.000   5.564   1.609  3.1455 -1.1747 -1.5129
 3399SOL     OW10577   0.160   5.971   1.326  0.2230  0.1476  0.9009
 3399SOL    HW110578   0.124   6.000   1.242 -1.7150  1.0932  2.0215
 3399SOL    HW210579   0.252   5.951   1.307 -0.5309 -1.0193 -1.7371
 3400SOL     OW10580   1.309   5.605   6.157 -0.7075  0.6957  0.2464
 3400SOL    HW110581   1.388   5.565   6.120 -0.6053  1.5273 -0.4470
 3400SOL    HW210582   1.340   5.685   6.199 -1.2751  1.3643 -0.6068
 3401SOL     OW10583   5.732   1.168   1.921  0.2758 -0.6439  0.1359
 3401SOL    HW110584   5.641   1.189   1.898  0.5640 -0.5269 -0.9174
 3401SOL    HW210585   5.777   1.160   1.837  1.6000  0.8739  0.6610
 3402SOL     OW10586   0.906   6.286   5.386  0.0697  0.3364  0.3546
 3402SOL    HW110587   0.931   6.351   5.321  0.7130  0.8178  1.0699
 3402SOL    HW210588   0.972   6.217   5.379  0.4418  0.6352  0.8401
 3403SOL     OW10589   2.139   3.490   0.041 -0.3516 -0.3564 -0.0675
 3403SOL    HW110590   2.128   3.437  -0.038 -2.8069 -1.4514  0.9509
 3403SOL    HW210591   2.130   3.427   0.114  1.0526  0.7619  1.1061
 3404SOL     OW10592   5.009   4.119   0.743  0.3535  0.1056  0.5734
 3404SOL    HW110593   5.038   4.131   0.834  0.9873  0.4187  0.3298
 3404SOL    HW210594   5.015   4.025   0.728  2.3724  0.3034  0.1404
 3405SOL     OW10595   4.386   2.807   2.494 -0.7572  0.0310 -0.3353
 3405SOL    HW110596   4.397   2.731   2.437  0.3247  0.7704 -1.1282
 3405SOL    HW210597   4.467   2.812   2.544 -0.8723  0.6018 -0.2040
 3406SOL     OW10598   1.181   0.327   3.230  0.0862  0.3270  0.0734
 3406SOL    HW110599   1.164   0.236   3.257 -0.1670 -0.2548 -1.9543
 3406SOL    HW210600   1.126   0.339   3.153  0.4344  2.0916  0.0966
 3407SOL     OW10601   0.693   5.532   3.579  0.3892  0.0842  0.1503
 3407SOL    HW110602   0.723   5.496   3.496 -3.2388 -0.8509 -0.8649
 3407SOL    HW210603   0.734   5.478   3.646  2.1186 -0.1349 -1.0487
 3408SOL     OW10604   4.284   2.976   2.923  0.0403 -0.3453 -0.2021
 3408SOL    HW110605   4.312   3.020   3.003  0.6587  0.2861 -0.7703
 3408SOL    HW210606   4.295   3.041   2.854  0.3611 -1.1783 -0.9451
 3409SOL     OW10607   6.091   4.335   0.821  0.5176  0.1154 -0.3221
 3409SOL    HW110608   6.149   4.260   0.809  1.2409  0.7805 -1.1171
 3409SOL    HW210609   6.108   4.390   0.744  1.4363  2.0325  1.2051
 3410SOL     OW10610   1.073   3.071   6.069 -0.6150 -0.5094 -0.3262
 3410SOL    HW110611   1.139   3.120   6.020 -1.5764  1.4455  0.2873
 3410SOL    HW210612   1.052   2.997   6.013  1.4195 -0.6631 -0.9490
 3411SOL     OW10613   0.171   1.421   0.205 -0.3061 -0.3734  0.4547
 3411SOL    HW110614   0.077   1.427   0.219 -0.0199  2.8467  1.4981
 3411SOL    HW210615   0.184   1.446   0.114 -0.4103 -0.3501  0.4461
 3412SOL     OW10616   6.033   0.542   1.288 -0.2164 -0.0548 -0.4352
 3412SOL    HW110617   5.955   0.488   1.306 -0.2610  0.5134  1.2086
 3412SOL    HW210618   6.082   0.492   1.223 -0.3730 -2.0204  0.8774
 3413SOL     OW10619   5.292   1.693   6.234 -0.1876 -0.2405  0.1244
 3413SOL    HW110620   5.345   1.761   6.275 -1.7965  0.7451  0.6204
 3413SOL    HW210621   5.352   1.620   6.221  1.8764  1.6425 -1.4181
 3414SOL     OW10622   5.779   0.405   2.896  0.0843 -0.5671 -0.0086
 3414SOL    HW110623   5.859   0.450   2.922 -0.3315  0.5744 -0.6302
 3414SOL    HW210624   5.793   0.383   2.804  0.1893 -1.4945  0.2320
 3415SOL     OW10625   2.416   0.971   1.366 -0.1335 -0.1942  1.1958
 3415SOL    HW110626   2.427   1.044   1.305 -0.1533 -0.9272  0.2839
 3415SOL    HW210627   2.346   0.918   1.326  0.3023 -1.0169  1.5268
 3416SOL     OW10628   2.213   5.347   0.976  0.3282 -0.6676  0.3247
 3416SOL    HW110629   2.252   5.260   0.968  0.3807 -0.5632 -0.6692
 3416SOL    HW210630   2.276   5.406   0.934  1.8431  0.3292  3.8564
 3417SOL     OW10631   0.333   4.186   5.111  0.1258 -0.2204  0.3843
 3417SOL    HW110632   0.278   4.197   5.188 -0.3049 -1.0612  0.2053
 3417SOL    HW210633   0.334   4.272   5.069  1.7069  0.6794  2.2146
 3418SOL     OW10634   1.434   3.413   0.096  0.3066  0.4209 -0.1195
 3418SOL    HW110635   1.373   3.414   0.170 -0.5679  3.2581 -0.8047
 3418SOL    HW210636   1.519   3.391   0.134 -0.7126 -1.4323  1.1838
 3419SOL     OW10637   4.023   1.096   0.227 -0.5024 -0.9251 -0.1200
 3419SOL    HW110638   4.097   1.150   0.256  0.9165 -1.8746 -1.8970
 3419SOL    HW210639   3.963   1.097   0.301  0.6658  0.9874  0.8441
 3420SOL     OW10640   0.346   3.054   2.520 -0.5555 -0.0524 -0.2522
 3420SOL    HW110641   0.305   2.992   2.581 -0.2963 -0.0488 -0.0753
 3420SOL    HW210642   0.334   3.014   2.434  0.4279 -0.8041 -0.0499
 3421SOL     OW10643   4.313   5.212   4.122 -0.7747 -0.5036 -0.2920
 3421SOL    HW110644   4.278   5.282   4.067  0.0172 -0.5076 -0.8197
 3421SOL    HW210645   4.406   5.233   4.129 -0.5271 -1.5423 -0.5010
 3422SOL     OW10646   0.707   1.642   2.592 -0.2531  0.4113  0.3761
 3422SOL    HW110647   0.692   1.730   2.627 -0.8249  0.3632  0.2556
 3422SOL    HW210648   0.651   1.585   2.645 -1.5100  0.4014 -0.9215
 3423SOL     OW10649   0.652   2.983   2.370  0.1175 -0.9913  0.5901
 3423SOL    HW110650   0.667   3.049   2.438 -0.1451 -1.4346  1.0749
 3423SOL    HW210651   0.561   2.994   2.345  0.3571 -0.4736 -0.0680
 3424SOL     OW10652   2.272   4.183   3.050 -0.2078  0.6710  0.3619
 3424SOL    HW110653   2.297   4.230   2.970 -1.2395  1.4231  0.4697
 3424SOL    HW210654   2.177   4.187   3.052 -0.1530  1.8802  2.3416
 3425SOL     OW10655   3.259   5.428   5.525  0.0042 -0.3743  0.0105
 3425SOL    HW110656   3.284   5.387   5.442  0.3838 -0.6900  0.2729
 3425SOL    HW210657   3.315   5.384   5.590 -0.5433 -0.3841  0.4765
 3426SOL     OW10658   5.263   0.430   5.928 -0.5402 -0.0967 -0.3206
 3426SOL    HW110659   5.249   0.466   5.840 -1.3026 -2.2372 -1.1099
 3426SOL    HW210660   5.209   0.484   5.986 -0.2945  1.1192 -1.2076
 3427SOL     OW10661   1.458   3.125   2.528  0.4549  0.0612 -0.5254
 3427SOL    HW110662   1.368   3.106   2.553  0.6587 -1.5933 -0.9889
 3427SOL    HW210663   1.505   3.132   2.611 -0.1530  1.2071 -0.2737
 3428SOL     OW10664   0.107   3.377   5.211  0.1379 -0.0557  0.2713
 3428SOL    HW110665   0.090   3.472   5.216 -2.1090 -0.3835 -0.5957
 3428SOL    HW210666   0.147   3.364   5.125  0.5822  0.1169  0.4500
 3429SOL     OW10667   0.302   1.542   4.221  0.1082 -0.2772 -0.0150
 3429SOL    HW110668   0.216   1.563   4.257  0.1234 -0.9858  0.4421
 3429SOL    HW210669   0.355   1.519   4.297  0.6974  0.1468 -0.2979
 3430SOL     OW10670   5.439   5.984   2.734 -0.1724  0.0282  0.1456
 3430SOL    HW110671   5.494   5.929   2.679  0.0213 -0.2532  0.6126
 3430SOL    HW210672   5.351   5.973   2.700  0.1461  0.9953 -1.0249
 3431SOL     OW10673   4.472   0.744   1.904  0.7016 -0.3019  0.3655
 3431SOL    HW110674   4.472   0.649   1.890 -0.1658 -0.3867  0.9316
 3431SOL    HW210675   4.492   0.755   1.996  2.0745  0.1184  0.0285
 3432SOL     OW10676   4.755   4.591   5.691  0.3243 -0.0587  0.7233
 3432SOL    HW110677   4.828   4.648   5.665  0.4312 -1.0079 -1.1960
 3432SOL    HW210678   4.682   4.651   5.704  0.6419  0.6276 -0.4786
 3433SOL     OW10679   0.554   4.302   5.767 -0.6528  0.6358 -0.0308
 3433SOL    HW110680   0.590   4.316   5.855 -0.6805  2.7678 -0.3346
 3433SOL    HW210681   0.630   4.289   5.711 -0.6368 -0.7810  0.2952
 3434SOL     OW10682   0.461   4.274   2.893  0.4667  0.1156  0.0728
 3434SOL    HW110683   0.493   4.206   2.833  1.2732 -0.0602  0.6832
 3434SOL    HW210684   0.515   4.263   2.971 -0.0498  0.8489  0.5351
 3435SOL     OW10685   4.957   5.806   0.208 -0.0377  0.5391  0.3814
 3435SOL    HW110686   4.958   5.881   0.149 -1.6922  0.4198  0.1757
 3435SOL    HW210687   4.912   5.737   0.159  1.7342 -0.6970  0.4497
 3436SOL     OW10688   1.994   3.687   5.057  0.4113  0.0899  0.3827
 3436SOL    HW110689   1.988   3.782   5.048  1.5751  0.1703  0.4024
 3436SOL    HW210690   2.013   3.673   5.150  1.9917 -0.0558  0.0619
 3437SOL     OW10691   4.279   4.813   4.627 -0.3373  0.1962  0.2687
 3437SOL    HW110692   4.285   4.718   4.634 -0.0750  0.3268  2.2314
 3437SOL    HW210693   4.332   4.835   4.550  1.3176 -1.0840  0.9973
 3438SOL     OW10694   5.304   2.457   1.174  0.0558  0.2886 -0.0281
 3438SOL    HW110695   5.223   2.464   1.225 -0.1062  0.0928 -0.2540
 3438SOL    HW210696   5.374   2.467   1.239 -0.1409 -0.7772  0.3739
 3439SOL     OW10697   2.558   3.763   2.683  0.1363  0.1594 -0.1128
 3439SOL    HW110698   2.583   3.737   2.772 -1.8552  0.9318  0.7088
 3439SOL    HW210699   2.597   3.697   2.626  1.0369 -0.6079  1.3767
 3440SOL     OW10700   0.589   3.190   4.807 -0.2694 -0.2993 -0.2181
 3440SOL    HW110701   0.566   3.281   4.824  1.7901  0.2287 -0.1462
 3440SOL    HW210702   0.654   3.194   4.737  0.1233 -1.6754  0.0453
 3441SOL     OW10703   1.970   4.071   4.096 -0.6311  0.4118 -0.0206
 3441SOL    HW110704   1.947   4.164   4.085 -0.1542  0.8908  2.6041
 3441SOL    HW210705   2.061   4.072   4.126 -0.7308 -0.8765  0.3498
 3442SOL     OW10706   4.523   4.420   6.163 -0.0015  0.2992  0.1610
 3442SOL    HW110707   4.505   4.398   6.255  1.1799 -1.5062 -0.0143
 3442SOL    HW210708   4.592   4.486   6.168  1.1684 -0.9139  0.5720
 3443SOL     OW10709   3.919   1.394   0.813  1.2251  0.4087  0.1970
 3443SOL    HW110710   4.006   1.357   0.803  0.9717 -0.2336  0.3702
 3443SOL    HW210711   3.874   1.373   0.731  0.7999 -0.4313  0.6396
 3444SOL     OW10712   1.535   5.519   1.370  0.0464 -0.7274 -0.2138
 3444SOL    HW110713   1.622   5.503   1.405 -0.0357 -1.2045 -0.2257
 3444SOL    HW210714   1.490   5.569   1.439  0.4227 -0.2244 -0.3329
 3445SOL     OW10715   5.494   0.426   0.952 -0.2013  0.2964 -0.0788
 3445SOL    HW110716   5.462   0.421   1.042  0.5579 -1.1777  0.1232
 3445SOL    HW210717   5.416   0.444   0.899 -1.1050 -1.6462  0.5753
 3446SOL     OW10718   5.242   6.173   3.971 -0.4148  0.1047  0.5219
 3446SOL    HW110719   5.220   6.213   4.055 -0.0658 -0.3625  0.8384
 3446SOL    HW210720   5.207   6.234   3.905  0.9528  1.4098  0.9830
 3447SOL     OW10721   2.238   3.857   0.741 -0.3154 -0.0772 -0.4265
 3447SOL    HW110722   2.309   3.795   0.723  0.0847  0.1433  0.3642
 3447SOL    HW210723   2.218   3.895   0.655  1.1676  0.5494 -0.5214
 3448SOL     OW10724   4.870   5.113   1.520 -0.6686 -0.0886 -0.1961
 3448SOL    HW110725   4.821   5.138   1.599  0.0770  0.3175  0.1369
 3448SOL    HW210726   4.955   5.156   1.530  0.1718 -1.7058 -0.2409
 3449SOL     OW10727   1.167   2.234   2.514  0.6264 -0.0144  0.2780
 3449SOL    HW110728   1.146   2.316   2.470  0.9382 -0.2050 -0.2297
 3449SOL    HW210729   1.261   2.222   2.501  0.7615  0.0159  1.1538
 3450SOL     OW10730   1.558   3.767   0.286  0.4666  0.9251  0.4242
 3450SOL    HW110731   1.497   3.803   0.350 -0.5774 -0.3472  0.1604
 3450SOL    HW210732   1.586   3.842   0.234  1.1150  1.9337  2.1829
 3451SOL     OW10733   3.169   1.951   0.017 -0.5862  0.0726  0.3655
 3451SOL    HW110734   3.106   2.022   0.004  1.9832  2.4373  0.3818
 3451SOL    HW210735   3.227   1.983   0.086  1.1547 -1.6951 -0.2376
 3452SOL     OW10736   6.189   4.552   2.252 -0.0636 -0.4184 -0.1581
 3452SOL    HW110737   6.148   4.503   2.181  0.1007  1.2196 -1.3943
 3452SOL    HW210738   6.282   4.555   2.230 -0.1777  1.0926 -0.4944
 3453SOL     OW10739   1.811   1.514   6.193  0.0791  0.2949 -0.2601
 3453SOL    HW110740   1.790   1.592   6.140 -0.3542  0.6548  0.4319
 3453SOL    HW210741   1.883   1.542   6.250 -1.4550  0.8347  1.4496
 3454SOL     OW10742   1.446   2.407   6.252 -0.7103  0.4269  0.0561
 3454SOL    HW110743   1.473   2.481   6.198  0.1853  0.0636  0.0014
 3454SOL    HW210744   1.425   2.338   6.189 -0.4964  0.2812  0.1455
 3455SOL     OW10745   5.103   2.150   0.315 -0.0463  0.1895 -0.2850
 3455SOL    HW110746   5.021   2.187   0.346 -0.9797 -1.2948 -0.9395
 3455SOL    HW210747   5.170   2.189   0.372 -1.3104  0.5563  0.9799
 3456SOL     OW10748   4.738   3.606   0.542  0.1835 -0.5558  0.8575
 3456SOL    HW110749   4.767   3.634   0.455 -0.2039 -2.6187  0.0474
 3456SOL    HW210750   4.818   3.575   0.585  0.1873 -0.5723  0.8385
 3457SOL     OW10751   0.198   1.702   5.126 -0.6991 -0.2495  0.0307
 3457SOL    HW110752   0.289   1.702   5.096 -0.9609 -0.2000 -0.7913
 3457SOL    HW210753   0.146   1.694   5.045 -1.3559 -3.4675  0.7187
 3458SOL     OW10754   2.236   2.507   2.271  0.1841 -0.3697 -0.4616
 3458SOL    HW110755   2.208   2.587   2.227 -1.1848 -1.0357 -0.8431
 3458SOL    HW210756   2.209   2.519   2.362 -1.5247 -1.0647 -0.8558
 3459SOL     OW10757   5.895   1.340   5.377  0.1697  0.4534 -0.6688
 3459SOL    HW110758   5.840   1.266   5.353  0.3707  0.2235 -0.4102
 3459SOL    HW210759   5.841   1.417   5.359 -0.5082  0.2031  0.3119
 3460SOL     OW10760   0.700   5.206   2.210  0.2930  0.2535  0.2575
 3460SOL    HW110761   0.742   5.286   2.241 -1.3359  0.7470  1.2052
 3460SOL    HW210762   0.660   5.230   2.127 -0.1678  0.4199  0.5261
 3461SOL     OW10763   4.749   5.240   6.207  0.0450 -0.2465 -0.2665
 3461SOL    HW110764   4.811   5.260   6.137 -1.3678  0.3339 -1.3819
 3461SOL    HW210765   4.790   5.276   6.286  1.0278  0.2985 -1.0143
 3462SOL     OW10766   4.990   3.672   6.116 -0.5261 -0.0739 -0.5324
 3462SOL    HW110767   4.947   3.608   6.061  1.8703 -3.5979  1.5031
 3462SOL    HW210768   4.962   3.650   6.205  1.3153  0.9322  0.3244
 3463SOL     OW10769   3.470   6.097   3.283  0.1346  0.4677 -0.1499
 3463SOL    HW110770   3.426   6.146   3.214 -0.6862 -0.1647 -0.0932
 3463SOL    HW210771   3.405   6.032   3.311  0.1066  1.3066  1.8292
 3464SOL     OW10772   2.707   2.067   2.613 -0.1268  0.0619 -0.0463
 3464SOL    HW110773   2.648   2.132   2.574  0.6430  0.5067 -0.4798
 3464SOL    HW210774   2.653   1.988   2.622 -0.7807  0.4587 -0.4580
 3465SOL     OW10775   2.191   0.495   4.828 -0.6708  0.1635 -0.4462
 3465SOL    HW110776   2.098   0.477   4.815 -0.4606 -0.8126 -0.6739
 3465SOL    HW210777   2.197   0.590   4.831 -1.4625  0.2819 -2.1365
 3466SOL     OW10778   4.762   2.943   1.262  0.3122  0.2875 -0.0672
 3466SOL    HW110779   4.731   2.859   1.230  1.6705 -0.0513 -0.5345
 3466SOL    HW210780   4.693   3.005   1.238 -0.5067 -0.6156 -0.0752
 3467SOL     OW10781   2.444   0.037   6.129 -0.2875  0.5438 -0.3888
 3467SOL    HW110782   2.518   0.079   6.172 -1.0108  0.7166  0.6776
 3467SOL    HW210783   2.425   0.093   6.053  0.8085  0.3739 -0.8013
 3468SOL     OW10784   4.325   3.413   2.048  0.4913  0.0308  0.2774
 3468SOL    HW110785   4.304   3.449   2.135  0.7152  1.9629 -0.4579
 3468SOL    HW210786   4.247   3.363   2.024 -0.9035  2.1808  0.1922
 3469SOL     OW10787   0.091   0.370   5.610  0.2548 -0.2346 -0.5126
 3469SOL    HW110788   0.001   0.343   5.592 -0.7805  1.6179  1.5189
 3469SOL    HW210789   0.145   0.308   5.563 -2.1152 -0.3102 -3.2512
 3470SOL     OW10790   4.825   3.284   1.496  0.1570  0.1497  0.0523
 3470SOL    HW110791   4.876   3.204   1.510  0.0183  0.1284  0.4350
 3470SOL    HW210792   4.878   3.353   1.538 -0.7142 -0.0578  1.5464
 3471SOL     OW10793   0.932   1.670   5.781  0.0722  0.2546 -0.4499
 3471SOL    HW110794   0.910   1.607   5.850  1.4064 -1.4176 -1.5244
 3471SOL    HW210795   0.854   1.672   5.725  0.5630 -1.5597 -1.2236
 3472SOL     OW10796   6.323   0.755   1.054  0.1859  0.1138  0.1981
 3472SOL    HW110797   6.370   0.835   1.030  2.4898 -0.6142  2.0625
 3472SOL    HW210798   6.356   0.734   1.141 -1.8719 -1.7900  0.5535
 3473SOL     OW10799   1.700   1.352   1.188 -0.4149 -0.0377 -0.1000
 3473SOL    HW110800   1.659   1.266   1.196 -1.5095  0.3349 -1.5351
 3473SOL    HW210801   1.779   1.336   1.136  0.0002 -0.3557  0.6202
 3474SOL     OW10802   2.583   2.837   0.846  0.0665  0.1190 -0.5044
 3474SOL    HW110803   2.523   2.762   0.854  1.9878 -1.6859 -2.4022
 3474SOL    HW210804   2.651   2.819   0.912  1.0247 -0.3112 -1.5979
 3475SOL     OW10805   3.229   0.851   3.978  0.4213 -0.2208 -0.8266
 3475SOL    HW110806   3.136   0.838   3.997  0.4718  0.7860  0.1645
 3475SOL    HW210807   3.250   0.785   3.912 -0.5700 -1.6035  0.2233
 3476SOL     OW10808   3.685   3.562   5.112 -0.2873 -0.1489  0.0814
 3476SOL    HW110809   3.627   3.576   5.037 -1.5469 -2.7686  0.5010
 3476SOL    HW210810   3.633   3.591   5.187 -0.3564 -0.7760  0.2781
 3477SOL     OW10811   1.726   4.443   2.026 -0.0626  0.2604 -0.2132
 3477SOL    HW110812   1.777   4.370   2.061  1.1774  0.8563 -0.7554
 3477SOL    HW210813   1.641   4.435   2.070  0.1342 -1.3463 -0.0724
 3478SOL     OW10814   6.253   1.413   5.537 -0.3788  0.2116 -0.4153
 3478SOL    HW110815   6.214   1.346   5.482 -2.1713  0.1745  0.8555
 3478SOL    HW210816   6.205   1.493   5.514 -1.5439  0.0746  1.4889
 3479SOL     OW10817   0.385   2.604   5.887 -0.3328  0.0517 -0.6349
 3479SOL    HW110818   0.470   2.575   5.920 -0.2800 -0.2381 -1.0247
 3479SOL    HW210819   0.321   2.563   5.946 -0.2182 -0.1026 -0.6176
 3480SOL     OW10820   1.112   3.309   4.529 -0.4403 -0.0620 -0.0717
 3480SOL    HW110821   1.107   3.309   4.624  2.1544 -0.8093  0.1076
 3480SOL    HW210822   1.087   3.220   4.504  1.4500 -0.6787  0.1271
 3481SOL     OW10823   1.083   4.651   1.887  0.0015 -0.0913  0.1453
 3481SOL    HW110824   1.048   4.608   1.809  0.4375 -1.6558  0.7891
 3481SOL    HW210825   1.031   4.731   1.896 -0.4438 -0.1866 -1.3955
 3482SOL     OW10826   4.270   2.708   3.530 -0.1096  0.3295  0.1525
 3482SOL    HW110827   4.351   2.754   3.554 -0.1607  0.4351  0.1225
 3482SOL    HW210828   4.200   2.766   3.558 -0.1644  0.7957 -0.9168
 3483SOL     OW10829   1.628   2.911   5.747  0.5959  0.3321 -0.7467
 3483SOL    HW110830   1.623   2.932   5.654  0.5348 -0.6192 -0.9672
 3483SOL    HW210831   1.721   2.916   5.768  0.7392 -0.5397 -1.1309
 3484SOL     OW10832   0.648   5.808   4.187  0.3334 -0.0603  0.1236
 3484SOL    HW110833   0.718   5.862   4.224  1.1704 -1.2017  0.2344
 3484SOL    HW210834   0.569   5.838   4.232  1.1614 -0.5969  1.9912
 3485SOL     OW10835   3.651   5.550   3.894  0.1211 -0.3848 -0.0561
 3485SOL    HW110836   3.701   5.543   3.813 -1.1187 -1.9461 -0.7275
 3485SOL    HW210837   3.602   5.468   3.898 -1.6451  0.6989  1.0595
 3486SOL     OW10838   3.470   3.282   2.095  0.3323  0.6766 -0.3433
 3486SOL    HW110839   3.385   3.241   2.078  0.1371  0.4044  1.1540
 3486SOL    HW210840   3.452   3.376   2.095 -0.0976  0.5977  0.5897
 3487SOL     OW10841   2.527   3.467   2.678  0.2589 -0.6343  0.0161
 3487SOL    HW110842   2.461   3.532   2.704  0.6391 -0.2176 -0.0397
 3487SOL    HW210843   2.521   3.464   2.582 -0.8577 -1.8648  0.1222
 3488SOL     OW10844   2.514   1.876   2.671 -0.1592  0.1310 -0.4968
 3488SOL    HW110845   2.477   1.845   2.754  2.1790 -1.0475  0.1403
 3488SOL    HW210846   2.480   1.814   2.605 -0.6001  0.0070 -0.1560
 3489SOL     OW10847   0.876   5.460   5.452  0.2857  0.7264  0.1775
 3489SOL    HW110848   0.874   5.435   5.545  0.0786  1.2481  0.3174
 3489SOL    HW210849   0.968   5.452   5.427  0.1662 -0.5199  0.1212
 3490SOL     OW10850   5.018   2.719   0.211  0.0175  0.1560 -0.2991
 3490SOL    HW110851   4.992   2.763   0.292 -0.3603 -0.3389 -0.1479
 3490SOL    HW210852   4.955   2.750   0.145 -1.0374 -1.1353  0.0941
 3491SOL     OW10853   5.126   1.314   4.882 -0.1458 -0.8660  0.4875
 3491SOL    HW110854   5.066   1.372   4.837 -0.2817 -2.7099 -1.7885
 3491SOL    HW210855   5.086   1.299   4.968 -1.6537 -0.0830 -0.0701
 3492SOL     OW10856   4.159   2.014   5.177 -0.2133 -0.4090 -0.0553
 3492SOL    HW110857   4.195   2.075   5.111 -2.3591 -0.2340 -1.0890
 3492SOL    HW210858   4.223   1.942   5.179  0.2759 -0.0628 -1.7873
 3493SOL     OW10859   4.169   2.693   2.620  0.2785  0.0121  0.0881
 3493SOL    HW110860   4.243   2.747   2.595  0.0784  0.1944 -0.1136
 3493SOL    HW210861   4.207   2.623   2.673  0.6398 -0.1049 -0.3217
 3494SOL     OW10862   6.102   0.718   5.755  0.0256  0.4148 -0.4337
 3494SOL    HW110863   6.126   0.786   5.692  1.2192 -0.5262 -1.0377
 3494SOL    HW210864   6.011   0.737   5.778 -0.0328  1.5093 -1.5050
 3495SOL     OW10865   2.414   4.059   4.911  0.0757  0.1907 -0.4715
 3495SOL    HW110866   2.497   4.075   4.865  1.1332 -0.1746  1.2499
 3495SOL    HW210867   2.395   4.141   4.956  0.5439 -0.3499  0.7226
 3496SOL     OW10868   0.190   0.872   5.893  0.2126 -0.3255 -0.2339
 3496SOL    HW110869   0.191   0.933   5.966  0.8199  0.4024 -0.8348
 3496SOL    HW210870   0.158   0.790   5.930 -0.3718  0.2866  0.6370
 3497SOL     OW10871   4.319   4.641   0.888  0.4959  0.1720 -0.1016
 3497SOL    HW110872   4.244   4.589   0.917  0.6784  0.4426  0.8810
 3497SOL    HW210873   4.284   4.730   0.878 -0.3739 -0.5096 -4.0249
 3498SOL     OW10874   1.654   5.609   2.345 -0.5479 -0.7032 -0.1480
 3498SOL    HW110875   1.660   5.630   2.439  0.8659  1.3426 -0.6621
 3498SOL    HW210876   1.740   5.632   2.310 -2.1713  1.9330 -2.5877
 3499SOL     OW10877   3.755   5.860   6.361 -0.7207  0.1805 -0.0906
 3499SOL    HW110878   3.830   5.808   6.390 -0.5026  0.1342 -0.7326
 3499SOL    HW210879   3.726   5.819   6.280 -1.7398 -0.0865  0.3895
 3500SOL     OW10880   2.755   4.931   4.786  0.4923  0.2617 -0.2178
 3500SOL    HW110881   2.695   5.006   4.788  1.6271  1.1638  3.0844
 3500SOL    HW210882   2.841   4.969   4.802  1.2075 -1.6252  0.5708
 3501SOL     OW10883   1.577   4.588   1.797 -0.1002  0.3668  0.3815
 3501SOL    HW110884   1.484   4.607   1.784  0.3181  1.2460 -1.5458
 3501SOL    HW210885   1.582   4.552   1.886 -2.1950  0.7982  0.7067
 3502SOL     OW10886   0.656   5.444   4.550 -0.0350  0.1658  0.0899
 3502SOL    HW110887   0.627   5.530   4.580  1.5748  0.3678  1.0950
 3502SOL    HW210888   0.703   5.461   4.468 -3.9793 -0.3317 -2.4330
 3503SOL     OW10889   3.811   0.934   1.598  0.1292 -0.1154  0.1189
 3503SOL    HW110890   3.824   0.846   1.633  0.7152  0.0998  0.4493
 3503SOL    HW210891   3.795   0.988   1.675 -1.8770 -0.2201 -0.2110
 3504SOL     OW10892   5.422   0.590   6.155 -0.5688  0.3830  0.0129
 3504SOL    HW110893   5.478   0.529   6.106  0.4464  1.1270  0.2243
 3504SOL    HW210894   5.454   0.676   6.129 -1.7596  0.8209 -0.0058
 3505SOL     OW10895   0.735   4.833   3.192  0.0575 -0.5510 -0.4165
 3505SOL    HW110896   0.789   4.756   3.211 -1.3143 -1.8406 -1.5638
 3505SOL    HW210897   0.730   4.834   3.096  0.0956  1.0080 -0.4093
 3506SOL     OW10898   1.062   5.712   6.128  0.3528 -0.3995 -0.3075
 3506SOL    HW110899   1.128   5.646   6.106  0.2060 -0.9606  0.8883
 3506SOL    HW210900   1.109   5.796   6.120  0.2392 -0.5442 -2.9151
 3507SOL     OW10901   0.666   2.996   5.596 -0.5738 -0.1971 -0.2742
 3507SOL    HW110902   0.694   3.035   5.513  0.1119 -0.0500  0.0268
 3507SOL    HW210903   0.651   3.071   5.653  1.4602 -0.3816  0.5384
 3508SOL     OW10904   6.207   3.451   0.099  0.3945  0.1141 -0.1201
 3508SOL    HW110905   6.244   3.508   0.031 -1.4164  1.0549 -0.3343
 3508SOL    HW210906   6.152   3.509   0.152 -1.4005 -1.3924 -0.2716
 3509SOL     OW10907   4.956   6.288   2.643 -0.2656  0.0035  0.6963
 3509SOL    HW110908   4.914   6.204   2.626  0.2927 -0.2332  0.4650
 3509SOL    HW210909   4.999   6.276   2.728 -0.2530  0.0865  0.7017
 3510SOL     OW10910   2.525   4.415   1.994 -0.0008 -0.0125  0.0527
 3510SOL    HW110911   2.477   4.335   2.018  0.2063 -0.4968 -1.1338
 3510SOL    HW210912   2.615   4.398   2.023 -0.1139  0.1056  0.4859
 3511SOL     OW10913   6.267   0.636   2.368  0.0343  0.9068 -0.3968
 3511SOL    HW110914   6.199   0.569   2.380 -0.2127  0.9004 -1.7133
 3511SOL    HW210915   6.349   0.590   2.387  0.0270 -0.2932 -2.9040
 3512SOL     OW10916   2.802   6.172   0.619  0.3507  0.0610 -0.2945
 3512SOL    HW110917   2.854   6.116   0.562 -0.7723 -2.2625  0.8999
 3512SOL    HW210918   2.734   6.209   0.563  1.9672  1.4327 -1.4019
 3513SOL     OW10919   1.972   5.971   2.514  0.3270  0.0761  0.2012
 3513SOL    HW110920   2.026   6.034   2.562 -1.6906  2.4552 -0.5875
 3513SOL    HW210921   1.968   6.005   2.425  0.3926 -1.9655 -0.6147
 3514SOL     OW10922   2.705   5.997   0.811  0.2370 -0.0352  0.4499
 3514SOL    HW110923   2.774   5.974   0.874  0.7964  1.1346  0.2748
 3514SOL    HW210924   2.742   6.069   0.761 -0.1094 -1.1411 -1.4254
 3515SOL     OW10925   4.219   0.264   2.344  0.4085 -0.2061 -0.1540
 3515SOL    HW110926   4.180   0.240   2.260 -0.0761 -0.7562  0.2193
 3515SOL    HW210927   4.296   0.316   2.322  0.7879 -1.1083 -0.9599
 3516SOL     OW10928   2.480   6.149   1.799  0.3195 -1.0146 -0.3515
 3516SOL    HW110929   2.442   6.219   1.747 -1.6943 -2.5643 -1.0390
 3516SOL    HW210930   2.421   6.140   1.874  2.3581  0.1878  1.4529
 3517SOL     OW10931   0.411   0.377   2.986  0.3608 -0.5774 -0.5213
 3517SOL    HW110932   0.506   0.384   2.975  0.0677  0.8427 -2.2718
 3517SOL    HW210933   0.397   0.388   3.080  1.8944 -0.3826 -0.3068
 3518SOL     OW10934   5.315   2.796   5.788  0.0725  0.2400 -0.5335
 3518SOL    HW110935   5.324   2.870   5.848  1.3040 -2.0088  2.1823
 3518SOL    HW210936   5.222   2.797   5.763 -1.0246 -0.0031  3.1900
 3519SOL     OW10937   2.894   5.737   4.091  1.0801  0.1390  0.3924
 3519SOL    HW110938   2.977   5.773   4.121  1.7003 -1.3894  0.5368
 3519SOL    HW210939   2.889   5.651   4.132 -0.0056 -0.2744 -0.5949
 3520SOL     OW10940   3.252   1.723   5.544 -0.3825 -0.2758 -0.0664
 3520SOL    HW110941   3.286   1.708   5.456 -1.0655 -1.1543 -0.1884
 3520SOL    HW210942   3.244   1.818   5.551  2.5882 -0.0267  0.1720
 3521SOL     OW10943   1.567   2.700   3.683  0.4150  0.0738  0.0759
 3521SOL    HW110944   1.556   2.664   3.771  1.2952  0.7436  0.4614
 3521SOL    HW210945   1.655   2.673   3.656  0.0960 -0.2551 -0.6664
 3522SOL     OW10946   1.002   2.402   0.021 -0.0746 -0.4493 -0.4906
 3522SOL    HW110947   0.978   2.490  -0.008 -0.1435 -0.9588 -2.0598
 3522SOL    HW210948   1.081   2.381  -0.030  1.0960 -0.5425  1.3143
 3523SOL     OW10949   0.509   3.485   5.224 -0.2305 -0.2568 -0.5976
 3523SOL    HW110950   0.458   3.556   5.185  1.8505  0.7055 -1.6268
 3523SOL    HW210951   0.595   3.490   5.181  0.0366 -3.2608 -0.5457
 3524SOL     OW10952   1.726   1.769   3.022  0.1403  0.2793  0.3011
 3524SOL    HW110953   1.719   1.687   3.070 -0.1656  0.0264 -0.1727
 3524SOL    HW210954   1.650   1.820   3.049 -1.3630 -0.8302 -1.7389
 3525SOL     OW10955   1.355   2.689   3.043 -0.0519  0.1180  0.5678
 3525SOL    HW110956   1.406   2.609   3.033  0.6082  0.5716  0.2551
 3525SOL    HW210957   1.331   2.692   3.135  0.6179 -0.0165  0.7455
 3526SOL     OW10958   2.318   4.102   2.380  0.4946  0.0357  0.3823
 3526SOL    HW110959   2.343   4.185   2.421  3.5005  0.4033 -2.0759
 3526SOL    HW210960   2.232   4.082   2.417  0.4834  3.3659  2.2946
 3527SOL     OW10961   5.494   5.099   0.278  0.4455 -0.5428  0.3965
 3527SOL    HW110962   5.538   5.163   0.333  0.0779 -0.6065  0.7650
 3527SOL    HW210963   5.429   5.058   0.335 -1.6726  1.1576 -0.7101
 3528SOL     OW10964   4.691   1.817   4.118  0.1690 -0.0808 -0.2186
 3528SOL    HW110965   4.720   1.880   4.052  2.8490 -0.3730  0.6336
 3528SOL    HW210966   4.662   1.871   4.191 -0.1742  0.1809 -0.5404
 3529SOL     OW10967   2.463   0.056   4.513 -0.7328  0.5818  0.4329
 3529SOL    HW110968   2.531  -0.007   4.538 -1.2700 -0.0021  0.4273
 3529SOL    HW210969   2.471   0.064   4.418 -0.0656  1.2142  0.5400
 3530SOL     OW10970   1.412   1.686   1.007  0.2809 -0.5313  0.3742
 3530SOL    HW110971   1.505   1.709   1.011  0.4491 -0.4864 -2.6762
 3530SOL    HW210972   1.386   1.676   1.099  3.0437  0.4003  1.3153
 3531SOL     OW10973   3.678   0.543   5.626 -0.2805  0.0976 -0.3118
 3531SOL    HW110974   3.648   0.464   5.582 -0.0003 -0.7835  1.0571
 3531SOL    HW210975   3.619   0.553   5.700 -0.4236  1.2688 -0.5813
 3532SOL     OW10976   0.033   0.547   5.367  0.1228 -0.3450  0.2337
 3532SOL    HW110977   0.033   0.641   5.389  0.1616 -0.0950 -0.8263
 3532SOL    HW210978   0.054   0.504   5.450 -0.5018  0.5468  0.8771
 3533SOL     OW10979   1.782   1.197   5.732  0.0600  0.1804 -0.2303
 3533SOL    HW110980   1.749   1.285   5.713  1.0733  0.5339 -0.4050
 3533SOL    HW210981   1.705   1.141   5.727 -0.8343  1.2380  1.1436
 3534SOL     OW10982   3.791   3.190   1.252  0.3931  0.3286  0.8475
 3534SOL    HW110983   3.851   3.201   1.179  1.9534  1.8553  2.3131
 3534SOL    HW210984   3.745   3.108   1.234  0.3793  0.9588 -2.0692
 3535SOL     OW10985   3.844   1.674   5.940 -0.2248 -0.0913 -0.6462
 3535SOL    HW110986   3.876   1.607   5.880  1.0189  0.3983 -0.5668
 3535SOL    HW210987   3.862   1.639   6.027  0.4114  0.3171 -0.6049
 3536SOL     OW10988   3.523   4.560   3.692 -0.0643  0.2691 -0.3808
 3536SOL    HW110989   3.560   4.625   3.633 -0.0561  1.5768  1.0056
 3536SOL    HW210990   3.580   4.562   3.769 -0.7294 -0.5408  0.1522
 3537SOL     OW10991   3.676   2.725   3.197  0.1701  0.0654  0.0268
 3537SOL    HW110992   3.673   2.633   3.169 -0.7564 -0.1921  0.9130
 3537SOL    HW210993   3.757   2.759   3.160 -1.5809  0.1367 -4.0775
 3538SOL     OW10994   2.393   4.524   0.241  0.1281  0.1337 -0.2738
 3538SOL    HW110995   2.448   4.446   0.252 -1.8593 -1.2458  0.1389
 3538SOL    HW210996   2.343   4.507   0.161 -0.5861  0.8174  0.0208
 3539SOL     OW10997   0.352   0.365   3.256  0.2340  0.3982 -0.8208
 3539SOL    HW110998   0.395   0.304   3.317 -0.0883  1.9625  1.0225
 3539SOL    HW210999   0.348   0.448   3.304 -0.2297  1.6158 -2.9188
 3540SOL     OW11000   3.875   5.567   5.229  0.1009 -0.1627 -0.3752
 3540SOL    HW111001   3.823   5.565   5.149  0.1437 -1.8321 -0.3809
 3540SOL    HW211002   3.811   5.564   5.300  0.1456 -1.4160 -0.3769
 3541SOL     OW11003   2.368   2.575   0.964 -0.2615  0.2096 -0.3288
 3541SOL    HW111004   2.281   2.539   0.943 -0.5611 -0.3276  1.7600
 3541SOL    HW211005   2.421   2.553   0.887 -1.5030 -1.0660 -0.8627
 3542SOL     OW11006   5.284   5.916   1.092  0.1921 -0.1569 -0.1559
 3542SOL    HW111007   5.210   5.938   1.036 -0.4202  0.8581  1.0324
 3542SOL    HW211008   5.339   5.995   1.091  0.5933 -0.4317  0.0109
 3543SOL     OW11009   6.179   3.568   3.860  0.1814 -0.4762 -0.0538
 3543SOL    HW111010   6.091   3.555   3.823  0.5721 -1.9557 -0.5009
 3543SOL    HW211011   6.217   3.638   3.807 -1.1244  0.9634  0.8653
 3544SOL     OW11012   2.808   0.300   4.808  0.0973  0.2124 -0.1528
 3544SOL    HW111013   2.729   0.337   4.770 -0.0531 -0.6968 -0.7376
 3544SOL    HW211014   2.880   0.349   4.767 -0.1099  0.0920 -0.6554
 3545SOL     OW11015   2.050   3.611   0.476 -0.4277 -0.6911 -0.1735
 3545SOL    HW111016   1.981   3.661   0.433  0.4437  0.1618 -0.6069
 3545SOL    HW211017   2.093   3.565   0.405 -1.3969 -2.2865  0.2585
 3546SOL     OW11018   2.881   4.772   2.084 -0.6114 -0.2530  0.1183
 3546SOL    HW111019   2.963   4.726   2.067 -1.0617 -1.5835  1.4291
 3546SOL    HW211020   2.883   4.791   2.177 -2.0955 -0.9006  0.2973
 3547SOL     OW11021   3.297   3.057   6.276  0.2854  0.5230  0.4047
 3547SOL    HW111022   3.301   2.982   6.335 -1.7439  2.2705  2.9005
 3547SOL    HW211023   3.229   3.035   6.213 -0.1154  0.1422  0.9690
 3548SOL     OW11024   5.179   0.593   2.996 -0.1602  0.3472  0.0466
 3548SOL    HW111025   5.243   0.532   3.033  0.0075  0.0898 -0.6473
 3548SOL    HW211026   5.106   0.592   3.057  0.3450  0.3613  0.6600
 3549SOL     OW11027   2.606   1.536   6.251  0.1202  0.0570 -0.2974
 3549SOL    HW111028   2.649   1.516   6.334  0.5075  0.4890 -0.3878
 3549SOL    HW211029   2.585   1.451   6.213 -1.5532 -0.1404  1.0140
 3550SOL     OW11030   3.140   4.234   5.441 -0.1120  0.5556 -0.0682
 3550SOL    HW111031   3.063   4.179   5.454 -0.4595  1.0864  0.1169
 3550SOL    HW211032   3.137   4.297   5.513  0.6924  0.3474  0.1509
 3551SOL     OW11033   2.011   3.406   2.939  0.3450  0.0194 -0.5783
 3551SOL    HW111034   1.981   3.392   2.849  0.4734  0.1221 -0.6359
 3551SOL    HW211035   2.060   3.487   2.936 -0.8953  0.8000 -0.1217
 3552SOL     OW11036   1.503   0.233   0.165 -0.2477 -0.4218 -0.5139
 3552SOL    HW111037   1.484   0.242   0.072 -2.8473 -1.2832 -0.1202
 3552SOL    HW211038   1.534   0.143   0.175  2.6483  0.4837 -0.9066
 3553SOL     OW11039   4.001   0.490   3.992 -0.1749 -0.1842 -0.1314
 3553SOL    HW111040   3.945   0.416   3.969 -1.6969  0.4214  1.4512
 3553SOL    HW211041   3.995   0.496   4.088  0.9518  1.1655 -0.1291
 3554SOL     OW11042   5.459   0.861   1.437  0.3643 -0.1186 -0.6449
 3554SOL    HW111043   5.477   0.825   1.524 -0.1133  0.5905 -0.2514
 3554SOL    HW211044   5.366   0.883   1.439  0.0520 -1.3325 -1.7881
 3555SOL     OW11045   1.439   5.695   1.559  0.3410 -0.1163  0.1020
 3555SOL    HW111046   1.456   5.670   1.650 -0.1301  0.3509  0.3191
 3555SOL    HW211047   1.347   5.721   1.558  0.9387  2.0170 -0.0327
 3556SOL     OW11048   3.530   4.861   5.455 -0.1735  0.2805 -0.0693
 3556SOL    HW111049   3.568   4.948   5.466 -0.3487  0.4030 -0.4515
 3556SOL    HW211050   3.435   4.875   5.460 -0.2690  0.3650 -1.9566
 3557SOL     OW11051   1.341   4.525   5.507  0.4106 -0.1499 -0.2491
 3557SOL    HW111052   1.302   4.604   5.470  2.4574  0.6581 -0.7070
 3557SOL    HW211053   1.317   4.528   5.600  0.4395  0.9737 -0.2758
 3558SOL     OW11054   1.482   5.992   0.224  0.8670 -0.0154  0.3675
 3558SOL    HW111055   1.425   6.069   0.233 -0.1588 -0.5766 -1.0688
 3558SOL    HW211056   1.529   6.006   0.142  1.3170 -0.5123  0.5357
 3559SOL     OW11057   4.213   1.742   3.222  0.2350  0.3094 -0.3506
 3559SOL    HW111058   4.270   1.798   3.169 -0.3978 -0.2339 -1.6182
 3559SOL    HW211059   4.187   1.672   3.163 -2.5345  1.0483 -0.0620
 3560SOL     OW11060   3.640   4.183   0.219 -0.6272  0.1166 -0.2835
 3560SOL    HW111061   3.657   4.089   0.225  1.5825  0.6118  1.7099
 3560SOL    HW211062   3.651   4.203   0.125  1.0298 -1.2397 -0.3997
 3561SOL     OW11063   1.892   1.617   5.824  0.5014 -0.7756  0.0786
 3561SOL    HW111064   1.822   1.557   5.848 -0.6951  0.1905 -0.9147
 3561SOL    HW211065   1.902   1.674   5.900  1.1477 -1.7574  0.7414
 3562SOL     OW11066   1.706   5.265   2.215 -0.2071  0.4756  0.2120
 3562SOL    HW111067   1.776   5.230   2.160  1.5697 -0.2128  2.8301
 3562SOL    HW211068   1.731   5.355   2.233  1.4189 -0.4960  3.2265
 3563SOL     OW11069   5.877   5.317   5.581 -0.8687  0.2764  0.1963
 3563SOL    HW111070   5.970   5.300   5.596 -0.6062  2.4092  1.0614
 3563SOL    HW211071   5.874   5.365   5.498 -1.0813  1.3565  0.8252
 3564SOL     OW11072   3.473   2.023   5.406  0.2780  0.2086 -0.5708
 3564SOL    HW111073   3.466   2.077   5.485  1.2435  0.0186 -0.3482
 3564SOL    HW211074   3.554   1.974   5.418 -0.6788 -1.4176 -0.6938
 3565SOL     OW11075   5.250   1.971   3.231  0.4437 -0.5741  0.1559
 3565SOL    HW111076   5.230   2.047   3.286  1.5185  0.4878 -0.8696
 3565SOL    HW211077   5.345   1.976   3.218  0.4487 -1.8336 -0.2963
 3566SOL     OW11078   3.046   2.548   4.234  0.4876  0.1564  0.2482
 3566SOL    HW111079   2.978   2.490   4.200  0.1293  1.0918 -0.6614
 3566SOL    HW211080   3.000   2.604   4.297  1.0404 -1.2141  1.9086
 3567SOL     OW11081   0.076   4.279   4.347  0.3862 -0.1880  0.1062
 3567SOL    HW111082   0.015   4.318   4.285  0.0678  0.5580  0.8930
 3567SOL    HW211083   0.021   4.243   4.416  0.8543  1.2249  1.2442
 3568SOL     OW11084   1.001   1.162   2.594  0.3356  0.3699  0.2203
 3568SOL    HW111085   0.988   1.248   2.634  0.1559 -0.0827  1.1304
 3568SOL    HW211086   1.096   1.148   2.599  0.0849 -0.6397  2.4718
 3569SOL     OW11087   5.810   5.727   6.366 -0.5844 -0.0982 -0.0596
 3569SOL    HW111088   5.716   5.731   6.385 -0.7273  0.7770 -0.9015
 3569SOL    HW211089   5.852   5.737   6.451 -1.2162  3.3180 -0.0555
 3570SOL     OW11090   3.013   5.542   5.495 -0.3397  0.2101 -0.4733
 3570SOL    HW111091   3.009   5.550   5.590 -0.5355 -1.2565 -0.3382
 3570SOL    HW211092   3.103   5.514   5.477 -0.0305  1.3833 -0.8063
 3571SOL     OW11093   1.423   3.307   2.132  0.2147  0.3424 -0.2388
 3571SOL    HW111094   1.402   3.275   2.044 -0.5192 -1.4707  0.5781
 3571SOL    HW211095   1.516   3.285   2.144  0.1916  0.1691 -0.3735
 3572SOL     OW11096   4.429   0.147   0.583 -0.4197  0.0336  0.4782
 3572SOL    HW111097   4.399   0.211   0.518 -0.7914 -2.1202 -1.5270
 3572SOL    HW211098   4.518   0.125   0.555 -0.8491 -1.4490  0.2522
 3573SOL     OW11099   3.233   4.122   6.183 -0.0114 -0.3468  0.0891
 3573SOL    HW111100   3.293   4.113   6.110  2.0185  2.0270  1.3956
 3573SOL    HW211101   3.195   4.035   6.193  1.4858 -1.3145 -2.2312
 3574SOL     OW11102   5.908   3.136   3.056  0.8122 -0.1368  0.3460
 3574SOL    HW111103   5.939   3.155   3.145  1.2534 -0.9350  0.3654
 3574SOL    HW211104   5.975   3.172   2.999  1.8243 -1.8851  0.3886
 3575SOL     OW11105   6.262   4.138   2.176  0.3730 -0.0583  0.5684
 3575SOL    HW111106   6.295   4.061   2.222 -2.4829 -0.5917  1.8794
 3575SOL    HW211107   6.226   4.103   2.095  0.6685  0.1503  0.3475
 3576SOL     OW11108   0.426   2.472   5.004 -0.0037  0.3455  0.0345
 3576SOL    HW111109   0.458   2.426   4.927  1.1112  0.1948  0.5786
 3576SOL    HW211110   0.376   2.546   4.969  0.9412  0.5829 -0.8241
 3577SOL     OW11111   0.936   5.306   6.003 -0.0273  0.4912  0.0953
 3577SOL    HW111112   0.925   5.275   6.093  0.2609  2.4751  0.8358
 3577SOL    HW211113   0.868   5.372   5.992 -1.0381 -0.8195 -1.6729
 3578SOL     OW11114   1.466   1.806   1.698 -0.4151  0.3477 -0.7238
 3578SOL    HW111115   1.392   1.748   1.679 -0.0567 -0.6137  0.7524
 3578SOL    HW211116   1.489   1.844   1.613 -1.9056 -0.1783 -1.3727
 3579SOL     OW11117   2.661   2.598   1.655 -0.2645  0.0475 -0.8584
 3579SOL    HW111118   2.706   2.612   1.572 -1.0592  0.4304 -1.2237
 3579SOL    HW211119   2.577   2.558   1.632  0.4834 -2.0620 -0.0698
 3580SOL     OW11120   0.926   0.348   2.524 -0.2002  0.2506 -0.4398
 3580SOL    HW111121   0.931   0.276   2.461  1.3807  1.0377 -1.2667
 3580SOL    HW211122   0.956   0.310   2.607  0.2428 -0.1593 -0.7807
 3581SOL     OW11123   3.798   2.247   2.265 -0.5539 -0.6114  0.0525
 3581SOL    HW111124   3.853   2.321   2.241  0.1356 -1.0197  0.3576
 3581SOL    HW211125   3.771   2.266   2.355 -0.3217 -0.7618  0.1546
 3582SOL     OW11126   0.731   5.290   1.463 -0.7193 -0.0141  0.1875
 3582SOL    HW111127   0.660   5.354   1.463  0.6870  1.5826  0.7550
 3582SOL    HW211128   0.709   5.231   1.536 -0.1506  2.0001  2.0507
 3583SOL     OW11129   0.856   2.536   1.489 -0.4184  0.0478  0.2275
 3583SOL    HW111130   0.832   2.567   1.577  0.9913  1.6997  0.0605
 3583SOL    HW211131   0.855   2.441   1.496  0.8347  0.1555  2.3789
 3584SOL     OW11132   1.114   3.792   4.381 -0.4082  0.3032  0.0732
 3584SOL    HW111133   1.052   3.841   4.435  0.4055  0.7295  0.6358
 3584SOL    HW211134   1.189   3.851   4.372  0.0526 -0.3421 -0.3096
 3585SOL     OW11135   2.277   5.732   1.113 -0.1329 -0.0263  0.2486
 3585SOL    HW111136   2.205   5.766   1.060 -0.7447  0.7785  1.5678
 3585SOL    HW211137   2.234   5.696   1.191  0.9205  0.8260  1.2372
 3586SOL     OW11138   4.375   2.833   6.081 -0.0802  0.2961 -0.3372
 3586SOL    HW111139   4.282   2.842   6.060  0.0116  1.3249 -0.3655
 3586SOL    HW211140   4.420   2.856   6.000  0.2209  1.8865  0.2495
 3587SOL     OW11141   3.688   4.393   0.399 -0.0914 -0.1136 -0.4472
 3587SOL    HW111142   3.678   4.318   0.457  1.4667 -0.9770 -1.2709
 3587SOL    HW211143   3.720   4.357   0.317  0.6856  1.4539 -0.8635
 3588SOL     OW11144   6.116   4.856   5.740 -0.1343  0.0763 -0.4722
 3588SOL    HW111145   6.184   4.907   5.785 -1.8008  1.0942  0.9402
 3588SOL    HW211146   6.134   4.766   5.766  0.5800  0.3468  0.0160
 3589SOL     OW11147   4.312   1.769   2.857 -0.4725  0.1116 -0.1707
 3589SOL    HW111148   4.277   1.775   2.768  1.2671  0.9773 -0.8109
 3589SOL    HW211149   4.245   1.720   2.905  0.5447 -4.3812 -3.0205
 3590SOL     OW11150   2.510   6.141   2.206  0.4135  0.1923  0.2932
 3590SOL    HW111151   2.478   6.058   2.241  2.5476 -0.2867  1.2223
 3590SOL    HW211152   2.437   6.202   2.216 -0.7176 -1.2319  0.8470
 3591SOL     OW11153   3.193   4.451   3.993  0.3049 -0.2042  0.0114
 3591SOL    HW111154   3.272   4.399   4.007 -0.1377 -1.0786 -0.6895
 3591SOL    HW211155   3.121   4.388   4.001 -0.4043  0.8116  1.8674
 3592SOL     OW11156   5.365   0.176   1.105 -0.2539  0.0023 -0.3045
 3592SOL    HW111157   5.447   0.134   1.081  0.0119 -0.1955  0.9124
 3592SOL    HW211158   5.314   0.108   1.148 -0.8340  0.2686 -0.5613
 3593SOL     OW11159   1.123   2.992   5.547  0.5082 -0.2669 -0.3556
 3593SOL    HW111160   1.142   2.962   5.636  1.4199 -0.3585 -0.5688
 3593SOL    HW211161   1.136   3.087   5.550  0.8253 -0.3060 -0.4573
 3594SOL     OW11162   3.131   2.641   5.282 -0.4316  0.1810  0.1621
 3594SOL    HW111163   3.042   2.606   5.290 -0.7603  0.9133 -0.2275
 3594SOL    HW211164   3.126   2.729   5.319  0.1173  0.2534  0.0722
 3595SOL     OW11165   2.848   1.794   5.403  0.2423  0.0457  0.6906
 3595SOL    HW111166   2.922   1.734   5.393  0.1423  0.0211  0.1105
 3595SOL    HW211167   2.883   1.880   5.381 -0.4961 -0.3001 -2.0036
 3596SOL     OW11168   5.314   1.030   5.675 -0.2416  0.3835  0.4026
 3596SOL    HW111169   5.244   1.068   5.622  0.4476 -1.1555 -1.6856
 3596SOL    HW211170   5.328   0.943   5.637  1.2779 -0.2041  2.2240
 3597SOL     OW11171   1.925   5.189   6.212  0.9216  0.2190 -0.0440
 3597SOL    HW111172   1.878   5.144   6.283 -1.3232  2.7833  0.2189
 3597SOL    HW211173   1.891   5.150   6.132  0.8293 -0.2882  0.2443
 3598SOL     OW11174   1.873   0.709   4.813 -0.1532 -0.2960 -0.4141
 3598SOL    HW111175   1.824   0.792   4.810  0.3224  0.0110  0.1377
 3598SOL    HW211176   1.964   0.735   4.796 -0.1436 -0.8313 -1.1853
 3599SOL     OW11177   5.388   2.981   0.261 -0.0096 -0.0353 -0.3003
 3599SOL    HW111178   5.444   3.057   0.249 -0.4004  0.6819  2.1144
 3599SOL    HW211179   5.301   3.017   0.277 -0.1279 -0.9480  1.2299
 3600SOL     OW11180   2.546   2.332   1.439 -0.7876  0.2825 -0.6215
 3600SOL    HW111181   2.512   2.340   1.350 -0.4348  0.0929 -0.7754
 3600SOL    HW211182   2.641   2.344   1.430 -0.7849  0.5760 -0.2291
 3601SOL     OW11183   3.935   2.699   2.440 -0.2744 -0.1145  0.3599
 3601SOL    HW111184   3.879   2.769   2.473 -1.3136 -0.6555 -0.2527
 3601SOL    HW211185   4.000   2.685   2.510 -1.2250  0.1413  1.3036
 3602SOL     OW11186   0.569   3.658   2.586 -0.6369  0.0131 -0.1768
 3602SOL    HW111187   0.498   3.624   2.642 -0.4607 -0.1571 -0.0557
 3602SOL    HW211188   0.648   3.619   2.622 -0.7217 -1.6288 -1.7450
 3603SOL     OW11189   0.586   2.318   4.844  0.1452 -0.1820 -0.5310
 3603SOL    HW111190   0.592   2.299   4.750  0.7852  0.8074 -0.7006
 3603SOL    HW211191   0.663   2.371   4.863 -1.3342  1.8394 -0.0048
 3604SOL     OW11192   0.200   4.221   0.881 -0.1942  0.0751 -0.0939
 3604SOL    HW111193   0.258   4.277   0.932 -1.2109  1.2914 -0.2641
 3604SOL    HW211194   0.222   4.241   0.790  1.0476 -1.4975 -0.1571
 3605SOL     OW11195   3.274   1.634   6.361  1.0655 -0.3423 -0.7224
 3605SOL    HW111196   3.192   1.585   6.349  0.0520  0.8719  0.9511
 3605SOL    HW211197   3.275   1.696   6.288 -0.3752  0.7490  0.1408
 3606SOL     OW11198   1.177   4.194   2.703 -0.3106  0.0231 -0.2216
 3606SOL    HW111199   1.109   4.132   2.675  0.8008 -1.3689  0.1301
 3606SOL    HW211200   1.222   4.217   2.622 -0.3282 -0.0890 -0.2630
 3607SOL     OW11201   1.389   2.269   1.400  0.1289 -0.2247 -0.2545
 3607SOL    HW111202   1.443   2.232   1.330  0.2676 -0.9636  0.2387
 3607SOL    HW211203   1.333   2.197   1.428 -0.0877  0.1361  0.2485
 3608SOL     OW11204   4.765   0.562   1.834  0.7830  0.2435  0.5669
 3608SOL    HW111205   4.723   0.648   1.840  0.6267  0.3231 -1.4043
 3608SOL    HW211206   4.813   0.565   1.751 -0.0669 -1.9504 -0.0369
 3609SOL     OW11207   2.102   6.369   5.843  0.2316 -0.0169  0.0421
 3609SOL    HW111208   2.058   6.454   5.845 -1.9972 -1.1542  2.1875
 3609SOL    HW211209   2.158   6.369   5.920 -0.2354 -0.7344  0.3802
 3610SOL     OW11210   1.812   6.121   6.172  0.2960  0.4313 -0.0891
 3610SOL    HW111211   1.895   6.086   6.140  0.3539  0.4692  0.0166
 3610SOL    HW211212   1.837   6.178   6.246  0.0330 -0.8906  1.0439
 3611SOL     OW11213   4.906   3.479   0.727  0.1846 -0.0508  0.4076
 3611SOL    HW111214   4.925   3.385   0.730 -0.0708 -0.0774  1.1432
 3611SOL    HW211215   4.821   3.488   0.770 -0.1006  0.4404 -0.2415
 3612SOL     OW11216   0.367   4.574   4.657 -0.3529  0.4324  0.0893
 3612SOL    HW111217   0.359   4.663   4.624  0.5382  0.6195  0.3568
 3612SOL    HW211218   0.320   4.520   4.594  0.5910  0.8806 -1.0076
 3613SOL     OW11219   1.379   5.639   2.557 -0.1087  0.4903 -0.0695
 3613SOL    HW111220   1.438   5.715   2.560  0.9239 -0.2772 -0.2720
 3613SOL    HW211221   1.352   5.634   2.465  0.5577  0.0757 -0.2473
 3614SOL     OW11222   3.136   5.999   0.820  0.6040 -1.0781  0.0946
 3614SOL    HW111223   3.065   5.941   0.846  1.4402 -1.7272  0.9909
 3614SOL    HW211224   3.140   6.065   0.889  0.4617 -0.6761 -0.2793
 3615SOL     OW11225   1.744   4.180   0.328  0.0392  0.5188  0.0003
 3615SOL    HW111226   1.740   4.226   0.412  0.8964 -0.1849  0.4450
 3615SOL    HW211227   1.807   4.109   0.343 -2.8392 -2.1803  0.0422
 3616SOL     OW11228   2.499   4.639   0.747 -0.0304 -0.0174  0.1734
 3616SOL    HW111229   2.404   4.645   0.758 -0.0169  0.6808 -0.0814
 3616SOL    HW211230   2.534   4.656   0.835 -0.1294  0.0492  0.1998
 3617SOL     OW11231   0.365   3.406   6.346  0.1186 -0.4099  0.7232
 3617SOL    HW111232   0.358   3.420   6.252 -1.0761 -0.5828  0.7794
 3617SOL    HW211233   0.367   3.311   6.357  1.9708 -0.3820  0.7663
 3618SOL     OW11234   1.102   0.172   4.779 -0.1526  0.1100 -0.2480
 3618SOL    HW111235   1.196   0.178   4.798 -0.2100  1.0362 -0.2363
 3618SOL    HW211236   1.075   0.262   4.765 -1.3963  0.0207  1.4188
 3619SOL     OW11237   0.661   2.883   1.944  0.5097 -0.2822 -0.1699
 3619SOL    HW111238   0.700   2.824   2.008 -0.9341 -0.3234  0.7036
 3619SOL    HW211239   0.591   2.831   1.903 -1.2042  0.9705  1.0632
 3620SOL     OW11240   3.109   2.191   3.167 -0.0925  0.0779 -0.3483
 3620SOL    HW111241   3.026   2.190   3.119 -0.1845  1.2926 -0.2136
 3620SOL    HW211242   3.112   2.277   3.209  0.0174 -0.9088  1.7608
 3621SOL     OW11243   6.304   0.487   4.172  0.2587 -0.1004 -0.2163
 3621SOL    HW111244   6.259   0.516   4.093 -0.2426  1.2872  0.5512
 3621SOL    HW211245   6.396   0.507   4.157 -0.1387  2.3602  0.4776
 3622SOL     OW11246   3.354   3.579   2.034 -0.1118  0.0661  0.5893
 3622SOL    HW111247   3.320   3.637   1.966 -0.6304  1.7113  2.2064
 3622SOL    HW211248   3.447   3.571   2.014 -0.4125 -0.1619 -0.7903
 3623SOL     OW11249   5.758   3.719   0.430 -0.0400  0.4322 -0.5427
 3623SOL    HW111250   5.740   3.647   0.369 -1.7498  0.4058 -0.0303
 3623SOL    HW211251   5.697   3.788   0.405  0.7538  1.2599 -0.2449
 3624SOL     OW11252   2.152   2.785   3.181  0.0410 -0.1414 -0.4177
 3624SOL    HW111253   2.158   2.816   3.090  1.3490  0.6170 -0.0876
 3624SOL    HW211254   2.184   2.858   3.233  2.3199 -1.7125  0.4414
 3625SOL     OW11255   5.549   2.958   5.619  0.1859 -0.1183  0.7349
 3625SOL    HW111256   5.595   3.038   5.595  2.0052 -0.5785  2.5024
 3625SOL    HW211257   5.457   2.984   5.628  0.7270  1.7058  1.0399
 3626SOL     OW11258   3.770   5.338   0.746 -0.8443 -0.2556 -0.8619
 3626SOL    HW111259   3.846   5.290   0.779 -1.4471 -0.9633 -0.4990
 3626SOL    HW211260   3.709   5.341   0.820 -1.0576  0.5675 -1.0596
 3627SOL     OW11261   3.453   3.442   1.752 -0.3614 -0.3700 -0.0845
 3627SOL    HW111262   3.490   3.466   1.837  0.1334 -0.3277 -0.3088
 3627SOL    HW211263   3.400   3.364   1.770  1.4427 -1.6442 -0.0988
 3628SOL     OW11264   5.142   3.328   1.043  0.0749  0.4482 -0.6004
 3628SOL    HW111265   5.142   3.244   1.089  1.3671  0.8629  0.1585
 3628SOL    HW211266   5.051   3.358   1.049  0.4510  1.0285  2.6323
 3629SOL     OW11267   2.331   4.226   2.136 -0.4922 -0.0195 -0.1281
 3629SOL    HW111268   2.348   4.179   2.218 -2.9280  0.1219  0.4945
 3629SOL    HW211269   2.341   4.160   2.067 -0.0718 -0.5303  0.4245
 3630SOL     OW11270   1.746   1.259   6.166 -0.2182  0.5205 -0.0303
 3630SOL    HW111271   1.769   1.350   6.185 -1.5271  0.9520 -0.4463
 3630SOL    HW211272   1.655   1.263   6.136 -0.3100 -0.9371  0.0185
 3631SOL     OW11273   0.984   2.851   0.900  0.4343  0.1452  0.5991
 3631SOL    HW111274   0.979   2.834   0.805  1.6897  0.9906  0.3721
 3631SOL    HW211275   0.909   2.804   0.936 -0.2048  0.0176 -0.8485
 3632SOL     OW11276   4.830   0.523   6.380 -0.1862  0.0967 -0.3425
 3632SOL    HW111277   4.803   0.474   6.303 -1.8819 -0.6925  0.7119
 3632SOL    HW211278   4.907   0.476   6.413 -0.5470 -0.6387 -0.5315
 3633SOL     OW11279   4.539   0.890   3.074  0.0164 -0.3142  0.3835
 3633SOL    HW111280   4.493   0.847   3.001 -0.6605  0.9334  0.0712
 3633SOL    HW211281   4.517   0.982   3.065  0.3146 -0.0965  1.9064
 3634SOL     OW11282   2.450   3.989   1.510  0.1082  0.0260 -0.0479
 3634SOL    HW111283   2.456   4.077   1.548  0.2720  0.8203 -1.8920
 3634SOL    HW211284   2.483   3.932   1.579  1.7778  1.5877  0.4944
 3635SOL     OW11285   5.173   3.748   2.498  0.6211 -0.0713  0.2305
 3635SOL    HW111286   5.135   3.775   2.581 -1.5288  0.8118 -1.0008
 3635SOL    HW211287   5.266   3.769   2.506 -0.0521  2.6648  1.3709
 3636SOL     OW11288   1.538   0.909   2.715  0.3823 -0.4261  0.4084
 3636SOL    HW111289   1.519   0.918   2.621 -0.0153  0.3482  0.5664
 3636SOL    HW211290   1.455   0.883   2.754  0.7399 -1.5688  0.4373
 3637SOL     OW11291   3.546   0.716   3.332  0.3712 -0.4801 -0.4726
 3637SOL    HW111292   3.529   0.800   3.375 -0.7281 -2.0283  2.2056
 3637SOL    HW211293   3.609   0.672   3.389 -0.4562 -2.2457 -0.8867
 3638SOL     OW11294   5.368   4.771   4.671  0.1707 -0.6785 -0.3998
 3638SOL    HW111295   5.379   4.785   4.577  2.0810 -1.5249 -0.3180
 3638SOL    HW211296   5.350   4.678   4.680  1.0819 -0.8090  0.1509
 3639SOL     OW11297   3.204   5.180   0.753  0.0523 -0.5669 -0.1327
 3639SOL    HW111298   3.157   5.107   0.793 -1.0721  0.4630  0.4343
 3639SOL    HW211299   3.221   5.151   0.664  0.1087 -1.7491  0.2504
 3640SOL     OW11300   2.581   4.683   2.128  0.3487  0.0543 -0.2791
 3640SOL    HW111301   2.658   4.718   2.084 -0.5046 -0.4333 -2.1699
 3640SOL    HW211302   2.590   4.588   2.122 -0.3191 -0.0069 -0.3490
 3641SOL     OW11303   5.519   5.478   3.700 -0.0970 -0.3098 -0.1541
 3641SOL    HW111304   5.589   5.505   3.641 -0.4892  1.4322  0.1648
 3641SOL    HW211305   5.538   5.386   3.718  1.0099 -0.3843 -1.5977
 3642SOL     OW11306   4.608   2.704   1.249 -0.1809 -0.5363  0.1402
 3642SOL    HW111307   4.601   2.622   1.298 -0.7185 -0.8467 -0.4570
 3642SOL    HW211308   4.551   2.765   1.296  0.2216 -0.4982  0.5857
 3643SOL     OW11309   1.182   1.572   5.928 -0.3359 -0.6020 -0.0141
 3643SOL    HW111310   1.211   1.572   5.837  0.1009 -2.6541  0.0999
 3643SOL    HW211311   1.197   1.482   5.958 -1.0777 -0.1150  1.8891
 3644SOL     OW11312   3.154   3.672   5.084  0.2353 -0.2782 -0.4103
 3644SOL    HW111313   3.114   3.656   5.170  0.2381  3.7063  0.3962
 3644SOL    HW211314   3.082   3.664   5.022 -0.3604 -0.1623  0.2656
 3645SOL     OW11315   4.348   3.623   4.787  0.6672 -0.0186  0.4069
 3645SOL    HW111316   4.323   3.684   4.856  0.0515  0.0505  0.1292
 3645SOL    HW211317   4.331   3.537   4.824  1.9808 -0.0501  0.9719
 3646SOL     OW11318   2.104   1.111   3.865  0.1497 -0.0069 -0.1622
 3646SOL    HW111319   2.129   1.036   3.920  0.6734  0.3705  0.1123
 3646SOL    HW211320   2.111   1.187   3.923  2.3812  0.6185 -1.1979
 3647SOL     OW11321   2.289   5.670   0.044  0.4764 -0.2845  0.6219
 3647SOL    HW111322   2.240   5.608  -0.009  2.8568 -2.5687  1.0066
 3647SOL    HW211323   2.307   5.623   0.125 -1.7350  2.5927  2.9022
 3648SOL     OW11324   5.256   5.111   3.648 -0.2661  0.3986 -0.4129
 3648SOL    HW111325   5.190   5.044   3.666 -0.9123  0.9666 -0.6543
 3648SOL    HW211326   5.218   5.192   3.683  0.4364  0.6710 -0.2813
 3649SOL     OW11327   6.092   1.593   0.832 -0.0346 -0.1826 -0.0619
 3649SOL    HW111328   6.148   1.573   0.757  1.8129 -4.1273  2.1763
 3649SOL    HW211329   6.151   1.635   0.894 -0.2900 -1.4776  1.0824
 3650SOL     OW11330   4.799   3.499   5.821  0.2791 -0.1238  0.1315
 3650SOL    HW111331   4.763   3.564   5.881 -1.9070 -1.3539  0.2160
 3650SOL    HW211332   4.777   3.533   5.734 -1.3109 -0.9393  0.1853
 3651SOL     OW11333   1.962   4.322   3.564  0.2274  0.0579  0.6374
 3651SOL    HW111334   2.049   4.306   3.601 -0.1821  1.2365  2.1621
 3651SOL    HW211335   1.965   4.282   3.477  1.5353 -1.9295  1.5654
 3652SOL     OW11336   5.784   3.740   3.905  0.1612 -0.4041  0.1713
 3652SOL    HW111337   5.836   3.717   3.828  0.9900 -0.2866  0.6830
 3652SOL    HW211338   5.747   3.657   3.934  1.0766 -0.7080  0.5163
 3653SOL     OW11339   1.710   3.073   3.234  0.1429  0.1762 -0.1678
 3653SOL    HW111340   1.682   2.981   3.233 -1.1161  0.5559 -1.2272
 3653SOL    HW211341   1.805   3.069   3.244 -0.0470 -1.1937  1.3397
 3654SOL     OW11342   1.609   1.548   4.125 -0.3552 -0.0407  0.0373
 3654SOL    HW111343   1.528   1.508   4.094 -0.5237 -0.0220  0.4577
 3654SOL    HW211344   1.585   1.637   4.148 -0.2281 -0.0565  0.2323
 3655SOL     OW11345   4.793   1.463   4.667  0.1977 -0.4436 -0.0697
 3655SOL    HW111346   4.793   1.527   4.738 -0.0619  0.6900 -1.0806
 3655SOL    HW211347   4.883   1.464   4.633  0.0517 -0.2318 -0.4424
 3656SOL     OW11348   1.017   3.837   0.582 -0.2911 -0.2836  0.0981
 3656SOL    HW111349   0.993   3.926   0.558  0.6348 -0.1137 -0.1964
 3656SOL    HW211350   0.961   3.817   0.657  0.0712  0.8441  0.6784
 3657SOL     OW11351   2.418   0.411   5.626 -0.0619  0.3667 -0.6215
 3657SOL    HW111352   2.335   0.373   5.598  0.2092 -0.1862 -0.6772
 3657SOL    HW211353   2.394   0.494   5.666 -0.9090 -1.1260  2.0297
 3658SOL     OW11354   4.004   5.122   1.168 -0.1270 -0.2671  0.4030
 3658SOL    HW111355   3.929   5.150   1.221  0.1537  3.1409 -0.8872
 3658SOL    HW211356   3.966   5.093   1.086 -0.1762 -0.3713  0.4625
 3659SOL     OW11357   1.091   1.516   5.211  0.2977 -0.6269 -0.5478
 3659SOL    HW111358   1.134   1.495   5.128  0.7688  0.2429 -0.5207
 3659SOL    HW211359   0.999   1.491   5.197  0.1574  0.4838 -1.6776
 3660SOL     OW11360   0.252   3.712   0.104  0.3611  0.4282  0.3355
 3660SOL    HW111361   0.217   3.677   0.022 -1.6817  3.4658 -0.1510
 3660SOL    HW211362   0.344   3.683   0.105  0.1376 -0.5220 -2.5084
 3661SOL     OW11363   6.139   3.077   5.183 -0.0434 -0.0139  0.2469
 3661SOL    HW111364   6.193   3.152   5.208  0.0496 -0.2367  0.7237
 3661SOL    HW211365   6.192   3.029   5.119  0.3697 -0.2835  0.7844
 3662SOL     OW11366   0.774   3.841   4.256  0.1079 -0.6423 -0.4012
 3662SOL    HW111367   0.689   3.829   4.214 -0.8333 -0.2469  1.3577
 3662SOL    HW211368   0.756   3.833   4.350  2.0113 -0.5815 -0.0143
 3663SOL     OW11369   4.426   0.515   3.331  0.3426  0.1025  0.3933
 3663SOL    HW111370   4.356   0.580   3.336 -0.9509 -1.1966 -0.4332
 3663SOL    HW211371   4.451   0.513   3.238 -1.6334 -2.6072 -0.1520
 3664SOL     OW11372   4.162   5.012   3.997  0.8560  0.0035 -0.2817
 3664SOL    HW111373   4.185   5.097   4.035  1.3027  0.8959 -2.4706
 3664SOL    HW211374   4.199   5.015   3.909  0.6376 -2.3742 -0.4659
 3665SOL     OW11375   2.780   3.246   2.308 -0.3432  0.0140  0.1254
 3665SOL    HW111376   2.734   3.299   2.243 -0.4615 -2.6952 -2.1009
 3665SOL    HW211377   2.712   3.190   2.346  0.1754 -0.1952  0.7665
 3666SOL     OW11378   5.215   0.920   1.017  0.3682  0.4290 -0.4241
 3666SOL    HW111379   5.293   0.960   0.979  1.4881 -2.8808 -1.8449
 3666SOL    HW211380   5.245   0.887   1.102 -0.0657  1.0044 -0.0445
 3667SOL     OW11381   2.719   5.722   3.429  0.1834 -0.8266  0.4525
 3667SOL    HW111382   2.702   5.778   3.353  1.2220 -0.7279  0.2851
 3667SOL    HW211383   2.797   5.672   3.405  1.5586  0.4641  2.1364
 3668SOL     OW11384   2.141   2.383   0.551 -0.4518 -0.0305  0.0745
 3668SOL    HW111385   2.177   2.340   0.629 -1.4421  1.3091  1.3201
 3668SOL    HW211386   2.052   2.348   0.543 -0.8427  0.8392  0.4009
 3669SOL     OW11387   0.395   1.778   2.517  0.0859 -0.1531  0.3835
 3669SOL    HW111388   0.385   1.689   2.481 -0.6802 -0.1881  0.6676
 3669SOL    HW211389   0.489   1.795   2.514  0.3787 -1.4688  1.4931
 3670SOL     OW11390   4.565   3.516   5.619 -0.6185  0.3375 -0.1848
 3670SOL    HW111391   4.554   3.427   5.650 -0.5447 -0.1356 -1.4646
 3670SOL    HW211392   4.652   3.516   5.577 -0.9979  0.7682 -0.9774
 3671SOL     OW11393   5.367   1.215   5.420  0.5449  0.0400 -0.1178
 3671SOL    HW111394   5.282   1.248   5.392  0.5642  0.8252  0.7099
 3671SOL    HW211395   5.357   1.198   5.514  0.9201 -1.1031 -0.2744
 3672SOL     OW11396   3.584   4.726   0.989  0.4737  0.6080 -0.4171
 3672SOL    HW111397   3.529   4.667   0.939  0.1280  1.4489 -1.0508
 3672SOL    HW211398   3.541   4.812   0.981  1.7262  1.2209 -0.7036
 3673SOL     OW11399   4.281   6.075   0.437  0.1788  0.0337  0.2294
 3673SOL    HW111400   4.370   6.041   0.447  0.2262  0.2549  0.5432
 3673SOL    HW211401   4.292   6.168   0.416  0.0477 -0.1443 -0.6887
 3674SOL     OW11402   3.322   5.491   3.875  0.6140 -0.1816  0.5880
 3674SOL    HW111403   3.232   5.463   3.858  0.7141  0.2085 -0.5807
 3674SOL    HW211404   3.372   5.463   3.799  0.9077  2.2135 -0.1554
 3675SOL     OW11405   2.608   4.853   5.700 -0.2169 -0.0292 -0.2829
 3675SOL    HW111406   2.656   4.784   5.745 -0.1140  0.2036 -0.0420
 3675SOL    HW211407   2.577   4.911   5.769  0.2489  0.5265 -0.5360
 3676SOL     OW11408   0.249   6.011   0.525  0.3476 -0.0463  0.3176
 3676SOL    HW111409   0.289   5.972   0.446  0.6508 -0.2048  0.5482
 3676SOL    HW211410   0.303   6.088   0.543  0.8767 -0.5504  0.9340
 3677SOL     OW11411   1.067   3.083   4.252 -0.1139  0.8319  0.0289
 3677SOL    HW111412   1.013   3.159   4.233 -1.4750 -0.2680 -0.5626
 3677SOL    HW211413   1.116   3.067   4.172 -1.7471 -0.4603 -0.7326
 3678SOL     OW11414   5.455   4.197   4.047 -0.1254  0.1279  0.6028
 3678SOL    HW111415   5.503   4.122   4.010  1.0001  1.0172  0.2205
 3678SOL    HW211416   5.467   4.267   3.982 -0.7238  0.7974  1.2127
 3679SOL     OW11417   0.697   0.323   3.440  0.2048  0.3434  0.2748
 3679SOL    HW111418   0.775   0.298   3.391  1.1008  1.4089  1.1351
 3679SOL    HW211419   0.660   0.396   3.391 -0.4178 -0.3308 -0.2780
 3680SOL     OW11420   0.085   0.037   5.692 -0.2195  0.0860 -0.0527
 3680SOL    HW111421   0.140  -0.013   5.752 -0.6339 -0.6348 -0.2716
 3680SOL    HW211422   0.048   0.107   5.746  2.6305  1.9318 -0.3732
 3681SOL     OW11423   0.771   1.859   4.853 -0.1804  0.1514  0.5004
 3681SOL    HW111424   0.716   1.801   4.800  0.8053  1.4358 -2.0479
 3681SOL    HW211425   0.745   1.948   4.826  1.0794  0.8155  1.4170
 3682SOL     OW11426   5.093   4.777   2.496  0.1565 -0.3938 -0.4478
 3682SOL    HW111427   5.170   4.823   2.462  0.6046 -0.1140  0.9049
 3682SOL    HW211428   5.065   4.721   2.424  1.6254 -0.4958 -0.9626
 3683SOL     OW11429   1.536   2.210   1.176  0.0680  0.1371  0.0258
 3683SOL    HW111430   1.562   2.295   1.141  1.2337 -0.4143 -0.4655
 3683SOL    HW211431   1.469   2.178   1.115  0.3927  0.2311 -0.3819
 3684SOL     OW11432   0.651   5.299   0.620  0.1776  0.3412 -0.3897
 3684SOL    HW111433   0.733   5.341   0.647  0.5051 -0.2393 -0.4741
 3684SOL    HW211434   0.598   5.296   0.700  0.0598  1.1243 -0.4345
 3685SOL     OW11435   2.747   4.029   4.323 -0.2307 -0.4550  0.2557
 3685SOL    HW111436   2.766   4.068   4.408 -0.2904 -0.7629  0.4115
 3685SOL    HW211437   2.828   3.986   4.297  0.2919  1.0220 -0.6003
 3686SOL     OW11438   3.687   6.328   1.488  1.0972  0.1015 -0.0131
 3686SOL    HW111439   3.718   6.272   1.417  0.9032  0.3342 -0.2859
 3686SOL    HW211440   3.741   6.406   1.483 -1.0950  1.5686 -2.0554
 3687SOL     OW11441   6.152   0.033   3.523 -0.3014  0.1243 -0.3498
 3687SOL    HW111442   6.080  -0.025   3.547  0.7498 -0.5527  1.2615
 3687SOL    HW211443   6.219   0.017   3.589  0.3403  2.5816 -0.3436
 3688SOL     OW11444   1.997   2.171   1.292 -0.0512  0.0127  0.0612
 3688SOL    HW111445   1.962   2.161   1.204  0.2659 -0.4748 -0.0121
 3688SOL    HW211446   2.042   2.088   1.310  1.1645  0.6649  0.1057
 3689SOL     OW11447   0.240   6.253   4.550 -0.2871  0.2189  0.0890
 3689SOL    HW111448   0.168   6.210   4.505 -2.0031  0.4831  2.4911
 3689SOL    HW211449   0.247   6.206   4.634  2.1185  0.4141  0.0436
 3690SOL     OW11450   1.022   5.509   1.017 -0.0719 -0.0457 -0.4894
 3690SOL    HW111451   1.076   5.555   0.954  0.8085  0.2827  0.4939
 3690SOL    HW211452   0.934   5.545   1.004  0.1462  0.1733 -1.3654
 3691SOL     OW11453   0.330   2.101   3.983  0.3365  0.6575  0.5639
 3691SOL    HW111454   0.406   2.119   3.927  1.1279 -0.2713  1.3287
 3691SOL    HW211455   0.325   2.176   4.042  0.5538  0.7970  0.4063
 3692SOL     OW11456   3.970   2.924   4.238  0.4340  0.2876 -0.3597
 3692SOL    HW111457   4.027   2.980   4.186  1.4111 -1.2520 -1.0000
 3692SOL    HW211458   4.022   2.845   4.254 -0.9242 -0.4699  0.4565
 3693SOL     OW11459   2.688   6.232   2.012 -0.4092  0.3194  0.4790
 3693SOL    HW111460   2.625   6.184   1.958 -0.0860 -2.1908  2.2547
 3693SOL    HW211461   2.643   6.245   2.095  1.0244 -0.5917  1.4160
 3694SOL     OW11462   5.598   2.647   0.362  0.0982  0.7127  0.3107
 3694SOL    HW111463   5.562   2.562   0.389  1.7014  0.3877  1.5669
 3694SOL    HW211464   5.549   2.711   0.413 -1.0663  0.5475 -0.5825
 3695SOL     OW11465   2.004   0.796   1.303  0.3240  0.3323  0.3290
 3695SOL    HW111466   1.978   0.870   1.358  1.8280 -0.7797  2.5937
 3695SOL    HW211467   2.094   0.778   1.328  0.1672 -1.9072 -0.5966
 3696SOL     OW11468   2.770   0.165   5.938 -0.1824 -0.2604 -0.2468
 3696SOL    HW111469   2.841   0.110   5.972 -0.3407 -0.9527 -1.0166
 3696SOL    HW211470   2.716   0.185   6.014  1.0075  0.5252  0.4002
 3697SOL     OW11471   4.420   3.640   5.214 -0.3537 -0.2010  0.4546
 3697SOL    HW111472   4.346   3.621   5.272  0.0058  0.1804  1.0462
 3697SOL    HW211473   4.390   3.714   5.160 -0.9848 -1.0848 -0.4080
 3698SOL     OW11474   1.151   5.010   1.856 -0.0048 -0.5119  0.3101
 3698SOL    HW111475   1.188   5.044   1.938  0.2159 -1.0074  0.4176
 3698SOL    HW211476   1.207   4.936   1.834 -0.4420 -0.7615  0.0401
 3699SOL     OW11477   5.725   0.971   1.649 -0.5003  0.3189 -0.6900
 3699SOL    HW111478   5.801   0.988   1.705  0.3902  0.5314 -1.9436
 3699SOL    HW211479   5.674   0.906   1.697 -0.0801  0.9712  0.6625
 3700SOL     OW11480   0.648   1.954   3.917 -0.1408  0.5314  0.0980
 3700SOL    HW111481   0.582   1.893   3.950 -0.9927  0.5611 -1.4981
 3700SOL    HW211482   0.649   1.939   3.823  2.1391  0.5473  0.0987
 3701SOL     OW11483   4.255   1.257   0.278  0.2987 -0.1039  0.0670
 3701SOL    HW111484   4.285   1.213   0.357  0.8379  1.0564  0.5222
 3701SOL    HW211485   4.225   1.343   0.309  2.6475  1.2496 -1.2911
 3702SOL     OW11486   4.758   1.925   1.705 -0.3874 -0.5025 -0.6088
 3702SOL    HW111487   4.842   1.930   1.751  0.2102  1.3184 -1.8478
 3702SOL    HW211488   4.735   2.017   1.687 -1.7254 -1.0785 -1.9417
 3703SOL     OW11489   5.365   3.073   2.723 -0.0560  0.4047  0.0169
 3703SOL    HW111490   5.379   3.040   2.634  1.6628 -0.4551  0.6021
 3703SOL    HW211491   5.432   3.141   2.734  1.2148 -1.0590  1.4580
 3704SOL     OW11492   3.737   2.002   3.390  0.0882  0.0518  0.0304
 3704SOL    HW111493   3.767   2.086   3.425  0.2535 -0.6307  1.5361
 3704SOL    HW211494   3.816   1.949   3.383 -0.0915 -0.1586 -0.4313
 3705SOL     OW11495   1.822   0.471   5.864  0.0889 -0.1072 -0.3468
 3705SOL    HW111496   1.822   0.500   5.772 -1.0840 -0.6169 -0.5055
 3705SOL    HW211497   1.750   0.409   5.870 -0.2851  0.4457  1.0915
 3706SOL     OW11498   3.596   5.226   5.288  0.3744  0.1013  0.3024
 3706SOL    HW111499   3.620   5.294   5.351  0.8281  0.9641 -0.8005
 3706SOL    HW211500   3.500   5.225   5.289  0.3766 -0.8097  1.9718
 3707SOL     OW11501   5.903   5.240   2.025  0.1976 -0.3352 -0.5043
 3707SOL    HW111502   5.948   5.158   2.044  0.4546  0.1606  1.0808
 3707SOL    HW211503   5.811   5.214   2.014 -0.0672 -0.6216  1.9507
 3708SOL     OW11504   3.814   3.649   1.080  0.4981  0.6294  0.2996
 3708SOL    HW111505   3.723   3.621   1.089  0.5004  0.0930 -1.3010
 3708SOL    HW211506   3.809   3.737   1.044  0.6285 -0.1748 -1.7551
 3709SOL     OW11507   4.735   1.106   0.623  0.1135  0.6682 -0.2784
 3709SOL    HW111508   4.698   1.065   0.545 -0.0977  0.1385  0.0988
 3709SOL    HW211509   4.663   1.159   0.657  0.1308  0.7118 -0.3100
 3710SOL     OW11510   1.586   3.614   4.675 -0.0520 -0.2769  0.4693
 3710SOL    HW111511   1.541   3.542   4.631 -0.2461 -1.1705  2.0895
 3710SOL    HW211512   1.581   3.592   4.768  1.4062  0.9652  0.8579
 3711SOL     OW11513   0.697   6.305   5.830  0.3281 -0.0480 -0.0261
 3711SOL    HW111514   0.666   6.218   5.805  2.6484 -1.7657  2.7390
 3711SOL    HW211515   0.786   6.309   5.797  0.4477  1.0121  0.4097
 3712SOL     OW11516   0.389   2.812   3.935 -0.2394 -0.4436 -0.4805
 3712SOL    HW111517   0.295   2.832   3.944  0.1202  0.7983  0.6341
 3712SOL    HW211518   0.430   2.897   3.920  1.2363 -0.3512  3.4517
 3713SOL     OW11519   5.699   0.369   3.404  0.4928  0.0975 -0.4494
 3713SOL    HW111520   5.671   0.281   3.377 -0.5912  0.0235  0.8465
 3713SOL    HW211521   5.629   0.427   3.374  1.3423  0.5738 -1.5565
 3714SOL     OW11522   4.484   0.719   6.156 -0.1903 -0.5025 -0.1702
 3714SOL    HW111523   4.418   0.747   6.093  0.4943  0.6760 -0.3850
 3714SOL    HW211524   4.554   0.681   6.103 -0.4386 -1.2123  0.0125
 3715SOL     OW11525   1.388   3.966   1.919  0.5803 -0.3826  0.1469
 3715SOL    HW111526   1.357   3.877   1.935  0.8565 -0.5486 -0.2327
 3715SOL    HW211527   1.479   3.956   1.892  0.5922  0.0108  0.0307
 3716SOL     OW11528   0.426   4.352   1.579  0.5809 -0.9806 -0.6207
 3716SOL    HW111529   0.513   4.322   1.605 -0.1349 -0.8648  1.9615
 3716SOL    HW211530   0.442   4.409   1.504  2.6686 -1.4472 -0.5557
 3717SOL     OW11531   0.678   2.374   5.116 -0.5262  0.6500 -0.1475
 3717SOL    HW111532   0.589   2.407   5.100 -0.9271 -1.1903 -1.9928
 3717SOL    HW211533   0.726   2.449   5.150 -2.8528  1.6255  1.0955
 3718SOL     OW11534   0.505   1.741   0.298 -0.3969  0.4176  0.1132
 3718SOL    HW111535   0.574   1.694   0.252 -1.0983  0.0525 -0.5629
 3718SOL    HW211536   0.463   1.674   0.353 -0.3794  0.5890  0.3372
 3719SOL     OW11537   4.665   3.464   0.832 -0.4349 -0.6567 -0.0202
 3719SOL    HW111538   4.608   3.398   0.872  0.8324 -0.7250  1.7647
 3719SOL    HW211539   4.645   3.545   0.879 -0.2958 -0.3001 -0.5696
 3720SOL     OW11540   2.893   0.910   2.098 -0.2349  0.3547  0.2903
 3720SOL    HW111541   2.809   0.868   2.076  1.2210 -1.6641 -1.5583
 3720SOL    HW211542   2.880   1.002   2.075 -1.7847 -0.0293 -0.4283
 3721SOL     OW11543   5.481   2.579   3.697 -0.6662 -0.5568  0.0375
 3721SOL    HW111544   5.560   2.532   3.724 -0.1526  0.6385  0.6493
 3721SOL    HW211545   5.438   2.603   3.779 -1.4651 -0.8821 -0.2893
 3722SOL     OW11546   2.120   4.517   4.844  0.6418  0.6348  0.4446
 3722SOL    HW111547   2.075   4.544   4.764 -0.8044  0.4015  1.1735
 3722SOL    HW211548   2.078   4.567   4.914 -0.8781 -2.1740  1.5862
 3723SOL     OW11549   0.568   3.900   1.334  0.4377  0.3272 -0.3893
 3723SOL    HW111550   0.556   3.854   1.251  0.8567 -1.8009  0.6780
 3723SOL    HW211551   0.663   3.906   1.345  0.4228 -1.1906  0.8403
 3724SOL     OW11552   1.477   5.230   2.986 -0.2493  0.2647  0.7029
 3724SOL    HW111553   1.530   5.211   3.063  1.0069 -1.1165 -0.5078
 3724SOL    HW211554   1.410   5.162   2.985 -1.1001  1.0765  1.3240
 3725SOL     OW11555   0.151   1.236   5.514  0.2339 -0.5623  0.3115
 3725SOL    HW111556   0.129   1.211   5.604 -1.2973 -1.5433 -0.3035
 3725SOL    HW211557   0.216   1.172   5.486  0.7874 -0.1932  0.7567
 3726SOL     OW11558   0.649   3.133   2.600  0.1687  0.0453 -0.0460
 3726SOL    HW111559   0.661   3.116   2.693  1.0337  1.3862  0.1167
 3726SOL    HW211560   0.559   3.108   2.581 -0.3977  0.9469  1.4381
 3727SOL     OW11561   0.961   3.408   5.936  0.7691 -0.1198  0.0009
 3727SOL    HW111562   1.026   3.446   5.876  1.7753 -0.1435  1.0642
 3727SOL    HW211563   1.003   3.410   6.022 -0.0797 -1.4718  0.4667
 3728SOL     OW11564   3.696   2.199   2.986 -0.8344  0.2507 -0.5762
 3728SOL    HW111565   3.766   2.231   3.044  0.0718 -1.7725 -0.5255
 3728SOL    HW211566   3.615   2.228   3.028 -0.1250  0.3071  0.7750
 3729SOL     OW11567   1.320   2.557   1.383 -0.0914 -0.1651  0.2326
 3729SOL    HW111568   1.359   2.477   1.418 -0.6073 -0.2521  0.6175
 3729SOL    HW211569   1.371   2.577   1.305 -0.0789 -0.9800  0.0325
 3730SOL     OW11570   3.951   4.722   5.952  0.4706 -0.8507 -0.5131
 3730SOL    HW111571   3.876   4.775   5.981  1.1768  1.0336 -1.9388
 3730SOL    HW211572   3.915   4.634   5.940 -0.9072 -0.5704  1.2889
 3731SOL     OW11573   4.120   4.611   5.385 -0.3132  0.7983 -0.2580
 3731SOL    HW111574   4.184   4.670   5.343  0.2309 -0.9764 -1.9914
 3731SOL    HW211575   4.047   4.608   5.323 -0.0914 -0.7670 -0.4678
 3732SOL     OW11576   2.924   2.313   5.171 -0.6204 -0.2498 -0.1609
 3732SOL    HW111577   2.959   2.273   5.092 -0.1424  1.8209 -1.0484
 3732SOL    HW211578   2.829   2.317   5.156 -0.5437  0.0184 -0.5739
 3733SOL     OW11579   3.798   5.925   3.778  0.0798  0.1184  0.1883
 3733SOL    HW111580   3.885   5.895   3.805 -0.1684 -0.3974  0.4187
 3733SOL    HW211581   3.786   5.888   3.690 -0.7168 -1.4934  0.9437
 3734SOL     OW11582   5.870   3.349   0.607  0.1342 -0.2123 -0.0647
 3734SOL    HW111583   5.786   3.354   0.561 -0.0540 -2.4036 -0.0297
 3734SOL    HW211584   5.921   3.286   0.555  1.4358  0.4408  0.4115
 3735SOL     OW11585   4.035   4.940   4.375  0.1818  0.0911 -0.0947
 3735SOL    HW111586   4.123   4.951   4.340  0.0865 -2.2063 -1.1108
 3735SOL    HW211587   4.008   5.029   4.400  1.6081  1.2888 -2.6091
 3736SOL     OW11588   1.067   2.677   1.395  0.5193 -0.2955 -0.3099
 3736SOL    HW111589   1.011   2.606   1.429  1.0194  0.4493  2.1571
 3736SOL    HW211590   1.154   2.639   1.392  0.5948 -0.1390 -0.0820
 3737SOL     OW11591   4.210   2.599   5.837 -0.1211 -0.1184 -0.3082
 3737SOL    HW111592   4.299   2.570   5.852  0.4082  1.1855 -0.8428
 3737SOL    HW211593   4.193   2.662   5.907 -1.0288 -1.2116  0.4727
 3738SOL     OW11594   4.324   2.123   2.331 -0.0715  0.4649  0.1798
 3738SOL    HW111595   4.343   2.038   2.291 -0.9554  0.3580 -0.0071
 3738SOL    HW211596   4.311   2.103   2.424 -1.6737  0.2001 -0.1011
 3739SOL     OW11597   5.461   0.752   2.835 -1.0032  0.0105  0.0615
 3739SOL    HW111598   5.437   0.659   2.844  0.4300 -0.2283  1.8316
 3739SOL    HW211599   5.555   0.754   2.853 -0.6268  1.5639 -1.9037
 3740SOL     OW11600   5.170   1.550   2.829  0.1580 -0.5498 -0.3652
 3740SOL    HW111601   5.165   1.637   2.789 -0.7056 -0.8337 -0.8654
 3740SOL    HW211602   5.080   1.517   2.829  0.0236 -0.3005  2.3958
 3741SOL     OW11603   1.444   2.658   5.573  0.4943 -0.1123  0.5349
 3741SOL    HW111604   1.395   2.730   5.534 -0.8003 -1.4002 -0.2823
 3741SOL    HW211605   1.536   2.679   5.557  0.1586  1.5362  0.6652
 3742SOL     OW11606   5.811   3.241   2.237 -0.2988  0.0248 -0.4175
 3742SOL    HW111607   5.805   3.158   2.190 -2.8432 -0.7734  1.1812
 3742SOL    HW211608   5.764   3.225   2.319 -0.6330  2.9685  0.0180
 3743SOL     OW11609   5.807   5.711   2.463  0.4433 -0.7174  0.2644
 3743SOL    HW111610   5.865   5.701   2.539  0.8125 -2.7235 -0.2672
 3743SOL    HW211611   5.865   5.711   2.387  0.0858  1.4613 -0.0300
 3744SOL     OW11612   3.271   4.008   5.648  0.3956  0.0994 -0.1546
 3744SOL    HW111613   3.206   4.075   5.669  1.8472  1.1957  1.0217
 3744SOL    HW211614   3.266   3.998   5.553 -1.1767  0.4780 -0.1214
 3745SOL     OW11615   3.072   2.803   1.031  0.0400  0.2650  0.3296
 3745SOL    HW111616   3.161   2.794   1.067 -0.5932 -2.8941  1.3192
 3745SOL    HW211617   3.082   2.782   0.938  0.6544  2.1695 -0.0627
 3746SOL     OW11618   4.202   5.588   5.793 -0.1986 -0.0394 -0.1620
 3746SOL    HW111619   4.200   5.504   5.749  0.3450 -0.1067 -0.0626
 3746SOL    HW211620   4.159   5.572   5.877 -1.0029  0.0286 -0.5576
 3747SOL     OW11621   5.877   5.535   2.111 -0.3848  0.4507  0.0658
 3747SOL    HW111622   5.863   5.557   2.202 -0.1921  1.5732 -0.1751
 3747SOL    HW211623   5.879   5.439   2.109  2.0286  0.4394  1.5879
 3748SOL     OW11624   6.277   1.575   3.516 -0.1002 -0.0978  0.2047
 3748SOL    HW111625   6.292   1.518   3.591  2.1692  0.3576  0.1321
 3748SOL    HW211626   6.270   1.515   3.441 -2.2290 -0.5417  0.7350
 3749SOL     OW11627   4.794   0.032   6.183  0.3567  0.0013 -0.3456
 3749SOL    HW111628   4.826  -0.024   6.112  0.0602 -0.6720  0.0447
 3749SOL    HW211629   4.728  -0.021   6.228  1.6911 -0.1985  1.4291
 3750SOL     OW11630   4.831   2.001   4.761 -0.0883  0.3860  0.0685
 3750SOL    HW111631   4.842   2.058   4.837  0.4078  1.1257 -0.5516
 3750SOL    HW211632   4.915   2.005   4.716  0.7763 -2.7082  1.2853
 3751SOL     OW11633   4.708   3.549   2.804  0.2368 -0.2859  0.8569
 3751SOL    HW111634   4.633   3.517   2.754 -0.6484 -0.7166  2.4287
 3751SOL    HW211635   4.761   3.471   2.821  1.5960  0.1582 -1.0956
 3752SOL     OW11636   2.914   2.173   0.955 -0.3201  0.0237 -0.1101
 3752SOL    HW111637   2.882   2.215   0.875  1.8637  0.7921 -0.6078
 3752SOL    HW211638   3.001   2.142   0.932  0.4171  0.4213  2.0521
 3753SOL     OW11639   5.894   1.316   2.213  0.3337 -0.2143 -0.5978
 3753SOL    HW111640   5.816   1.369   2.197  0.3264 -0.4130 -1.2379
 3753SOL    HW211641   5.862   1.241   2.264  0.2245  0.0559 -0.2754
 3754SOL     OW11642   0.358   4.287   0.083  0.0251 -0.6022  0.1006
 3754SOL    HW111643   0.328   4.377   0.085 -0.5897 -0.7766 -0.9093
 3754SOL    HW211644   0.452   4.293   0.065  0.2332 -0.1309  1.2803
 3755SOL     OW11645   2.642   5.874   0.570 -0.8653  0.6531  0.3237
 3755SOL    HW111646   2.640   5.936   0.497 -3.3935  2.8396  2.1723
 3755SOL    HW211647   2.625   5.928   0.647 -3.4154 -2.3693  1.9645
 3756SOL     OW11648   0.253   5.479   3.035  0.5623 -0.3551 -0.7669
 3756SOL    HW111649   0.272   5.454   3.126  1.1809 -1.5453 -1.2043
 3756SOL    HW211650   0.309   5.555   3.019  2.5666 -1.8154 -0.9905
 3757SOL     OW11651   5.724   2.999   0.588  0.0607 -0.0680 -0.0372
 3757SOL    HW111652   5.695   2.926   0.643 -0.6538 -0.0654 -0.3943
 3757SOL    HW211653   5.654   3.064   0.595  0.7706  0.6567  0.4073
 3758SOL     OW11654   2.298   5.251   2.405  0.1350 -0.1485 -0.1633
 3758SOL    HW111655   2.387   5.216   2.405 -0.9791 -3.1424  0.3408
 3758SOL    HW211656   2.290   5.295   2.490  1.1396  0.1149 -0.2066
 3759SOL     OW11657   1.788   4.525   3.305 -0.3008  0.1517 -1.1820
 3759SOL    HW111658   1.864   4.527   3.246 -1.5760  0.6027 -2.8407
 3759SOL    HW211659   1.796   4.441   3.351 -0.6204 -1.4072 -3.8389
 3760SOL     OW11660   4.723   1.731   5.605  0.3035  0.0856 -0.0158
 3760SOL    HW111661   4.733   1.769   5.693 -0.8217  0.9829 -0.2666
 3760SOL    HW211662   4.683   1.645   5.620  0.9081 -0.1281  0.4033
 3761SOL     OW11663   5.394   6.222   4.631 -0.0276  0.2971  0.2297
 3761SOL    HW111664   5.386   6.167   4.709  0.6441  0.1113  0.1705
 3761SOL    HW211665   5.432   6.163   4.565  0.0743  0.6503 -0.0264
 3762SOL     OW11666   4.046   0.291   3.616 -0.3987  0.6338  0.0918
 3762SOL    HW111667   4.008   0.213   3.658 -0.4123  0.8136  0.4153
 3762SOL    HW211668   4.008   0.291   3.528  0.2200 -0.1687 -0.1810
 3763SOL     OW11669   5.678   5.642   5.988  0.2744 -0.7289 -0.1217
 3763SOL    HW111670   5.721   5.581   5.930  0.3818 -0.3804 -0.4109
 3763SOL    HW211671   5.683   5.726   5.943 -0.2122 -0.5803  0.0951
 3764SOL     OW11672   4.038   4.235   0.508  0.0127  0.7888  0.1496
 3764SOL    HW111673   3.978   4.293   0.461  1.0081  2.1198  0.5080
 3764SOL    HW211674   4.041   4.270   0.597 -2.3694 -2.1074  1.4454
 3765SOL     OW11675   2.554   3.446   1.489 -0.2196  0.0169 -0.3786
 3765SOL    HW111676   2.551   3.367   1.544 -1.9176  1.4739  1.7071
 3765SOL    HW211677   2.611   3.506   1.537  0.5876  0.2927 -1.6640
 3766SOL     OW11678   4.010   5.723   3.434  0.6260  0.3634 -0.2674
 3766SOL    HW111679   3.925   5.720   3.478  0.6994  0.9416 -0.0702
 3766SOL    HW211680   4.073   5.701   3.503  0.6487  0.0486 -0.3859
 3767SOL     OW11681   3.674   5.543   2.408  0.0431  0.4357  0.2225
 3767SOL    HW111682   3.745   5.568   2.348 -0.9219 -0.1446 -1.1682
 3767SOL    HW211683   3.677   5.448   2.409 -1.1495  0.3893 -0.3668
 3768SOL     OW11684   3.771   2.549   6.185 -0.1587  0.0149 -0.0592
 3768SOL    HW111685   3.788   2.625   6.241 -1.0381 -1.1616  1.8395
 3768SOL    HW211686   3.830   2.561   6.110 -0.8065  2.9293 -0.1456
 3769SOL     OW11687   0.322   0.519   4.863  0.5489 -0.2291 -0.1280
 3769SOL    HW111688   0.229   0.540   4.869  0.9072  1.2515  0.6342
 3769SOL    HW211689   0.347   0.491   4.951  1.0261  0.2970 -0.0895
 3770SOL     OW11690   3.997   2.934   1.417  0.1150  0.2659  0.2876
 3770SOL    HW111691   4.037   2.864   1.365  0.6756  0.3656  0.5823
 3770SOL    HW211692   3.987   2.896   1.504  0.0754  0.4296  0.3533
 3771SOL     OW11693   6.183   1.806   6.369 -0.3257 -0.4427 -0.0343
 3771SOL    HW111694   6.223   1.777   6.451 -0.3966  0.9139  0.4957
 3771SOL    HW211695   6.102   1.849   6.397 -0.5877 -0.4012 -0.8548
 3772SOL     OW11696   3.204   5.870   4.191 -0.7797 -0.0191  0.6144
 3772SOL    HW111697   3.210   5.831   4.104 -1.2621  0.0827  0.5339
 3772SOL    HW211698   3.265   5.819   4.245 -0.0859  0.2545  0.0971
 3773SOL     OW11699   3.119   5.214   4.192 -0.2867 -0.0108 -0.0698
 3773SOL    HW111700   3.104   5.179   4.280 -0.1602 -1.6822 -0.6860
 3773SOL    HW211701   3.059   5.289   4.185  1.2233  1.4699  2.1825
 3774SOL     OW11702   4.356   4.667   5.604  0.4214 -0.6174  0.2754
 3774SOL    HW111703   4.285   4.661   5.669 -0.8790  0.1703 -1.0330
 3774SOL    HW211704   4.433   4.689   5.656 -1.0731  2.4518  1.3439
 3775SOL     OW11705   2.554   6.012   2.997  0.6209 -0.3772  0.0574
 3775SOL    HW111706   2.473   6.005   2.946 -1.0650  2.9681  2.1179
 3775SOL    HW211707   2.619   6.045   2.934 -0.6633  0.8167 -0.6871
 3776SOL     OW11708   3.312   1.451   2.826 -0.0165  0.9757 -0.1903
 3776SOL    HW111709   3.241   1.510   2.850 -1.4211 -0.0548 -1.6945
 3776SOL    HW211710   3.341   1.483   2.740 -0.6555 -0.3789 -0.9211
 3777SOL     OW11711   4.187   3.390   1.624 -0.0293 -0.4540 -0.4271
 3777SOL    HW111712   4.213   3.436   1.704  1.0153 -1.3411 -0.2460
 3777SOL    HW211713   4.224   3.443   1.553 -1.8746  0.9393 -0.4155
 3778SOL     OW11714   4.996   1.920   5.648  0.5230  0.4407  0.1584
 3778SOL    HW111715   4.907   1.914   5.614  0.3419  0.1059  0.6756
 3778SOL    HW211716   4.992   1.874   5.732  1.1129  0.6807  0.3197
 3779SOL     OW11717   2.251   0.925   3.631  0.1438  0.1256 -0.2120
 3779SOL    HW111718   2.245   0.830   3.638 -0.7227  0.1636 -0.2885
 3779SOL    HW211719   2.232   0.957   3.719 -0.5140  0.2503 -0.3900
 3780SOL     OW11720   2.704   5.569   4.538  0.0105  0.1127 -0.3968
 3780SOL    HW111721   2.705   5.652   4.491 -1.7233  0.2441 -0.2217
 3780SOL    HW211722   2.635   5.578   4.603  0.5729 -1.0503  0.3877
 3781SOL     OW11723   2.783   2.067   6.180  0.1136 -0.2334  0.2536
 3781SOL    HW111724   2.836   2.073   6.259 -0.4775  0.9896  0.5709
 3781SOL    HW211725   2.786   2.155   6.142 -1.4235 -0.2275  0.1101
 3782SOL     OW11726   5.390   5.990   5.541 -0.3654  0.5577 -0.7076
 3782SOL    HW111727   5.441   6.071   5.544  0.8232 -0.1691 -1.1462
 3782SOL    HW211728   5.395   5.956   5.630  0.5599  0.0935 -0.9347
 3783SOL     OW11729   2.287   0.223   3.053  0.2800  0.7375 -0.1635
 3783SOL    HW111730   2.217   0.158   3.044  0.3822  0.3719  1.5007
 3783SOL    HW211731   2.367   0.171   3.060  0.4826  1.0792  0.0686
 3784SOL     OW11732   5.940   6.055   2.466 -0.0789  0.3332 -0.0438
 3784SOL    HW111733   5.906   6.109   2.395  0.6736  0.8596 -0.0078
 3784SOL    HW211734   6.016   6.010   2.428 -0.5627 -0.5173 -0.0059
 3785SOL     OW11735   2.861   2.952   5.739 -0.2762 -0.6579  0.2204
 3785SOL    HW111736   2.796   2.993   5.683 -0.6645 -1.7729 -0.1664
 3785SOL    HW211737   2.867   2.862   5.707  0.3819 -0.9727  1.1887
 3786SOL     OW11738   2.598   2.280   1.925  0.5874  0.4346  0.5097
 3786SOL    HW111739   2.565   2.356   1.971  1.5657  0.9713  0.3343
 3786SOL    HW211740   2.520   2.241   1.884  0.3283  2.3995 -0.9512
 3787SOL     OW11741   0.395   0.505   0.816 -0.2399 -0.3823  0.2079
 3787SOL    HW111742   0.440   0.436   0.864 -0.9193 -1.9474 -1.3547
 3787SOL    HW211743   0.323   0.532   0.875  1.8626  1.2022  2.1353
 3788SOL     OW11744   4.656   4.475   4.799 -0.5896 -0.3027 -0.0470
 3788SOL    HW111745   4.604   4.555   4.806 -1.6224 -0.9894  0.2578
 3788SOL    HW211746   4.741   4.498   4.835 -0.5503  0.9572 -0.9189
 3789SOL     OW11747   6.355   4.265   1.391 -0.1007 -0.0224 -0.3197
 3789SOL    HW111748   6.372   4.342   1.446 -1.0783 -0.0738  0.0627
 3789SOL    HW211749   6.407   4.281   1.312  2.7275 -0.8033  1.3271
 3790SOL     OW11750   6.352   0.123   1.500 -0.4919 -0.3984 -0.6071
 3790SOL    HW111751   6.282   0.131   1.436 -1.1863  0.0704  0.2079
 3790SOL    HW211752   6.319   0.167   1.578  1.5262  1.6910 -0.8901
 3791SOL     OW11753   4.193   0.520   2.585  0.5737  0.1372 -0.0832
 3791SOL    HW111754   4.232   0.517   2.498  0.4159  1.2286 -0.2011
 3791SOL    HW211755   4.130   0.592   2.581  0.2956 -0.0409  0.8270
 3792SOL     OW11756   1.657   0.083   4.537 -0.8519  0.0239 -0.1552
 3792SOL    HW111757   1.696  -0.004   4.543 -0.3524  0.1842 -0.9664
 3792SOL    HW211758   1.577   0.070   4.486 -1.2026 -0.0985  0.4307
 3793SOL     OW11759   4.130   5.002   5.332 -0.0644  0.4179 -0.6588
 3793SOL    HW111760   4.098   4.988   5.243 -0.9546  1.2902 -0.4858
 3793SOL    HW211761   4.189   4.928   5.349  0.7196  0.6656 -2.2505
 3794SOL     OW11762   0.436   5.821   3.355  0.3060 -0.6119  0.1329
 3794SOL    HW111763   0.457   5.731   3.382 -1.0621 -1.1364 -0.4624
 3794SOL    HW211764   0.469   5.876   3.426 -0.4501 -1.7332  1.3816
 3795SOL     OW11765   4.821   3.730   6.378 -0.2547 -0.5208  0.2737
 3795SOL    HW111766   4.747   3.782   6.347 -0.1340 -2.1874 -2.9342
 3795SOL    HW211767   4.898   3.781   6.354 -0.2243 -0.7839 -0.1816
 3796SOL     OW11768   4.224   2.836   0.530 -0.0068 -0.0937 -0.1711
 3796SOL    HW111769   4.185   2.903   0.587 -0.2114 -0.1345 -0.2609
 3796SOL    HW211770   4.308   2.873   0.505 -0.7176  0.7744 -1.3585
 3797SOL     OW11771   1.553   3.065   3.784 -0.0565 -0.0618 -0.5166
 3797SOL    HW111772   1.470   3.018   3.786 -0.1319  0.0227 -1.3496
 3797SOL    HW211773   1.564   3.091   3.692 -0.8111  2.9868  0.2048
 3798SOL     OW11774   0.319   2.337   4.105 -0.0970  0.3855  0.6015
 3798SOL    HW111775   0.286   2.420   4.070 -0.5111  0.0910  0.2940
 3798SOL    HW211776   0.355   2.360   4.190 -0.6892  0.7865  0.7471
 3799SOL     OW11777   4.449   1.709   4.846  0.2943  0.1609 -0.1244
 3799SOL    HW111778   4.492   1.631   4.881 -1.0987  0.0448  1.3715
 3799SOL    HW211779   4.520   1.759   4.806  1.8216 -0.1040  2.1727
 3800SOL     OW11780   0.708   4.474   4.219  0.0168  0.0150  0.2857
 3800SOL    HW111781   0.721   4.419   4.142  1.7569  0.4991  0.2299
 3800SOL    HW211782   0.661   4.417   4.281 -0.3348 -0.7487 -0.6599
 3801SOL     OW11783   3.195   5.402   4.999 -0.0765  0.2038  0.0258
 3801SOL    HW111784   3.210   5.362   5.084  2.2857  1.1704  0.1147
 3801SOL    HW211785   3.151   5.485   5.018 -1.3527 -0.4929  0.1390
 3802SOL     OW11786   2.553   0.446   0.681  0.4657 -0.3362  0.4857
 3802SOL    HW111787   2.571   0.352   0.685 -0.9034 -0.9186 -3.6999
 3802SOL    HW211788   2.639   0.486   0.670  0.7524 -1.6106 -2.5702
 3803SOL     OW11789   1.431   5.028   0.652 -0.5040 -0.1819  0.3395
 3803SOL    HW111790   1.398   5.115   0.677  1.4538  0.8590 -0.5924
 3803SOL    HW211791   1.499   5.010   0.717 -1.4374 -1.4090  1.0080
 3804SOL     OW11792   4.545   4.278   2.390 -0.2230 -0.4301  0.4727
 3804SOL    HW111793   4.511   4.344   2.451 -0.1867 -0.3704  0.4282
 3804SOL    HW211794   4.516   4.195   2.426 -0.6978 -0.3593  0.2559
 3805SOL     OW11795   1.115   0.040   5.643 -0.1452 -0.2809 -0.0835
 3805SOL    HW111796   1.095   0.128   5.674 -0.3997  0.2044 -1.5937
 3805SOL    HW211797   1.211   0.034   5.646 -0.1251  0.0712 -0.0509
 3806SOL     OW11798   5.968   5.147   0.808 -0.4774 -0.2999  0.6144
 3806SOL    HW111799   5.986   5.054   0.820 -2.5059 -0.8715 -0.5561
 3806SOL    HW211800   5.930   5.153   0.720 -1.0009  1.5387  0.9450
 3807SOL     OW11801   0.569   4.861   3.506 -0.7478 -0.0982 -0.0583
 3807SOL    HW111802   0.589   4.940   3.557  1.5098 -0.1329 -0.8304
 3807SOL    HW211803   0.653   4.815   3.500 -2.1383 -2.8031  0.7720
 3808SOL     OW11804   5.485   2.271   5.945  0.4390  0.2941  0.0933
 3808SOL    HW111805   5.560   2.328   5.966 -0.6750  1.0291  2.2616
 3808SOL    HW211806   5.426   2.281   6.020 -1.2332 -1.2999 -0.9733
 3809SOL     OW11807   4.429   5.925   1.761 -0.1215 -0.4649 -0.2975
 3809SOL    HW111808   4.409   5.919   1.668 -0.9047 -0.3586 -0.1403
 3809SOL    HW211809   4.477   5.844   1.780 -1.2217 -1.1774 -0.4895
 3810SOL     OW11810   4.461   3.665   2.492 -0.2742  0.4137 -0.4906
 3810SOL    HW111811   4.463   3.580   2.537  1.3874  0.2432 -0.8471
 3810SOL    HW211812   4.378   3.704   2.518 -1.2699 -1.5224 -0.6823
 3811SOL     OW11813   2.672   2.150   1.110  0.2032 -0.7060  0.1828
 3811SOL    HW111814   2.663   2.069   1.059 -0.1963  0.3836 -1.5379
 3811SOL    HW211815   2.763   2.176   1.100  0.6024 -1.5089  1.6393
 3812SOL     OW11816   2.932   1.417   5.764 -0.6399  0.2927 -0.8124
 3812SOL    HW111817   2.912   1.377   5.848  2.3509  0.1006 -0.1456
 3812SOL    HW211818   2.904   1.508   5.773 -1.9140 -0.1484 -0.2342
 3813SOL     OW11819   0.266   1.824   5.517  1.0401 -0.4132 -0.6004
 3813SOL    HW111820   0.307   1.742   5.542  0.7132  0.1760  1.9981
 3813SOL    HW211821   0.305   1.890   5.574  1.3036  1.2886 -2.6360
 3814SOL     OW11822   3.522   4.984   1.676 -0.1116  0.2034 -0.1676
 3814SOL    HW111823   3.606   5.028   1.659  0.2246 -0.2094  0.4160
 3814SOL    HW211824   3.476   5.042   1.736  1.7839 -1.8499  3.4552
 3815SOL     OW11825   3.162   6.036   4.523 -0.2708 -0.1446 -0.2750
 3815SOL    HW111826   3.128   5.947   4.513 -1.7111  0.5429 -1.7623
 3815SOL    HW211827   3.248   6.024   4.563 -0.5119 -2.1965 -0.2956
 3816SOL     OW11828   4.982   5.865   3.100 -0.5821 -0.0856  0.0571
 3816SOL    HW111829   5.063   5.822   3.071 -0.0240  0.7564  0.3689
 3816SOL    HW211830   4.994   5.957   3.077  0.3799  0.8590  4.0583
 3817SOL     OW11831   1.139   6.242   3.526 -0.3429  0.3006 -0.5819
 3817SOL    HW111832   1.047   6.224   3.546 -0.2886  0.0944 -0.5240
 3817SOL    HW211833   1.154   6.330   3.562 -0.2292 -0.0868  0.3438
 3818SOL     OW11834   2.248   0.730   1.490  0.2483 -0.0790  0.1357
 3818SOL    HW111835   2.274   0.737   1.582  2.4508  0.7241 -0.5254
 3818SOL    HW211836   2.226   0.637   1.479 -2.4857  0.2660  2.0542
 3819SOL     OW11837   0.387   1.965   1.974  1.0226 -0.0273  0.5129
 3819SOL    HW111838   0.364   1.899   1.909  1.2016  0.3190  0.1023
 3819SOL    HW211839   0.377   1.920   2.058  0.4616 -0.3688  0.2636
 3820SOL     OW11840   4.015   4.863   5.718  0.6384  0.6575  0.0988
 3820SOL    HW111841   3.973   4.855   5.804 -0.6869  0.0134 -0.5945
 3820SOL    HW211842   4.097   4.814   5.727  1.9323  3.0460  1.8711
 3821SOL     OW11843   1.168   1.795   5.718  0.3551 -0.1940  0.1170
 3821SOL    HW111844   1.241   1.734   5.704  0.0079 -0.2055 -1.8443
 3821SOL    HW211845   1.091   1.739   5.728  0.3071 -0.1321  0.0928
 3822SOL     OW11846   1.408   3.701   2.016  0.2088  0.0933 -0.0135
 3822SOL    HW111847   1.480   3.740   2.064 -0.4763  1.0986  0.2178
 3822SOL    HW211848   1.365   3.643   2.079  1.4304 -1.3222 -0.4568
 3823SOL     OW11849   1.857   4.771   3.786 -0.1150  0.0817  0.1664
 3823SOL    HW111850   1.879   4.716   3.711 -2.4352 -1.3729  0.5116
 3823SOL    HW211851   1.794   4.834   3.752 -0.1723  0.2506  0.5898
 3824SOL     OW11852   3.768   5.224   0.405  0.1451  0.4464  0.0875
 3824SOL    HW111853   3.720   5.169   0.343  1.4957  0.6750 -1.2066
 3824SOL    HW211854   3.841   5.258   0.354  1.7904 -0.0421  2.0508
 3825SOL     OW11855   5.684   1.479   4.636 -0.2645  0.0982  0.3346
 3825SOL    HW111856   5.671   1.396   4.590  0.0038  0.0580  0.3300
 3825SOL    HW211857   5.690   1.544   4.567 -0.6026  0.1391  0.3428
 3826SOL     OW11858   5.571   2.172   5.667 -0.4313 -0.3548  0.2910
 3826SOL    HW111859   5.500   2.156   5.730  0.3539 -1.8832  0.8334
 3826SOL    HW211860   5.556   2.108   5.597  0.2186 -0.4814  0.2603
 3827SOL     OW11861   0.844   5.204   1.222  0.1092 -0.2291  0.3070
 3827SOL    HW111862   0.795   5.236   1.298  0.6945 -1.0234  1.0344
 3827SOL    HW211863   0.934   5.233   1.238  0.5832 -1.9336  0.8130
 3828SOL     OW11864   2.159   5.719   2.426  0.3131 -0.1193 -0.6880
 3828SOL    HW111865   2.133   5.794   2.479  2.6548  2.2476 -2.7293
 3828SOL    HW211866   2.138   5.643   2.480 -1.4429  2.0081  1.7508
 3829SOL     OW11867   5.846   4.321   5.356  0.2871  0.8468  0.1297
 3829SOL    HW111868   5.872   4.399   5.405  2.7510  0.6217 -0.7371
 3829SOL    HW211869   5.757   4.302   5.386  0.6265  2.4582  2.2669
 3830SOL     OW11870   0.581   1.842   0.972  0.4237 -0.1096 -0.1430
 3830SOL    HW111871   0.635   1.781   0.922  1.2474  1.2754 -0.9879
 3830SOL    HW211872   0.492   1.811   0.960  1.0021 -2.4219  1.2526
 3831SOL     OW11873   2.269   6.013   4.465  0.0676  0.2737 -0.0821
 3831SOL    HW111874   2.318   6.067   4.403  0.9694  0.2955  0.6470
 3831SOL    HW211875   2.334   5.955   4.504 -0.7566 -0.8183 -0.2822
 3832SOL     OW11876   2.628   0.088   3.349  0.6043 -0.8524  0.3484
 3832SOL    HW111877   2.543   0.131   3.361  0.9519 -0.3826  1.2071
 3832SOL    HW211878   2.687   0.135   3.409  1.1621 -2.0615  0.7586
 3833SOL     OW11879   1.205   5.932   6.195 -0.5640 -0.3014 -0.6825
 3833SOL    HW111880   1.260   5.900   6.266 -1.2185 -0.2480 -0.1367
 3833SOL    HW211881   1.262   5.990   6.144  0.4505 -1.8275 -1.3214
 3834SOL     OW11882   1.128   0.843   2.346  0.4119 -0.2321  0.6069
 3834SOL    HW111883   1.129   0.926   2.298  1.4098  0.2815  1.5014
 3834SOL    HW211884   1.067   0.788   2.297 -0.4061  1.0876  0.0992
 3835SOL     OW11885   6.144   2.865   0.124  0.0043 -0.1327 -0.4770
 3835SOL    HW111886   6.196   2.820   0.057 -0.4803  0.4300 -1.2344
 3835SOL    HW211887   6.192   2.850   0.205  1.7298  0.9194 -1.2630
 3836SOL     OW11888   2.104   1.376   4.660 -0.0446  0.5713 -0.3628
 3836SOL    HW111889   2.173   1.315   4.636 -0.5921  0.6010 -2.0489
 3836SOL    HW211890   2.089   1.360   4.753 -0.1450 -1.8260 -0.7724
 3837SOL     OW11891   2.936   5.892   1.355  0.0044 -0.0050 -0.2085
 3837SOL    HW111892   2.896   5.819   1.307 -0.0829 -0.2326  0.2062
 3837SOL    HW211893   3.030   5.885   1.334  0.1149 -0.7476  0.4909
 3838SOL     OW11894   4.319   5.280   3.158  0.6040 -0.1162 -0.0963
 3838SOL    HW111895   4.302   5.193   3.122 -0.5898 -0.6781  1.7487
 3838SOL    HW211896   4.375   5.263   3.234  1.2741  0.8403 -0.3660
 3839SOL     OW11897   4.396   1.525   5.522 -0.1685 -0.5322 -0.0846
 3839SOL    HW111898   4.432   1.514   5.609  2.5940 -0.5377 -1.1772
 3839SOL    HW211899   4.399   1.619   5.506  1.8391 -0.7633 -1.1723
 3840SOL     OW11900   5.308   6.073   4.869 -0.3092 -0.1569  0.3743
 3840SOL    HW111901   5.309   5.994   4.922  0.2827  0.2064  0.9113
 3840SOL    HW211902   5.268   6.140   4.925 -1.2437 -0.1921 -0.2470
 3841SOL     OW11903   5.594   0.779   4.748  0.2024  0.1449  0.4496
 3841SOL    HW111904   5.675   0.729   4.756 -0.5548 -1.2146 -0.2350
 3841SOL    HW211905   5.575   0.780   4.654 -0.3606  0.8232  0.5601
 3842SOL     OW11906   2.888   2.061   0.280 -0.0714  0.4763  0.0125
 3842SOL    HW111907   2.924   2.109   0.355 -2.3571  0.5156  1.1488
 3842SOL    HW211908   2.917   1.971   0.293  1.3138  0.8809 -0.2197
 3843SOL     OW11909   0.280   0.105   5.541 -0.5072  0.5956  0.0570
 3843SOL    HW111910   0.353   0.086   5.600  1.2836  0.6548 -2.0822
 3843SOL    HW211911   0.203   0.073   5.588  1.0686 -1.0327  1.6393
 3844SOL     OW11912   4.525   3.990   2.430  0.1713  0.5042  0.3963
 3844SOL    HW111913   4.497   3.901   2.410 -0.2594  0.6404  0.3850
 3844SOL    HW211914   4.518   4.037   2.347 -0.9792  0.9051  0.7161
 3845SOL     OW11915   4.474   0.139   0.838  0.0335  0.2292  0.3470
 3845SOL    HW111916   4.486   0.234   0.849  0.7879  0.1074  0.6147
 3845SOL    HW211917   4.453   0.129   0.745  1.3588  0.5454 -0.0100
 3846SOL     OW11918   3.038   1.696   5.728 -0.0335 -0.6817 -0.2227
 3846SOL    HW111919   3.095   1.701   5.651 -0.9879 -1.7099 -0.9944
 3846SOL    HW211920   2.982   1.774   5.721 -0.1833 -0.8257 -0.6095
 3847SOL     OW11921   1.588   0.392   2.380 -0.2309  0.2485 -0.6236
 3847SOL    HW111922   1.661   0.362   2.435  0.6253  0.3153 -1.7015
 3847SOL    HW211923   1.510   0.362   2.426  0.5550 -3.2415 -1.4145
 3848SOL     OW11924   3.952   1.035   1.368  0.3539  0.2544 -0.2836
 3848SOL    HW111925   3.899   0.986   1.430  1.3587 -1.9387 -1.1189
 3848SOL    HW211926   3.900   1.113   1.349 -1.0132 -0.1740  1.4907
 3849SOL     OW11927   0.574   3.994   5.348 -0.0464  0.2659 -0.2594
 3849SOL    HW111928   0.615   3.952   5.423 -1.8997 -0.0111  0.6328
 3849SOL    HW211929   0.640   4.054   5.314  1.5070 -1.0563  0.3782
 3850SOL     OW11930   2.836   0.325   1.624 -0.5818  0.8088 -0.1329
 3850SOL    HW111931   2.807   0.235   1.614 -1.5138  1.0788  0.1387
 3850SOL    HW211932   2.873   0.329   1.712  2.5689 -0.1558 -1.3394
 3851SOL     OW11933   5.294   1.785   3.044 -0.2887  0.6113  0.4163
 3851SOL    HW111934   5.260   1.869   3.076 -0.3019  1.4820 -1.8050
 3851SOL    HW211935   5.217   1.739   3.011 -0.0467  0.4041  0.1393
 3852SOL     OW11936   6.048   5.937   4.118  0.4754  0.1200  0.0098
 3852SOL    HW111937   6.059   6.027   4.151 -1.5726  0.3870  0.0494
 3852SOL    HW211938   6.038   5.884   4.197 -1.6702  0.3649 -0.0639
 3853SOL     OW11939   4.662   4.493   3.039 -0.0733 -0.0420  0.1464
 3853SOL    HW111940   4.659   4.399   3.024  0.9240 -0.3737  1.8663
 3853SOL    HW211941   4.719   4.527   2.971  0.0292 -0.7540 -0.1213
 3854SOL     OW11942   1.518   2.971   5.260  0.1227 -0.2697  0.1258
 3854SOL    HW111943   1.425   2.994   5.252  0.4507  0.8058 -0.6758
 3854SOL    HW211944   1.548   2.965   5.169  1.1303  0.5888  0.4016
 3855SOL     OW11945   6.354   3.355   5.853 -0.4443  0.0035  0.0945
 3855SOL    HW111946   6.296   3.392   5.920  1.4327  0.7010  1.3811
 3855SOL    HW211947   6.441   3.355   5.894  0.3611 -1.6692 -1.5320
 3856SOL     OW11948   3.888   3.038   2.074  0.2834 -0.5521 -0.4037
 3856SOL    HW111949   3.935   2.957   2.056 -0.1854 -0.7998 -0.5095
 3856SOL    HW211950   3.806   3.031   2.025 -0.0101 -0.2634  0.0299
 3857SOL     OW11951   3.966   2.664   0.906 -0.0560  0.6120 -0.1649
 3857SOL    HW111952   3.980   2.747   0.859  1.5311 -0.4054 -1.5210
 3857SOL    HW211953   3.878   2.637   0.879 -0.5762  1.8288  0.2600
 3858SOL     OW11954   2.785   3.682   3.119 -0.4297 -0.2085  0.2787
 3858SOL    HW111955   2.737   3.762   3.140 -0.5536 -0.7687  2.2051
 3858SOL    HW211956   2.740   3.647   3.043 -1.3134  0.7653  0.3378
 3859SOL     OW11957   3.257   4.913   4.766 -0.7983 -0.4631  0.1152
 3859SOL    HW111958   3.283   4.845   4.829 -0.3057  0.8502  1.3846
 3859SOL    HW211959   3.181   4.955   4.807 -0.5681  0.3002 -0.2393
 3860SOL     OW11960   4.599   4.378   3.324  0.0684  0.2657 -0.4898
 3860SOL    HW111961   4.623   4.373   3.232  1.3004  1.4912 -0.2479
 3860SOL    HW211962   4.682   4.389   3.370 -0.5778  0.1607  0.7293
 3861SOL     OW11963   0.098   5.901   5.442 -0.3551 -0.0332  0.1967
 3861SOL    HW111964   0.133   5.956   5.371  0.1563 -0.3596  0.1927
 3861SOL    HW211965   0.019   5.946   5.470 -0.4650  0.1943 -0.4667
 3862SOL     OW11966   6.146   1.522   2.584 -0.5688 -0.2496  0.0328
 3862SOL    HW111967   6.061   1.542   2.624 -0.5731 -0.0261 -0.0871
 3862SOL    HW211968   6.131   1.532   2.490  0.0919  1.7339  0.1081
 3863SOL     OW11969   4.953   1.363   3.929 -0.1921 -0.6264  0.4125
 3863SOL    HW111970   4.978   1.271   3.936  1.3511 -0.2751 -0.2202
 3863SOL    HW211971   5.033   1.407   3.900 -0.4706  1.1687  2.3209
 3864SOL     OW11972   4.386   4.034   5.833 -0.1745 -0.0949 -0.4295
 3864SOL    HW111973   4.430   4.084   5.902 -0.5717  1.0661 -1.0032
 3864SOL    HW211974   4.433   3.951   5.830  0.5467  0.2706  0.4990
 3865SOL     OW11975   2.903   0.220   5.042  0.2415  0.8166 -0.2245
 3865SOL    HW111976   2.970   0.154   5.022 -1.2875 -0.8602  0.1267
 3865SOL    HW211977   2.881   0.258   4.957  1.6553  1.4352 -0.3403
 3866SOL     OW11978   4.838   3.077   0.492 -0.3276  0.2196 -0.2144
 3866SOL    HW111979   4.841   2.982   0.478 -0.9227  0.1193  0.3123
 3866SOL    HW211980   4.752   3.092   0.530 -0.3645  1.0165 -0.6148
 3867SOL     OW11981   2.615   4.237   5.099 -0.0520 -0.0907  0.7653
 3867SOL    HW111982   2.608   4.162   5.158  0.7994 -1.1473 -0.4565
 3867SOL    HW211983   2.698   4.278   5.122  0.6572 -0.9619 -0.2185
 3868SOL     OW11984   0.124   0.799   1.328  0.2002 -0.4681  0.0723
 3868SOL    HW111985   0.058   0.868   1.335 -0.8789 -1.2999 -1.6435
 3868SOL    HW211986   0.106   0.741   1.402 -0.9016 -0.6031 -0.2982
 3869SOL     OW11987   3.396   5.144   3.289  0.7612  0.0953  0.3202
 3869SOL    HW111988   3.438   5.230   3.296 -1.1918  1.2854 -1.8455
 3869SOL    HW211989   3.383   5.117   3.380  3.1299  1.2177  1.0209
 3870SOL     OW11990   3.328   5.749   5.922 -0.3105 -0.7826  0.4157
 3870SOL    HW111991   3.396   5.738   5.988  0.5592 -1.4484 -0.5553
 3870SOL    HW211992   3.371   5.723   5.840 -0.2774  3.3681 -0.9822
 3871SOL     OW11993   3.797   1.461   5.022 -0.1936 -0.5398  0.0237
 3871SOL    HW111994   3.779   1.369   5.002  0.5825 -1.2176  2.3197
 3871SOL    HW211995   3.892   1.466   5.029 -0.3421  0.0380  1.7250
 3872SOL     OW11996   4.210   2.701   5.265 -0.0497  0.8513 -1.0001
 3872SOL    HW111997   4.293   2.748   5.267  0.4025  0.0131  1.4348
 3872SOL    HW211998   4.231   2.617   5.224  0.5599  0.2095  0.5964
 3873SOL     OW11999   1.866   4.760   3.102 -0.0395 -0.3780  0.1552
 3873SOL    HW112000   1.806   4.715   3.043 -0.7692 -0.0783  0.6709
 3873SOL    HW212001   1.920   4.690   3.138  1.0622 -0.4621 -1.5932
 3874SOL     OW12002   2.937   4.711   1.258  0.1390 -0.9797  0.1062
 3874SOL    HW112003   2.925   4.654   1.182 -0.6866  0.4531 -0.8621
 3874SOL    HW212004   2.848   4.733   1.285  0.4614  0.1305  0.2625
 3875SOL     OW12005   0.022   3.249   6.267 -0.0344  0.1590 -0.1129
 3875SOL    HW112006  -0.063   3.286   6.291  1.1748  1.5488  2.1369
 3875SOL    HW212007   0.038   3.181   6.332  0.7118  0.1093 -0.3412
 3876SOL     OW12008   5.981   1.134   0.192  0.2974 -0.2930 -0.0999
 3876SOL    HW112009   6.062   1.140   0.243  1.4526  0.5953 -1.9714
 3876SOL    HW212010   5.942   1.221   0.199  0.7679  0.0176 -1.1775
 3877SOL     OW12011   4.629   2.483   3.104  0.2263  0.3154  0.3505
 3877SOL    HW112012   4.560   2.421   3.080  2.2026 -1.7139 -0.2252
 3877SOL    HW212013   4.687   2.485   3.028  2.5674 -0.5018  2.0680
 3878SOL     OW12014   2.686   4.006   5.312  0.4110  0.7295  0.4438
 3878SOL    HW112015   2.707   3.913   5.301 -2.5567  0.3049 -2.1238
 3878SOL    HW212016   2.607   4.007   5.366 -0.5989  1.6622 -1.0192
 3879SOL     OW12017   3.474   4.882   2.069  0.2687  0.4836  0.5607
 3879SOL    HW112018   3.388   4.911   2.100  1.4018  1.3338  3.0738
 3879SOL    HW212019   3.496   4.942   1.998 -0.9813  0.6105  0.2741
 3880SOL     OW12020   1.146   5.487   5.947  0.0849  0.3450  0.3242
 3880SOL    HW112021   1.222   5.430   5.935 -1.3017 -1.2192 -1.3424
 3880SOL    HW212022   1.082   5.432   5.993 -0.9276  0.8385 -0.4707
 3881SOL     OW12023   1.280   5.859   4.363 -0.6403 -0.3377  0.4385
 3881SOL    HW112024   1.283   5.785   4.423 -0.9294 -1.3686 -0.7961
 3881SOL    HW212025   1.273   5.936   4.420  0.3108 -1.1998  1.7549
 3882SOL     OW12026   3.731   3.513   2.396  0.1062  0.3160  0.4084
 3882SOL    HW112027   3.647   3.556   2.411  0.2036  0.6853 -0.1058
 3882SOL    HW212028   3.757   3.541   2.309  1.5511  1.4887  1.2154
 3883SOL     OW12029   2.214   1.528   3.541  0.0028 -0.4893 -0.6165
 3883SOL    HW112030   2.220   1.445   3.589  1.2046 -0.4484 -0.6808
 3883SOL    HW212031   2.301   1.539   3.501 -0.6550  0.0106 -1.9253
 3884SOL     OW12032   3.277   4.340   0.582 -0.0694  0.0179  0.5695
 3884SOL    HW112033   3.335   4.292   0.640 -0.1508 -0.1838  0.4843
 3884SOL    HW212034   3.328   4.353   0.502  1.0059  2.5832  1.6023
 3885SOL     OW12035   2.300   4.703   0.431  0.0228 -0.5321  0.5209
 3885SOL    HW112036   2.375   4.699   0.490  1.1949  2.2670 -0.7244
 3885SOL    HW212037   2.313   4.630   0.370  0.4415 -1.5195  1.7790
 3886SOL     OW12038   3.890   2.103   1.507  0.6205 -0.0353 -0.2457
 3886SOL    HW112039   3.922   2.157   1.435  1.9321 -0.2714  0.1564
 3886SOL    HW212040   3.840   2.034   1.464  1.0596  0.0498 -0.9028
 3887SOL     OW12041   0.300   5.075   0.057  0.1591 -0.1891 -0.5351
 3887SOL    HW112042   0.225   5.125   0.026  0.8585  0.8783 -0.5234
 3887SOL    HW212043   0.353   5.059  -0.021  0.8191  0.6142 -0.2598
 3888SOL     OW12044   0.179   2.585   2.357  0.4936 -0.0987 -0.0769
 3888SOL    HW112045   0.216   2.577   2.269 -0.9761 -1.9810 -0.5582
 3888SOL    HW212046   0.249   2.554   2.415  0.3821 -1.8286 -0.8300
 3889SOL     OW12047   2.840   4.087   4.588  0.4077 -0.4270 -0.1269
 3889SOL    HW112048   2.832   4.127   4.674 -0.4999  1.6986 -1.1577
 3889SOL    HW212049   2.901   4.014   4.601  0.4056 -0.0532  2.2572
 3890SOL     OW12050   0.671   0.298   2.879  0.5208 -0.1964 -0.0986
 3890SOL    HW112051   0.640   0.356   2.809  0.0213 -0.0159  0.2694
 3890SOL    HW212052   0.645   0.211   2.850 -0.9092  0.0119  0.4965
 3891SOL     OW12053   1.286   4.019   1.033  0.3911  0.4587  0.2274
 3891SOL    HW112054   1.240   3.935   1.023  0.0359  0.4390  1.8302
 3891SOL    HW212055   1.358   4.000   1.093 -0.4072  1.5335  1.5714
 3892SOL     OW12056   4.701   0.311   1.353  0.8826 -0.3624  0.2057
 3892SOL    HW112057   4.690   0.237   1.293 -1.6887  0.5074 -0.4386
 3892SOL    HW212058   4.736   0.381   1.298 -0.6023  0.1493 -0.1150
 3893SOL     OW12059   3.262   2.108   5.202  0.1401 -0.7872 -0.3631
 3893SOL    HW112060   3.332   2.111   5.266  0.2743 -0.3017 -0.5306
 3893SOL    HW212061   3.304   2.081   5.120  0.1569 -0.3622 -0.4954
 3894SOL     OW12062   4.500   0.905   2.271 -0.4684 -0.2546 -0.4927
 3894SOL    HW112063   4.520   0.820   2.232  1.0709  0.1903 -0.6853
 3894SOL    HW212064   4.458   0.884   2.354  2.1724 -1.2045  0.6290
 3895SOL     OW12065   5.136   2.788   5.470 -0.0623  0.2766 -0.0745
 3895SOL    HW112066   5.155   2.705   5.512  2.5063  1.3320  0.9579
 3895SOL    HW212067   5.051   2.814   5.506 -0.4973 -1.4751  0.2257
 3896SOL     OW12068   3.473   1.107   5.012 -0.6297 -0.1725 -0.0559
 3896SOL    HW112069   3.517   1.051   5.076  0.0894  0.1248 -0.2820
 3896SOL    HW212070   3.383   1.112   5.042  0.1374  1.5847  2.0382
 3897SOL     OW12071   5.999   1.153   1.413  0.6813  0.2729  0.3946
 3897SOL    HW112072   6.070   1.100   1.377 -0.4556  0.4583 -2.2678
 3897SOL    HW212073   6.023   1.243   1.392  0.2024  0.4154  0.4470
 3898SOL     OW12074   3.441   3.366   0.823  0.1372  0.6141 -0.0366
 3898SOL    HW112075   3.494   3.287   0.820  0.0108  0.5545 -0.8715
 3898SOL    HW212076   3.503   3.436   0.841  0.2350  0.3139  0.8124
 3899SOL     OW12077   4.551   4.028   5.573  0.1465 -0.2895 -0.6564
 3899SOL    HW112078   4.499   3.968   5.627  0.4122 -1.2379 -1.4575
 3899SOL    HW212079   4.489   4.061   5.508  0.1375 -0.1059 -0.5566
 3900SOL     OW12080   5.282   2.117   5.227  0.4701  0.1375  0.0185
 3900SOL    HW112081   5.241   2.198   5.259  1.7437  0.4568  0.8731
 3900SOL    HW212082   5.366   2.145   5.192  1.0962 -0.8735  0.6912
 3901SOL     OW12083   2.203   3.447   3.621  0.6064 -0.2649 -0.5813
 3901SOL    HW112084   2.222   3.386   3.549 -0.0404  0.3089 -1.2390
 3901SOL    HW212085   2.247   3.408   3.696 -0.4955 -2.0026 -0.7982
 3902SOL     OW12086   0.864   2.581   1.756 -0.2435  0.6218  0.4273
 3902SOL    HW112087   0.900   2.661   1.793 -1.0457  1.0825  0.2136
 3902SOL    HW212088   0.927   2.513   1.781 -1.2725  0.7241  3.5499
 3903SOL     OW12089   3.561   1.756   5.703 -0.1484  0.3403 -0.1353
 3903SOL    HW112090   3.476   1.719   5.679  0.4348 -1.4015  0.4342
 3903SOL    HW212091   3.620   1.730   5.631  0.3065 -0.0458  0.3675
 3904SOL     OW12092   4.763   5.714   2.592  0.7432 -0.2027  0.1894
 3904SOL    HW112093   4.845   5.678   2.559 -0.2626 -0.6449 -1.8825
 3904SOL    HW212094   4.700   5.700   2.522 -0.9014  0.9722  1.3811
 3905SOL     OW12095   0.280   0.859   5.314  0.1685  0.4569 -0.6892
 3905SOL    HW112096   0.195   0.849   5.357  0.3245  1.6848 -0.0652
 3905SOL    HW212097   0.300   0.772   5.278 -1.1620  0.0703 -0.5032
 3906SOL     OW12098   2.237   1.952   0.023 -0.4305 -0.7583  0.9517
 3906SOL    HW112099   2.180   1.903   0.081 -2.1345  0.2900  0.1982
 3906SOL    HW212100   2.315   1.897   0.013 -1.0280 -1.9091  2.5052
 3907SOL     OW12101   2.945   3.553   3.657  0.2991  0.6095  0.4844
 3907SOL    HW112102   2.861   3.596   3.672  0.1517  0.4652  0.0663
 3907SOL    HW212103   2.981   3.597   3.579 -0.0270 -0.2947 -0.1722
 3908SOL     OW12104   4.128   0.711   5.524  0.1072  0.2813 -0.3585
 3908SOL    HW112105   4.081   0.687   5.444 -0.3088  2.3198 -0.7675
 3908SOL    HW212106   4.184   0.784   5.497  0.7471  0.2968  0.9776
 3909SOL     OW12107   0.725   5.826   6.177  0.4116  0.3436 -0.1102
 3909SOL    HW112108   0.713   5.887   6.250  0.4429 -1.7539  1.7015
 3909SOL    HW212109   0.639   5.786   6.164  0.5119  0.3866 -0.9557
 3910SOL     OW12110   5.273   5.161   4.904  0.8790 -0.0874 -0.5242
 3910SOL    HW112111   5.198   5.221   4.907 -1.7783 -3.3399  1.3754
 3910SOL    HW212112   5.260   5.112   4.823  0.3833 -1.3304  0.3017
 3911SOL     OW12113   5.101   1.806   0.464 -0.1372  0.6277 -0.1387
 3911SOL    HW112114   5.057   1.722   0.448 -0.1100  0.7067 -0.6480
 3911SOL    HW212115   5.054   1.845   0.537  0.9323 -0.6015  1.2299
 3912SOL     OW12116   4.133   3.947   2.862 -0.3814  0.3131  0.3400
 3912SOL    HW112117   4.112   4.022   2.806  1.8999 -0.9196 -2.3219
 3912SOL    HW212118   4.120   3.978   2.951 -0.8477  3.4156 -0.7555
 3913SOL     OW12119   1.116   5.049   0.752 -0.2797  0.0175 -0.0269
 3913SOL    HW112120   1.116   5.060   0.657  4.0849  0.3248 -0.0931
 3913SOL    HW212121   1.152   5.131   0.786  0.6943 -1.0658  1.6703
 3914SOL     OW12122   4.004   4.586   3.459  0.6070 -0.1847 -0.0847
 3914SOL    HW112123   4.025   4.501   3.419  1.2473 -0.2405  0.3705
 3914SOL    HW212124   3.908   4.587   3.463  0.6098 -1.1333  0.4314
 3915SOL     OW12125   0.944   3.677   3.521 -0.3022 -0.0893 -0.0129
 3915SOL    HW112126   0.919   3.592   3.557  0.8589  0.4044  2.0229
 3915SOL    HW212127   1.019   3.704   3.573  0.3715  1.4487 -1.7228
 3916SOL     OW12128   0.540   4.786   5.111  0.4599  0.4109 -0.3400
 3916SOL    HW112129   0.572   4.876   5.108  2.2588 -0.1723  0.4736
 3916SOL    HW212130   0.508   4.769   5.023  2.2224  1.1126 -1.1489
 3917SOL     OW12131   1.830   5.599   3.302 -0.7166  0.1048  0.8372
 3917SOL    HW112132   1.761   5.533   3.299 -0.6029  0.0295 -1.4760
 3917SOL    HW212133   1.908   5.553   3.270 -0.6616  1.3586 -0.8884
 3918SOL     OW12134   3.766   2.578   2.933  0.1584 -0.0125  0.4079
 3918SOL    HW112135   3.842   2.607   2.983  0.7023  1.5426 -1.2913
 3918SOL    HW212136   3.789   2.594   2.841 -1.5132 -1.1850 -0.2571
 3919SOL     OW12137   2.785   2.522   0.296  0.3996  0.4973 -0.3707
 3919SOL    HW112138   2.768   2.436   0.333  1.9908 -1.0674 -3.0940
 3919SOL    HW212139   2.800   2.579   0.372 -0.7799 -1.5718  1.4634
 3920SOL     OW12140   3.036   2.965   3.596 -0.5916  0.1600  0.0161
 3920SOL    HW112141   3.045   2.966   3.500  2.6539  2.0799  0.2659
 3920SOL    HW212142   3.035   3.057   3.621 -0.9555 -0.3369  1.8717
 3921SOL     OW12143   2.350   5.021   3.484  0.0750  0.0449 -0.3369
 3921SOL    HW112144   2.369   5.065   3.567 -0.0798  1.1872 -0.8951
 3921SOL    HW212145   2.256   5.003   3.488 -0.5266  2.7745 -1.5054
 3922SOL     OW12146   4.368   5.961   3.474  0.4151  0.3293  0.0088
 3922SOL    HW112147   4.444   6.015   3.495  0.2636  0.3190  0.5756
 3922SOL    HW212148   4.300   6.024   3.448  1.2616  0.2299 -2.5574
 3923SOL     OW12149   0.453   3.685   4.658 -0.1441  0.3730 -0.0466
 3923SOL    HW112150   0.363   3.715   4.648  0.1119  0.6710 -1.6456
 3923SOL    HW212151   0.500   3.760   4.694 -0.4484  0.3759  0.3345
 3924SOL     OW12152   4.695   5.222   1.964  0.3130  0.3867  0.2937
 3924SOL    HW112153   4.752   5.158   2.006 -0.8170 -0.1068  1.0941
 3924SOL    HW212154   4.606   5.196   1.990 -0.1648  2.1908  0.5414
 3925SOL     OW12155   4.688   4.675   3.614 -0.3583 -0.2440 -0.4488
 3925SOL    HW112156   4.676   4.756   3.664 -0.6792 -0.3082 -0.4211
 3925SOL    HW212157   4.601   4.656   3.579 -0.0417  0.0658 -1.4334
 3926SOL     OW12158   0.912   3.310   4.245 -0.2278  0.8547  0.1127
 3926SOL    HW112159   0.934   3.403   4.252 -0.0105  0.7308  1.3325
 3926SOL    HW212160   0.840   3.298   4.307 -2.0623  0.7304 -1.9763
 3927SOL     OW12161   3.383   6.367   5.610 -0.3628 -0.2493 -0.1770
 3927SOL    HW112162   3.287   6.375   5.604 -0.3518 -0.0721 -0.1426
 3927SOL    HW212163   3.399   6.274   5.624 -0.7023  0.0548  2.6183
 3928SOL     OW12164   2.482   6.052   5.249 -0.3559  0.0621 -0.1303
 3928SOL    HW112165   2.468   6.128   5.307  2.8648  1.2258 -0.8024
 3928SOL    HW212166   2.518   5.985   5.307  0.4860  0.3744 -0.2893
 3929SOL     OW12167   1.322   2.872   1.213  0.4818  0.1041  0.5373
 3929SOL    HW112168   1.278   2.835   1.136 -0.9014  0.8081  0.9814
 3929SOL    HW212169   1.410   2.834   1.211  0.7983  0.9047 -1.9578
 3930SOL     OW12170   2.071   3.090   1.680  0.5218 -0.1182  0.2219
 3930SOL    HW112171   2.032   3.156   1.737 -0.3017  0.0694 -0.5604
 3930SOL    HW212172   2.062   3.125   1.592  1.3383 -0.6405 -0.0795
 3931SOL     OW12173   3.769   1.660   4.132 -0.3591 -0.4112 -0.1202
 3931SOL    HW112174   3.740   1.643   4.222 -0.2549 -1.3029 -0.2496
 3931SOL    HW212175   3.856   1.619   4.127 -0.2538 -0.1328 -0.5480
 3932SOL     OW12176   3.339   0.117   4.004  0.3760 -0.6552  0.3600
 3932SOL    HW112177   3.258   0.129   4.053  0.3109  0.4629 -0.0034
 3932SOL    HW212178   3.387   0.050   4.052  0.9578  1.4212  2.7694
 3933SOL     OW12179   1.059   3.821   2.199 -0.5527  0.2198 -0.0308
 3933SOL    HW112180   1.047   3.829   2.104  0.7393 -1.9664 -0.4259
 3933SOL    HW212181   1.153   3.833   2.212 -0.1939 -2.8629  0.5369
 3934SOL     OW12182   3.135   0.491   1.201  0.0686 -0.5148 -0.3088
 3934SOL    HW112183   3.054   0.537   1.222  1.6867  1.8024  1.0295
 3934SOL    HW212184   3.170   0.465   1.286  2.0529  0.8319 -0.6869
 3935SOL     OW12185   4.247   0.568   2.014 -0.1305 -0.3126 -0.1419
 3935SOL    HW112186   4.186   0.515   1.963 -0.0831 -0.4292 -0.0783
 3935SOL    HW212187   4.326   0.514   2.021 -0.5610 -0.7847  1.0702
 3936SOL     OW12188   0.008   2.995   0.011  0.5257 -0.5017  0.2971
 3936SOL    HW112189   0.004   2.901  -0.011  0.2506 -0.2906 -0.5682
 3936SOL    HW212190  -0.076   3.013   0.054 -0.4760 -0.1240 -1.7161
 3937SOL     OW12191   2.730   4.662   5.879 -0.7993  0.5189 -0.2439
 3937SOL    HW112192   2.823   4.649   5.861 -0.5033  1.5057  0.5063
 3937SOL    HW212193   2.726   4.675   5.974 -1.9674 -1.6453  0.0233
 3938SOL     OW12194   0.320   4.408   5.416  0.3765 -0.3878 -0.7312
 3938SOL    HW112195   0.360   4.369   5.494  0.5915  0.8638 -0.2059
 3938SOL    HW212196   0.271   4.336   5.376 -0.4070 -0.8433  0.9948
 3939SOL     OW12197   1.524   4.414   6.075 -0.2561  0.2211 -0.0566
 3939SOL    HW112198   1.505   4.333   6.122  1.8334 -0.5699 -0.5128
 3939SOL    HW212199   1.612   4.439   6.104  0.0802  1.0431 -1.6878
 3940SOL     OW12200   4.011   0.798   0.768  0.6192 -0.2573  0.4228
 3940SOL    HW112201   4.080   0.746   0.727 -1.1400 -2.3495  0.0112
 3940SOL    HW212202   4.037   0.806   0.860  2.4795  0.8659 -0.1737
 3941SOL     OW12203   2.129   0.983   3.252  0.0443 -0.1497  0.1307
 3941SOL    HW112204   2.101   0.901   3.211 -1.9038  1.6153 -2.2029
 3941SOL    HW212205   2.088   0.981   3.339  1.4456 -2.3754  0.8112
 3942SOL     OW12206   3.731   4.688   2.656  0.4202 -0.6465 -0.4506
 3942SOL    HW112207   3.772   4.734   2.583  0.1386 -0.0723 -0.2474
 3942SOL    HW212208   3.701   4.758   2.715 -0.7879 -1.0684 -0.5623
 3943SOL     OW12209   1.929   3.563   3.299  1.0072 -0.1564  0.2109
 3943SOL    HW112210   2.005   3.619   3.279 -0.4881  1.6037 -0.7671
 3943SOL    HW212211   1.894   3.600   3.380  1.6296 -1.4645  1.0907
 3944SOL     OW12212   5.466   0.656   5.745 -0.0055  0.1297 -0.1962
 3944SOL    HW112213   5.481   0.697   5.660  0.4552  1.5592  0.5612
 3944SOL    HW212214   5.408   0.582   5.726  1.9322 -1.0010 -2.1063
 3945SOL     OW12215   1.505   4.151   5.392 -0.2135 -0.1078  0.1216
 3945SOL    HW112216   1.537   4.239   5.373  0.6224 -0.2379  0.8609
 3945SOL    HW212217   1.427   4.166   5.446  0.0357  0.1813  0.4103
 3946SOL     OW12218   4.174   0.120   5.709  0.0047  0.0824 -0.4754
 3946SOL    HW112219   4.098   0.100   5.655  0.2076 -1.1590 -0.3251
 3946SOL    HW212220   4.242   0.062   5.677  0.9936  1.4163 -0.8164
 3947SOL     OW12221   6.214   5.808   3.675 -0.0613 -0.0879 -0.1438
 3947SOL    HW112222   6.121   5.828   3.683 -0.2785 -1.0354 -0.2679
 3947SOL    HW212223   6.258   5.883   3.716 -0.8531  0.6363 -0.6054
 3948SOL     OW12224   4.929   0.271   1.981  0.4926  1.2589 -0.2270
 3948SOL    HW112225   4.994   0.205   2.005 -1.0304 -0.2228 -0.0798
 3948SOL    HW212226   4.979   0.338   1.934  1.8482 -0.6971 -1.6654
 3949SOL     OW12227   1.741   0.733   5.959  0.2815  0.1964  0.5544
 3949SOL    HW112228   1.790   0.814   5.944  0.5279  0.0509  0.5666
 3949SOL    HW212229   1.808   0.665   5.961  0.2457  0.1876  2.1413
 3950SOL     OW12230   4.122   4.509   0.997  0.4926  0.1760  0.1288
 3950SOL    HW112231   4.051   4.561   0.960  1.7486 -0.1155 -2.8565
 3950SOL    HW212232   4.078   4.436   1.041 -1.1106  0.7464 -0.4914
 3951SOL     OW12233   1.107   5.920   5.015 -0.3039 -0.1080 -0.8917
 3951SOL    HW112234   1.186   5.966   5.041 -0.0472 -0.7345 -0.5612
 3951SOL    HW212235   1.081   5.871   5.093 -1.3463  0.5477 -0.8066
 3952SOL     OW12236   5.005   1.979   1.185  0.2769 -0.7086  0.0864
 3952SOL    HW112237   5.056   1.989   1.265  1.1839 -2.2107 -0.2870
 3952SOL    HW212238   4.952   1.901   1.200  1.6808 -1.9768 -1.4189
 3953SOL     OW12239   2.279   3.207   6.034  0.2484  0.1896 -0.1303
 3953SOL    HW112240   2.225   3.237   5.961 -1.5152 -0.8840  0.6874
 3953SOL    HW212241   2.248   3.118   6.052  1.5059 -0.0228  1.1274
 3954SOL     OW12242   2.704   2.685   2.360  0.6474 -0.0157  0.1758
 3954SOL    HW112243   2.635   2.690   2.294  0.8153 -1.0040 -0.0799
 3954SOL    HW212244   2.760   2.761   2.341  0.4671 -0.0615 -0.5632
 3955SOL     OW12245   1.737   5.719   5.944  0.4114 -0.4875  0.9068
 3955SOL    HW112246   1.677   5.793   5.942  0.6628 -0.3188 -0.7266
 3955SOL    HW212247   1.681   5.643   5.960 -0.3901 -0.4642 -1.6193
 3956SOL     OW12248   3.768   5.230   2.237 -0.4428  0.9268  0.4359
 3956SOL    HW112249   3.806   5.236   2.325  0.3646 -1.7176  0.3222
 3956SOL    HW212250   3.822   5.288   2.183  0.1094  1.2765  1.3644
 3957SOL     OW12251   3.219   1.779   2.583  0.8001 -0.7613  0.0958
 3957SOL    HW112252   3.216   1.684   2.572 -2.0478 -0.7233 -0.0266
 3957SOL    HW212253   3.243   1.812   2.496 -1.8554 -1.2719 -0.8972
 3958SOL     OW12254   3.552   5.777   2.184 -0.5438 -0.4376  0.1055
 3958SOL    HW112255   3.459   5.801   2.189 -0.2345  0.5121  1.9599
 3958SOL    HW212256   3.552   5.685   2.159 -1.9927 -0.5125  0.3260
 3959SOL     OW12257   4.265   4.547   4.734 -0.0868 -0.1222 -0.2499
 3959SOL    HW112258   4.188   4.491   4.726  0.0791 -0.4877  0.6701
 3959SOL    HW212259   4.320   4.503   4.799  1.2163 -0.2342 -1.3979
 3960SOL     OW12260   4.478   2.982   4.802  0.0923 -0.5148  0.2030
 3960SOL    HW112261   4.508   3.027   4.723  1.1656  0.7307  1.3013
 3960SOL    HW212262   4.446   2.897   4.770 -0.5961  0.4170 -1.7068
 3961SOL     OW12263   5.417   6.172   1.095 -0.7201 -0.3870 -0.3261
 3961SOL    HW112264   5.477   6.245   1.108 -1.0089 -0.3243  0.6675
 3961SOL    HW212265   5.362   6.199   1.021 -1.4012  0.7844  0.5927
 3962SOL     OW12266   1.518   3.950   1.193  0.3662  0.1886 -0.1965
 3962SOL    HW112267   1.574   4.027   1.205  0.0151  0.2104  1.3347
 3962SOL    HW212268   1.580   3.879   1.177  0.6796  0.8267 -1.9433
 3963SOL     OW12269   0.901   4.614   1.185  0.4382 -0.3427 -0.1609
 3963SOL    HW112270   0.945   4.542   1.231 -2.7899 -2.6910 -0.4797
 3963SOL    HW212271   0.882   4.579   1.098 -1.9027  0.5354 -0.0580
 3964SOL     OW12272   3.930   5.067   5.552 -0.1847 -0.0876  0.2961
 3964SOL    HW112273   3.956   4.988   5.599  1.1460  0.8741  1.2057
 3964SOL    HW212274   3.975   5.061   5.468 -0.0844 -0.2914  0.3652
 3965SOL     OW12275   3.150   0.367   2.729 -0.3237 -0.1646  0.2343
 3965SOL    HW112276   3.074   0.328   2.686  0.2419 -1.1280  0.1115
 3965SOL    HW212277   3.180   0.301   2.791 -0.0943  0.5438  0.8796
 3966SOL     OW12278   3.914   1.708   1.531  0.0497  0.3973 -0.1971
 3966SOL    HW112279   3.929   1.614   1.532  0.7924  0.4846 -1.7089
 3966SOL    HW212280   3.988   1.745   1.579  0.4180  0.2808 -0.6700
 3967SOL     OW12281   0.225   5.547   3.636 -0.4016 -0.3192  0.5471
 3967SOL    HW112282   0.262   5.568   3.722  0.5938 -0.1900  0.0947
 3967SOL    HW212283   0.130   5.557   3.647 -0.1418  1.8439  1.0422
 3968SOL     OW12284   1.424   4.758   3.333  0.2388 -0.1739 -0.3063
 3968SOL    HW112285   1.471   4.703   3.396 -1.0454 -0.4779  0.4084
 3968SOL    HW212286   1.466   4.739   3.249  2.4607  0.7812  0.5543
 3969SOL     OW12287   5.049   4.401   4.314 -0.2659 -0.3109  0.2539
 3969SOL    HW112288   5.055   4.493   4.288 -3.1806 -0.3665 -0.8640
 3969SOL    HW212289   5.028   4.404   4.408 -0.7566  0.1867  0.1343
 3970SOL     OW12290   1.029   4.990   4.416 -0.7204  0.6585  0.2397
 3970SOL    HW112291   1.019   4.898   4.440 -0.1692  0.3504 -0.6863
 3970SOL    HW212292   0.974   5.037   4.479 -0.2860 -0.2233  1.2916
 3971SOL     OW12293   5.420   4.238   4.918  0.1412  0.0536 -0.1837
 3971SOL    HW112294   5.380   4.169   4.866  1.3429  0.0120 -1.0701
 3971SOL    HW212295   5.467   4.192   4.988  0.2237  0.0117 -0.2664
 3972SOL     OW12296   0.682   2.284   2.392  0.0169  0.1170  0.5359
 3972SOL    HW112297   0.657   2.367   2.431  0.8759  0.6394 -0.0039
 3972SOL    HW212298   0.737   2.308   2.317  0.4596 -0.9292  0.5136
 3973SOL     OW12299   3.391   0.784   5.349  0.6466 -0.1471  0.2085
 3973SOL    HW112300   3.448   0.714   5.318  0.5219 -0.3215  0.3690
 3973SOL    HW212301   3.371   0.761   5.440  2.1182  1.0841  0.8616
 3974SOL     OW12302   3.800   5.038   1.577 -0.0723  0.0316  0.4583
 3974SOL    HW112303   3.881   4.991   1.558  0.0104  0.8411 -1.2666
 3974SOL    HW212304   3.828   5.129   1.590 -0.6272  0.1950  0.5370
 3975SOL     OW12305   3.285   5.853   2.199  0.1749 -0.3086 -0.0338
 3975SOL    HW112306   3.288   5.860   2.103 -0.7428  0.6288 -0.0006
 3975SOL    HW212307   3.197   5.823   2.218  0.2949 -0.3046  0.5264
 3976SOL     OW12308   3.643   4.017   1.616  0.5624  0.0921  0.2501
 3976SOL    HW112309   3.621   4.109   1.631 -0.4668 -0.0340 -0.4704
 3976SOL    HW212310   3.604   3.971   1.690 -1.6588 -0.1347 -1.0410
 3977SOL     OW12311   4.515   2.131   5.338 -0.1062 -0.0285  0.1576
 3977SOL    HW112312   4.593   2.156   5.387 -0.2811 -0.6467  0.7585
 3977SOL    HW212313   4.455   2.204   5.351  0.3702  0.4546 -0.3143
 3978SOL     OW12314   3.983   5.514   2.276  0.4801 -0.2524 -0.5300
 3978SOL    HW112315   4.029   5.450   2.330 -1.6825 -1.8260 -0.4565
 3978SOL    HW212316   3.951   5.463   2.201 -1.4317  0.6932 -0.3882
 3979SOL     OW12317   5.732   4.969   3.111  1.0088  0.4852  0.4560
 3979SOL    HW112318   5.779   4.969   3.027  1.2513  0.0013  0.5927
 3979SOL    HW212319   5.689   5.055   3.114 -0.1195 -0.0160 -0.7917
 3980SOL     OW12320   4.804   2.601   4.783  0.1629  0.0196 -0.5511
 3980SOL    HW112321   4.798   2.570   4.873  2.6796  3.1591  0.8149
 3980SOL    HW212322   4.892   2.639   4.777 -0.8323  2.0277 -3.6147
 3981SOL     OW12323   2.311   1.348   2.445 -0.3623 -0.2244 -0.0117
 3981SOL    HW112324   2.253   1.417   2.413  0.5709  0.8225  0.5082
 3981SOL    HW212325   2.399   1.377   2.421 -0.0016 -1.5514 -0.3537
 3982SOL     OW12326   5.444   1.944   6.062 -0.5810  0.1627 -0.1777
 3982SOL    HW112327   5.429   1.993   5.982  1.1958  0.2201 -0.5040
 3982SOL    HW212328   5.490   2.005   6.119 -1.1860 -0.1121  0.6188
 3983SOL     OW12329   6.052   5.384   2.675  0.6488  0.6636  1.4274
 3983SOL    HW112330   6.039   5.476   2.654 -1.8560  0.2487  1.0527
 3983SOL    HW212331   6.050   5.340   2.590 -1.7246 -0.1267  1.8716
 3984SOL     OW12332   6.258   4.794   1.981  0.0494  0.0441 -0.3165
 3984SOL    HW112333   6.171   4.809   1.945  0.3264  2.5069 -0.0912
 3984SOL    HW212334   6.317   4.842   1.922  1.0364 -0.0558  0.5690
 3985SOL     OW12335   0.377   1.523   4.887  0.0602  0.2813 -0.1982
 3985SOL    HW112336   0.373   1.438   4.931 -3.1582  0.7580  0.4942
 3985SOL    HW212337   0.313   1.518   4.817 -0.5944  2.2990  0.1964
 3986SOL     OW12338   2.010   3.087   3.269  0.2265  0.9390  0.3781
 3986SOL    HW112339   2.016   3.183   3.274 -0.2706  1.0132 -0.5437
 3986SOL    HW212340   2.098   3.060   3.242  0.8791  1.0057  2.3032
 3987SOL     OW12341   2.842   0.595   0.657 -0.1648 -0.2100  0.0448
 3987SOL    HW112342   2.865   0.511   0.616 -1.1324 -1.9502  2.9248
 3987SOL    HW212343   2.920   0.649   0.645  0.5163 -1.5241 -1.7903
 3988SOL     OW12344   6.009   2.597   3.667  0.0771  0.5032  0.8219
 3988SOL    HW112345   6.103   2.598   3.682  0.3339 -0.6105 -0.5699
 3988SOL    HW212346   5.995   2.661   3.598 -0.0018 -0.2775  0.1044
 3989SOL     OW12347   4.944   4.599   5.224 -0.3766 -0.2487  0.6802
 3989SOL    HW112348   4.941   4.684   5.180 -1.9850 -1.2061 -1.1439
 3989SOL    HW212349   5.002   4.546   5.169 -0.6186 -0.7771  0.9308
 3990SOL     OW12350   5.790   0.653   1.498 -0.4869 -0.2504  0.3838
 3990SOL    HW112351   5.841   0.602   1.561  0.1660  1.6186  1.4093
 3990SOL    HW212352   5.812   0.744   1.517 -1.0447  0.4015 -1.9097
 3991SOL     OW12353   0.630   4.896   1.375  0.2330  0.5672  0.0130
 3991SOL    HW112354   0.540   4.920   1.397 -0.5468 -0.0498 -2.3433
 3991SOL    HW212355   0.682   4.971   1.403 -0.8784  0.5087  2.3015
 3992SOL     OW12356   1.047   2.102   2.131 -0.4213 -0.4810  0.1358
 3992SOL    HW112357   1.088   2.184   2.158 -0.3293 -1.2586  2.4454
 3992SOL    HW212358   1.103   2.068   2.061 -1.9233  2.6992 -2.7708
 3993SOL     OW12359   1.024   3.728   1.240 -0.2469  0.1123 -0.1620
 3993SOL    HW112360   1.097   3.671   1.264 -1.2923 -1.0240  0.3692
 3993SOL    HW212361   0.962   3.669   1.196 -1.4355  0.7864  0.5915
 3994SOL     OW12362   0.235   4.591   0.899 -0.2547  0.0933 -0.4374
 3994SOL    HW112363   0.293   4.531   0.945 -0.3315 -0.4366 -1.0223
 3994SOL    HW212364   0.187   4.636   0.969 -0.1569 -0.4814  0.0046
 3995SOL     OW12365   0.458   2.458   3.657  0.6350 -0.0216 -0.5287
 3995SOL    HW112366   0.385   2.492   3.605  1.2925  0.3859 -1.1899
 3995SOL    HW212367   0.487   2.532   3.710 -0.1470 -0.4821  0.5566
 3996SOL     OW12368   4.769   5.277   1.705 -0.7078 -0.3068 -0.2051
 3996SOL    HW112369   4.748   5.241   1.791 -1.0465 -0.4054 -0.3277
 3996SOL    HW212370   4.695   5.334   1.684 -0.3972  0.0904 -0.2199
 3997SOL     OW12371   1.147   1.145   5.827  0.1833  0.1212 -0.2266
 3997SOL    HW112372   1.203   1.154   5.750 -1.1434  0.0105 -1.2254
 3997SOL    HW212373   1.089   1.071   5.806  1.0201 -1.1135  1.6463
 3998SOL     OW12374   5.546   1.075   3.027  0.1241 -0.2986 -0.5598
 3998SOL    HW112375   5.628   1.087   2.979  0.3290  0.6596  0.0248
 3998SOL    HW212376   5.545   1.146   3.091 -0.7856 -0.7801 -0.0366
 3999SOL     OW12377   3.389   5.402   2.277  0.1962  0.1968 -0.2034
 3999SOL    HW112378   3.317   5.464   2.287  0.0930  0.2559 -1.2775
 3999SOL    HW212379   3.458   5.452   2.234  0.2884 -0.2929 -0.6338
 4000SOL     OW12380   6.250   3.894   4.479  0.2997  0.3624 -0.6162
 4000SOL    HW112381   6.244   3.867   4.388 -1.4923  0.0839 -0.4339
 4000SOL    HW212382   6.159   3.902   4.508  0.8316  2.0720  0.6683
 4001SOL     OW12383   1.008   4.322   3.804 -0.3760 -0.1295  0.5413
 4001SOL    HW112384   1.058   4.404   3.798 -0.6789  0.0631  0.6328
 4001SOL    HW212385   0.936   4.334   3.741 -2.1676  0.8997  2.7350
 4002SOL     OW12386   4.662   6.054   0.835  0.0706 -0.9979 -0.3759
 4002SOL    HW112387   4.667   5.965   0.800 -0.0795 -1.1276 -0.0657
 4002SOL    HW212388   4.586   6.054   0.893  0.6439 -0.9388  0.3844
 4003SOL     OW12389   4.889   2.806   1.908  0.4645  0.1623 -0.0406
 4003SOL    HW112390   4.797   2.778   1.916  0.2557  0.9344  0.3055
 4003SOL    HW212391   4.927   2.787   1.994  0.2190  1.2981  0.3242
 4004SOL     OW12392   2.073   2.469   5.150  0.2577  0.5496 -0.6362
 4004SOL    HW112393   2.038   2.391   5.107  1.7276 -0.7515  0.4380
 4004SOL    HW212394   1.996   2.517   5.180 -0.6581 -1.3200  0.1040
 4005SOL     OW12395   4.896   6.244   3.592 -0.4359  0.0758  0.7161
 4005SOL    HW112396   4.830   6.256   3.525  0.4820 -0.0545 -0.2279
 4005SOL    HW212397   4.976   6.223   3.543  0.9003  2.6993  1.6750
 4006SOL     OW12398   0.831   1.917   2.185  0.2894  0.1568 -0.1615
 4006SOL    HW112399   0.795   1.920   2.096 -2.2622  0.2434  0.8460
 4006SOL    HW212400   0.889   1.994   2.189  0.7355 -0.0639 -1.8610
 4007SOL     OW12401   5.618   2.701   4.032 -0.1492 -0.2666  0.4509
 4007SOL    HW112402   5.546   2.642   4.056 -0.9574  0.5073 -0.0653
 4007SOL    HW212403   5.580   2.788   4.038  1.4852  0.3360  2.7701
 4008SOL     OW12404   0.226   1.837   1.310 -0.1449  0.1926 -0.7445
 4008SOL    HW112405   0.264   1.773   1.250  1.3327  0.0552  0.2977
 4008SOL    HW212406   0.283   1.913   1.303 -0.4772  0.4973 -0.1795
 4009SOL     OW12407   0.646   2.822   1.564 -0.0463 -0.0995  0.3237
 4009SOL    HW112408   0.630   2.766   1.489  1.0944 -0.1512  0.1037
 4009SOL    HW212409   0.563   2.822   1.612 -0.3826 -1.1168 -0.2287
 4010SOL     OW12410   1.121   3.515   6.192 -0.0023  0.2601 -0.2466
 4010SOL    HW112411   1.157   3.595   6.230  1.9105 -0.2946 -0.8507
 4010SOL    HW212412   1.092   3.464   6.267  2.3151 -0.1536  0.3958
 4011SOL     OW12413   5.782   4.991   1.001  0.0626  0.9957  0.0427
 4011SOL    HW112414   5.862   4.970   0.952 -0.4116 -1.0103  0.0801
 4011SOL    HW212415   5.715   5.001   0.933 -0.2463 -0.1330  0.1815
 4012SOL     OW12416   1.239   1.371   1.432  0.2093  0.1801  0.0895
 4012SOL    HW112417   1.331   1.360   1.406  0.1405 -1.3310  0.4503
 4012SOL    HW212418   1.194   1.396   1.351  0.8112  0.2040 -0.2433
 4013SOL     OW12419   0.522   5.202   5.263  0.9506  0.2428  0.0361
 4013SOL    HW112420   0.438   5.202   5.310  1.7079  1.0338  1.4324
 4013SOL    HW212421   0.513   5.133   5.197 -1.6178  1.7953 -1.3275
 4014SOL     OW12422   0.229   3.145   0.224  0.0772 -0.6997  0.0636
 4014SOL    HW112423   0.256   3.150   0.132 -2.3557 -1.3997 -0.7362
 4014SOL    HW212424   0.177   3.065   0.228 -1.0497  0.1043  1.7401
 4015SOL     OW12425   3.791   5.616   1.856  0.2907 -0.2275 -0.1668
 4015SOL    HW112426   3.872   5.666   1.848  0.6092 -0.7586 -0.3341
 4015SOL    HW212427   3.721   5.680   1.847  0.6963  0.2833  0.2955
 4016SOL     OW12428   4.963   3.408   3.460  0.0063 -0.2374  0.0171
 4016SOL    HW112429   5.005   3.395   3.375 -0.0158  0.1912 -0.0575
 4016SOL    HW212430   5.030   3.380   3.524  1.6507  3.4926  0.0407
 4017SOL     OW12431   5.425   2.956   4.418 -0.7769  0.5132 -0.8800
 4017SOL    HW112432   5.431   2.886   4.353 -1.5834  0.7967 -1.2653
 4017SOL    HW212433   5.487   2.931   4.486 -0.3664 -0.0944 -1.4720
 4018SOL     OW12434   5.683   5.519   0.668 -0.1328  0.3222 -0.4456
 4018SOL    HW112435   5.601   5.519   0.619 -0.8443 -1.0116  0.7101
 4018SOL    HW212436   5.731   5.443   0.635  0.2183  0.5227 -0.4050
 4019SOL     OW12437   6.144   4.003   5.581 -0.5033 -0.7694  0.3040
 4019SOL    HW112438   6.128   3.909   5.576 -1.6547 -0.5380 -0.6744
 4019SOL    HW212439   6.096   4.039   5.506  2.0452  0.3209 -0.8715
 4020SOL     OW12440   0.541   2.217   1.115  0.0631  0.1230  0.1272
 4020SOL    HW112441   0.616   2.215   1.174  1.0793  0.2986 -1.1365
 4020SOL    HW212442   0.578   2.242   1.030 -1.3032 -0.5499 -0.6802
 4021SOL     OW12443   5.739   2.499   3.436 -0.2134  0.2526  0.4069
 4021SOL    HW112444   5.820   2.540   3.467 -0.0370  0.8643 -0.8005
 4021SOL    HW212445   5.670   2.538   3.490  0.0416  1.6196 -0.2169
 4022SOL     OW12446   2.154   1.179   6.308  0.1625 -0.4971  0.1170
 4022SOL    HW112447   2.069   1.138   6.323 -0.0011  0.0297  0.6576
 4022SOL    HW212448   2.217   1.121   6.353  0.0968 -0.9024 -0.3089
 4023SOL     OW12449   1.942   5.312   0.562  0.2939  0.1519  0.2361
 4023SOL    HW112450   1.862   5.299   0.614  1.2464  0.0946  1.7078
 4023SOL    HW212451   1.915   5.294   0.472 -1.7175  1.6275  0.5166
 4024SOL     OW12452   5.970   4.159   4.195  1.1583  0.4968  0.2733
 4024SOL    HW112453   5.936   4.082   4.148  1.1452  0.3416  0.5409
 4024SOL    HW212454   5.997   4.218   4.125 -0.3928  0.9605  0.0431
 4025SOL     OW12455   3.387   3.061   4.908  0.6501 -0.0907  0.7764
 4025SOL    HW112456   3.357   3.007   4.982  0.5283 -0.1534  0.6819
 4025SOL    HW212457   3.363   3.151   4.933  0.2535 -0.1585  0.6363
 4026SOL     OW12458   3.344   2.086   3.117 -0.0073 -0.0726 -0.1592
 4026SOL    HW112459   3.343   2.137   3.036 -0.9991  0.0882 -0.0524
 4026SOL    HW212460   3.252   2.080   3.143  0.1824 -1.1739  0.2977
 4027SOL     OW12461   4.264   3.033   1.094 -0.1257  0.5714  0.3303
 4027SOL    HW112462   4.226   2.973   1.159  1.1045 -0.1496  0.4010
 4027SOL    HW212463   4.197   3.100   1.081 -1.3097 -0.5358  0.6464
 4028SOL     OW12464   3.402   4.237   0.828 -0.1197  0.2274 -0.2933
 4028SOL    HW112465   3.425   4.328   0.844  0.1207  0.4320 -1.7054
 4028SOL    HW212466   3.317   4.226   0.869 -0.7203  1.4371 -1.1770
 4029SOL     OW12467   1.238   0.246   6.059  0.1624 -0.1222 -0.3404
 4029SOL    HW112468   1.194   0.326   6.029 -0.0248 -0.0929  0.0169
 4029SOL    HW212469   1.303   0.228   5.991  0.3887  0.4833 -0.2889
 4030SOL     OW12470   2.013   0.575   2.374 -0.0653  0.2274 -0.3076
 4030SOL    HW112471   1.951   0.636   2.416  0.1118  0.8902 -1.0077
 4030SOL    HW212472   1.989   0.577   2.281  0.2119 -0.4616 -0.3954
 4031SOL     OW12473   4.360   1.187   3.141 -0.6388  0.0668  0.5768
 4031SOL    HW112474   4.288   1.137   3.179 -1.0817  0.2193 -0.0561
 4031SOL    HW212475   4.318   1.243   3.075 -0.0297  0.6307  0.6649
 4032SOL     OW12476   5.426   5.703   1.750  0.6764 -0.0702 -0.6230
 4032SOL    HW112477   5.468   5.724   1.834  0.7518  0.9511 -0.9101
 4032SOL    HW212478   5.476   5.629   1.716 -0.4653 -1.6873  1.0684
 4033SOL     OW12479   3.866   2.829   5.971 -0.0095 -0.3293  0.2798
 4033SOL    HW112480   3.854   2.915   6.013  0.8040 -0.0421 -0.0793
 4033SOL    HW212481   3.818   2.836   5.889 -0.7097 -0.5309  0.6672
 4034SOL     OW12482   3.769   0.801   5.651  0.1668  0.4948 -0.1763
 4034SOL    HW112483   3.756   0.710   5.626 -0.4695  0.7521 -0.8168
 4034SOL    HW212484   3.686   0.844   5.628  0.0136  0.9933  1.2479
 4035SOL     OW12485   3.811   1.552   1.906  0.2342  0.0471  0.2295
 4035SOL    HW112486   3.739   1.576   1.848 -0.5439 -0.9148  0.7668
 4035SOL    HW212487   3.883   1.528   1.847 -0.6639 -1.2823 -0.3631
 4036SOL     OW12488   5.034   5.939   1.909 -0.1597 -0.2947  0.3257
 4036SOL    HW112489   5.081   5.903   1.834  0.4088  2.3421 -0.6344
 4036SOL    HW212490   5.036   5.869   1.974  1.7198 -1.6191 -1.0964
 4037SOL     OW12491   1.488   6.144   2.991  0.0433  0.7641  0.2208
 4037SOL    HW112492   1.549   6.199   3.039  0.8164 -0.0825  0.2411
 4037SOL    HW212493   1.403   6.184   3.004  0.2598  0.6531  2.1568
 4038SOL     OW12494   2.904   4.630   2.470  0.2828  0.6270 -0.4882
 4038SOL    HW112495   2.853   4.675   2.537  2.2191  0.9894  0.8116
 4038SOL    HW212496   2.978   4.689   2.453 -0.0826  0.4320 -2.8079
 4039SOL     OW12497   0.982   1.045   6.108 -0.0829  0.1779 -0.3522
 4039SOL    HW112498   1.067   1.007   6.132  0.4150  0.4713 -1.6319
 4039SOL    HW212499   0.955   0.996   6.031 -0.7288  0.5891 -0.3875
 4040SOL     OW12500   4.870   3.909   3.806  0.2354 -0.6648  0.8376
 4040SOL    HW112501   4.903   3.954   3.884 -1.2621 -1.2523  1.8342
 4040SOL    HW212502   4.886   3.817   3.823  1.4718 -0.6989 -0.3381
 4041SOL     OW12503   2.171   3.279   4.949  0.6659  0.5558  0.3199
 4041SOL    HW112504   2.229   3.299   5.023  2.5442 -1.7114 -0.4816
 4041SOL    HW212505   2.226   3.292   4.872 -0.1042 -0.9951 -0.4993
 4042SOL     OW12506   1.174   1.917   5.005 -1.1909  0.1119  0.2157
 4042SOL    HW112507   1.224   1.899   4.926 -1.7868  0.2639 -0.2007
 4042SOL    HW212508   1.114   1.988   4.981 -1.0290  0.5025  0.9460
 4043SOL     OW12509   2.654   0.848   1.428  0.3301 -0.1909  0.3192
 4043SOL    HW112510   2.571   0.895   1.428  0.7643  0.6113 -0.9357
 4043SOL    HW212511   2.653   0.797   1.346  0.5138 -1.2059  0.9311
 4044SOL     OW12512   3.795   1.699   3.258  0.0810  0.1486 -0.0709
 4044SOL    HW112513   3.803   1.619   3.205 -0.6390  1.1958 -1.8124
 4044SOL    HW212514   3.729   1.678   3.324  1.6816 -1.4982  1.0408
 4045SOL     OW12515   1.523   4.138   1.464  0.2919 -0.1229  0.2048
 4045SOL    HW112516   1.483   4.054   1.486  0.7542 -0.5316 -0.4680
 4045SOL    HW212517   1.483   4.201   1.524 -0.7234 -0.6672  0.1118
 4046SOL     OW12518   2.874   4.616   0.986  0.2361  0.0326 -0.6416
 4046SOL    HW112519   2.849   4.542   0.931 -1.0712 -0.2731  0.3373
 4046SOL    HW212520   2.853   4.694   0.934 -0.7682 -0.2555 -0.6704
 4047SOL     OW12521   4.671   1.245   4.523 -0.6159  0.0816 -0.0188
 4047SOL    HW112522   4.707   1.307   4.586  0.3313 -0.7009  0.2243
 4047SOL    HW212523   4.646   1.299   4.448  2.0225  0.5588 -0.6183
 4048SOL     OW12524   5.058   1.585   5.184  0.2821  0.2282 -0.1711
 4048SOL    HW112525   5.087   1.583   5.092  1.1196 -1.5032  0.1029
 4048SOL    HW212526   4.976   1.536   5.183  0.1294  0.4836 -0.0494
 4049SOL     OW12527   0.244   2.906   2.720 -0.0722 -0.2341 -0.7903
 4049SOL    HW112528   0.280   2.899   2.808  0.3854 -0.8271 -1.0196
 4049SOL    HW212529   0.175   2.840   2.717 -1.0488  0.7504 -0.4230
 4050SOL     OW12530   5.621   0.646   0.704  0.3456 -0.1967 -0.2134
 4050SOL    HW112531   5.617   0.716   0.770 -0.7826 -1.2475  0.8544
 4050SOL    HW212532   5.682   0.583   0.741 -0.2807 -0.7809 -0.1716
 4051SOL     OW12533   1.962   1.048   1.474  0.0387 -0.1324  0.3145
 4051SOL    HW112534   1.900   1.004   1.531  1.6534 -0.7951  1.6094
 4051SOL    HW212535   2.014   1.103   1.533  0.5816  0.5443 -0.7671
 4052SOL     OW12536   5.801   0.991   3.604  0.2333 -0.2078 -0.0948
 4052SOL    HW112537   5.803   0.919   3.542  4.0532 -0.5226  0.2978
 4052SOL    HW212538   5.758   0.955   3.681  0.4214 -1.4800 -0.5706
 4053SOL     OW12539   4.119   0.173   1.348  0.3215  0.1147  0.8686
 4053SOL    HW112540   4.053   0.164   1.417  0.2317  0.4393  0.8229
 4053SOL    HW212541   4.196   0.129   1.384  0.8868  1.9846  1.9814
 4054SOL     OW12542   0.888   5.875   5.949  0.1706 -0.4132  0.2278
 4054SOL    HW112543   0.828   5.899   6.019  0.0479  1.4388 -0.5042
 4054SOL    HW212544   0.960   5.830   5.994  0.3444  1.2002  1.6276
 4055SOL     OW12545   2.177   0.647   3.678 -0.3125 -0.2872 -0.1440
 4055SOL    HW112546   2.207   0.627   3.589  0.0758 -1.0851  0.1655
 4055SOL    HW212547   2.248   0.616   3.734 -0.1740  0.9848  0.4054
 4056SOL     OW12548   6.101   6.195   0.799  0.1293  0.9577 -0.2885
 4056SOL    HW112549   6.046   6.122   0.770  1.0163  0.6577 -1.2422
 4056SOL    HW212550   6.134   6.234   0.719  1.3482  1.0958  0.2628
 4057SOL     OW12551   4.176   4.425   2.022  0.3679 -0.3729 -0.1820
 4057SOL    HW112552   4.095   4.477   2.021  0.1368 -0.6664  1.1607
 4057SOL    HW212553   4.207   4.425   1.932  0.0992  1.6706 -0.2805
 4058SOL     OW12554   3.958   3.222   4.236  0.0685  0.1557 -0.7500
 4058SOL    HW112555   3.991   3.187   4.154 -0.8487  0.4957 -1.2764
 4058SOL    HW212556   4.022   3.196   4.302  1.4209  0.8931 -1.7568
 4059SOL     OW12557   3.567   0.574   6.268  0.0712 -0.4990 -0.3211
 4059SOL    HW112558   3.589   0.665   6.288 -2.1829 -0.7419  3.6350
 4059SOL    HW212559   3.651   0.527   6.274  0.5805  0.6462  1.6772
 4060SOL     OW12560   3.374   0.784   0.539 -0.4656  0.4198 -0.1108
 4060SOL    HW112561   3.447   0.816   0.485 -1.2390  1.6582 -0.4286
 4060SOL    HW212562   3.414   0.767   0.625  0.4255  0.0334 -0.5977
 4061SOL     OW12563   1.290   4.212   2.450  0.3554 -0.3605  0.4226
 4061SOL    HW112564   1.368   4.184   2.400  1.8298  1.5058  1.6430
 4061SOL    HW212565   1.264   4.294   2.409  1.3707  1.0094  2.4930
 4062SOL     OW12566   0.820   2.135   2.584 -0.1023  0.7945 -0.4754
 4062SOL    HW112567   0.773   2.181   2.513 -1.2309  0.6746  0.1864
 4062SOL    HW212568   0.899   2.102   2.542 -1.0754  0.1676 -1.8478
 4063SOL     OW12569   1.190   4.032   1.693 -0.1062 -0.1430 -0.2796
 4063SOL    HW112570   1.188   3.939   1.672  0.6173 -0.3929  0.7086
 4063SOL    HW212571   1.275   4.045   1.736 -0.4669  0.8451  0.1597
 4064SOL     OW12572   3.905   5.368   0.219 -0.0410 -0.0891 -0.3406
 4064SOL    HW112573   3.868   5.354   0.132  1.3084 -2.2172 -0.6098
 4064SOL    HW212574   3.994   5.399   0.202  1.2671 -3.3789  0.2241
 4065SOL     OW12575   3.358   5.115   3.563  0.1285 -0.0650  0.2760
 4065SOL    HW112576   3.389   5.090   3.650  0.3797  2.3433  0.9351
 4065SOL    HW212577   3.266   5.138   3.577  0.4115  1.2140  0.1270
 4066SOL     OW12578   4.373   3.181   6.260  0.5142  0.3093  0.8964
 4066SOL    HW112579   4.445   3.205   6.201 -0.2738  0.2481 -0.1132
 4066SOL    HW212580   4.297   3.177   6.202 -0.6475  2.1406  2.2397
 4067SOL     OW12581   5.559   1.746   2.262  0.1196  0.4798 -0.1568
 4067SOL    HW112582   5.478   1.719   2.305 -1.7654  2.9607 -2.0281
 4067SOL    HW212583   5.604   1.800   2.327  0.9909 -2.0151  1.3809
 4068SOL     OW12584   3.185   2.779   3.886 -0.2094  0.2303  0.0292
 4068SOL    HW112585   3.228   2.706   3.931 -1.1731 -0.4579 -0.1651
 4068SOL    HW212586   3.141   2.738   3.811 -2.1546  0.7802  0.8628
 4069SOL     OW12587   2.781   0.522   4.480  0.6015  0.0891  0.2787
 4069SOL    HW112588   2.785   0.444   4.424  2.9148  0.4298 -0.0769
 4069SOL    HW212589   2.711   0.503   4.542 -1.6033 -0.5723 -2.3051
 4070SOL     OW12590   5.225   3.542   6.306  0.2548 -0.4345  1.0390
 4070SOL    HW112591   5.207   3.636   6.302  0.2045 -0.2827  3.9378
 4070SOL    HW212592   5.206   3.510   6.218  1.1786  2.4217 -0.2692
 4071SOL     OW12593   6.333   0.842   6.254  0.3115  0.1223  0.1472
 4071SOL    HW112594   6.379   0.905   6.199  1.2922 -1.1826 -0.5598
 4071SOL    HW212595   6.361   0.863   6.343  2.4374 -0.7475 -0.2844
 4072SOL     OW12596   1.570   4.983   2.724  0.2601 -0.4620 -0.0290
 4072SOL    HW112597   1.634   4.915   2.745  0.3126 -0.6778 -0.8985
 4072SOL    HW212598   1.622   5.063   2.714  0.2911 -0.4617  0.1301
 4073SOL     OW12599   5.104   0.299   1.333 -0.0126 -0.5444  0.2357
 4073SOL    HW112600   5.061   0.336   1.411  0.5541 -2.3087  1.4177
 4073SOL    HW212601   5.198   0.307   1.351  0.1227 -0.7338 -0.3795
 4074SOL     OW12602   2.645   2.952   4.700  0.5088  0.8481  0.8350
 4074SOL    HW112603   2.583   2.926   4.768  0.9817  0.1292  0.9983
 4074SOL    HW212604   2.590   2.968   4.623  0.0707  0.6616  1.1027
 4075SOL     OW12605   0.834   2.837   4.228  0.6328 -0.3761 -0.2461
 4075SOL    HW112606   0.880   2.919   4.248  1.8479 -0.9658 -0.5851
 4075SOL    HW212607   0.768   2.863   4.164  2.0388  0.0772 -1.5451
 4076SOL     OW12608   0.658   5.226   5.496 -0.4615 -0.0600 -0.2657
 4076SOL    HW112609   0.624   5.230   5.407 -0.8787 -1.6229 -0.1882
 4076SOL    HW212610   0.626   5.306   5.538 -1.7767 -0.2056 -0.9797
 4077SOL     OW12611   6.142   3.391   1.792 -0.6823  0.7206 -0.3493
 4077SOL    HW112612   6.056   3.378   1.831 -1.8032  0.4159 -2.8342
 4077SOL    HW212613   6.176   3.302   1.779 -0.5185  0.8011 -0.4712
 4078SOL     OW12614   1.171   3.588   5.128 -0.1172  0.2185  0.5226
 4078SOL    HW112615   1.100   3.652   5.123  0.0006  0.3269  0.1980
 4078SOL    HW212616   1.127   3.503   5.130 -0.3681  0.3759  3.4949
 4079SOL     OW12617   0.261   3.326   5.570  0.0206 -0.0252  0.2486
 4079SOL    HW112618   0.326   3.296   5.506  0.2386 -0.9564  0.9056
 4079SOL    HW212619   0.243   3.417   5.544  0.3938 -0.2625 -0.9016
 4080SOL     OW12620   5.435   4.240   0.832 -0.7694  0.2283  0.7475
 4080SOL    HW112621   5.529   4.255   0.823 -1.0346  0.1468 -2.8386
 4080SOL    HW212622   5.428   4.181   0.906  2.1196 -0.6417  0.4226
 4081SOL     OW12623   2.933   5.770   0.781  0.0335 -0.0029 -0.4234
 4081SOL    HW112624   2.967   5.696   0.730  1.0088 -0.0431  0.2796
 4081SOL    HW212625   2.838   5.756   0.781  0.2212 -1.4159 -0.0601
 4082SOL     OW12626   2.250   5.977   0.522  0.0407 -0.6647 -0.2124
 4082SOL    HW112627   2.318   6.038   0.551  0.1987 -0.6528 -0.6065
 4082SOL    HW212628   2.264   5.898   0.575 -0.7661 -0.0205  0.9793
 4083SOL     OW12629   1.922   5.080   2.573  0.6056  0.3267  0.3893
 4083SOL    HW112630   1.841   5.065   2.525  1.4283 -0.1858 -0.8596
 4083SOL    HW212631   1.909   5.165   2.616 -0.7509  0.0395  0.5741
 4084SOL     OW12632   4.524   5.720   1.240  0.1484 -0.5503  0.0392
 4084SOL    HW112633   4.520   5.662   1.316 -0.1895  0.0738  0.5004
 4084SOL    HW212634   4.445   5.701   1.191 -1.3103  1.3889  1.5636
 4085SOL     OW12635   5.369   3.375   3.484  0.1451  0.3548  0.0369
 4085SOL    HW112636   5.410   3.427   3.554 -1.2434  0.3540  0.8638
 4085SOL    HW212637   5.297   3.330   3.526  0.6446 -1.4108 -0.9345
 4086SOL     OW12638   4.302   4.676   4.356 -0.6900  0.6793 -0.6788
 4086SOL    HW112639   4.256   4.754   4.327 -1.9641  0.4227  0.5637
 4086SOL    HW212640   4.362   4.655   4.285 -2.2380  1.2347 -2.1752
 4087SOL     OW12641   5.776   0.612   3.770 -0.0460  0.4205 -0.2654
 4087SOL    HW112642   5.736   0.674   3.830  0.0786 -0.0986  0.3654
 4087SOL    HW212643   5.860   0.652   3.745 -0.2796  0.8201 -0.4123
 4088SOL     OW12644   0.095   2.673   4.397 -0.0718  0.0795  0.2479
 4088SOL    HW112645   0.085   2.682   4.302 -2.5351  1.0651  0.5779
 4088SOL    HW212646   0.173   2.724   4.418  0.9581 -0.8146 -1.3443
 4089SOL     OW12647   1.789   6.124   0.750  0.4137  0.7441  0.3571
 4089SOL    HW112648   1.744   6.104   0.832  0.1394  0.8381  0.2281
 4089SOL    HW212649   1.726   6.175   0.699  0.1863 -0.2237 -0.3471
 4090SOL     OW12650   5.610   3.336   2.688  0.4134  0.1759  0.1507
 4090SOL    HW112651   5.651   3.352   2.773  0.4496 -1.0837  0.3835
 4090SOL    HW212652   5.522   3.371   2.697  1.3627  2.7931 -0.3078
 4091SOL     OW12653   0.812   6.032   5.561 -0.0048  0.2682 -0.2401
 4091SOL    HW112654   0.814   6.068   5.472  0.1610  3.3610  0.9856
 4091SOL    HW212655   0.902   6.035   5.591 -0.1830 -0.0112  0.3310
 4092SOL     OW12656   3.613   0.093   3.721  0.0899 -0.2120 -0.1545
 4092SOL    HW112657   3.666   0.049   3.787 -1.4813 -0.4778  0.9477
 4092SOL    HW212658   3.587   0.175   3.762 -0.9104 -0.3886 -0.4333
 4093SOL     OW12659   3.033   1.943   1.148  0.1380 -0.2175 -0.1506
 4093SOL    HW112660   3.033   1.950   1.052 -0.3461 -3.3651 -0.4120
 4093SOL    HW212661   3.126   1.934   1.171  0.1172 -1.4010 -0.5002
 4094SOL     OW12662   1.443   5.478   2.814  0.1726 -0.3565  0.4274
 4094SOL    HW112663   1.361   5.433   2.834  0.9188 -2.3863 -0.9122
 4094SOL    HW212664   1.486   5.489   2.898 -1.0797 -0.0513  1.0393
 4095SOL     OW12665   2.791   4.435   5.311 -0.4090 -0.0494  0.8653
 4095SOL    HW112666   2.818   4.352   5.273 -0.7527  2.2146 -4.7359
 4095SOL    HW212667   2.871   4.487   5.316 -0.4524 -0.1410  2.9574
 4096SOL     OW12668   4.639   1.369   1.882  0.0700  0.1930 -0.3272
 4096SOL    HW112669   4.621   1.445   1.937 -0.8325 -0.0571 -0.2782
 4096SOL    HW212670   4.604   1.392   1.796 -1.4266 -0.7033  0.0340
 4097SOL     OW12671   2.940   1.778   0.796  0.4443 -0.3360 -0.7363
 4097SOL    HW112672   2.943   1.742   0.885  2.0073 -1.0577 -1.0646
 4097SOL    HW212673   2.849   1.805   0.784  0.1586 -0.4800  0.9848
 4098SOL     OW12674   4.266   5.406   4.626  0.2788 -0.9457 -0.3088
 4098SOL    HW112675   4.318   5.348   4.571  2.9445  0.5770  0.4907
 4098SOL    HW212676   4.248   5.355   4.705  0.3045 -1.5952 -0.7207
 4099SOL     OW12677   2.737   1.688   5.169 -0.2242 -0.4154 -0.3833
 4099SOL    HW112678   2.750   1.719   5.258  3.0137  0.5720 -1.1026
 4099SOL    HW212679   2.736   1.592   5.176  0.7032 -0.3544  0.6393
 4100SOL     OW12680   1.986   3.793   3.993 -0.5469 -0.0787  0.3239
 4100SOL    HW112681   1.990   3.888   3.992  0.9119 -0.1298  0.4164
 4100SOL    HW212682   2.049   3.766   4.060 -0.4870 -1.1242 -0.1312
 4101SOL     OW12683   3.110   6.117   4.269 -0.0501 -0.0635 -0.5129
 4101SOL    HW112684   3.155   6.040   4.235  0.4824 -0.3292  0.7346
 4101SOL    HW212685   3.142   6.125   4.359 -1.3476  0.6519 -0.0998
 4102SOL     OW12686   0.346   5.836   2.595 -0.6934  0.0978  0.5108
 4102SOL    HW112687   0.345   5.773   2.523  0.4293  0.6049  0.0473
 4102SOL    HW212688   0.319   5.785   2.672 -3.4091 -0.0977 -0.5259
 4103SOL     OW12689   3.628   3.211   5.141  0.1279  0.2465  0.1496
 4103SOL    HW112690   3.713   3.253   5.125  0.1244 -0.3759 -1.6038
 4103SOL    HW212691   3.646   3.117   5.135 -0.6126  0.1059  0.0697
 4104SOL     OW12692   5.114   3.608   5.532  0.4275 -0.3783 -0.3245
 4104SOL    HW112693   5.194   3.575   5.492  0.9247  1.3328 -0.7691
 4104SOL    HW212694   5.139   3.632   5.621  0.1866 -0.7295 -0.1600
 4105SOL     OW12695   5.106   5.642   3.722  0.1721  0.0739  0.1027
 4105SOL    HW112696   5.019   5.635   3.763 -0.2011 -1.0570 -0.8729
 4105SOL    HW212697   5.103   5.724   3.674 -0.2859  0.1373  0.2355
 4106SOL     OW12698   5.150   1.287   2.146 -0.3869  0.1820 -0.5677
 4106SOL    HW112699   5.126   1.280   2.239 -4.1919  1.0785 -1.4155
 4106SOL    HW212700   5.209   1.362   2.143  0.7845 -0.6161  1.2746
 4107SOL     OW12701   4.162   1.511   3.461  0.0299  0.1668  0.2276
 4107SOL    HW112702   4.075   1.499   3.497 -0.8646  2.5362 -0.9865
 4107SOL    HW212703   4.157   1.475   3.372  0.0177  1.0616 -0.1436
 4108SOL     OW12704   3.097   3.680   3.870  0.1292 -0.1769  0.7234
 4108SOL    HW112705   3.166   3.733   3.830 -0.3389 -0.5533 -0.6203
 4108SOL    HW212706   3.045   3.650   3.796 -1.2525 -0.2151  1.7049
 4109SOL     OW12707   4.346   1.456   5.916  0.2168  0.2943 -0.4237
 4109SOL    HW112708   4.270   1.429   5.863 -0.3853  1.0093  0.0707
 4109SOL    HW212709   4.329   1.548   5.937  0.4577  0.0247  0.9962
 4110SOL     OW12710   2.987   4.237   2.920  0.4633  0.0604  0.7106
 4110SOL    HW112711   2.985   4.160   2.977 -0.9723  0.0367  0.6556
 4110SOL    HW212712   2.913   4.224   2.861  1.6242  0.3546 -0.8207
 4111SOL     OW12713   4.281   4.515   3.983 -0.3166 -0.2096 -0.3315
 4111SOL    HW112714   4.365   4.501   3.939  0.3797  0.7846  0.6825
 4111SOL    HW212715   4.275   4.610   3.993 -1.7132 -0.2565 -0.6782
 4112SOL     OW12716   3.159   0.587   3.785 -0.1904 -0.3151  0.5754
 4112SOL    HW112717   3.068   0.585   3.756 -0.3015  0.4687  0.8406
 4112SOL    HW212718   3.210   0.576   3.704 -0.5057  1.3131  0.1317
 4113SOL     OW12719   5.813   1.649   5.881 -0.1708 -0.3689 -0.2942
 4113SOL    HW112720   5.766   1.695   5.949 -1.2047 -2.9179  0.7674
 4113SOL    HW212721   5.759   1.659   5.803 -0.2503  0.4152 -0.1425
 4114SOL     OW12722   0.398   1.261   5.282  0.1854  0.3648 -0.4511
 4114SOL    HW112723   0.352   1.342   5.259  0.0093  0.0138 -1.3655
 4114SOL    HW212724   0.329   1.203   5.312  0.2868  0.4825  0.0161
 4115SOL     OW12725   0.280   3.407   5.007  0.0756 -0.0441 -0.1940
 4115SOL    HW112726   0.305   3.499   5.009 -1.0949  0.2907 -0.7929
 4115SOL    HW212727   0.363   3.360   5.016  0.7298  1.0585 -0.3779
 4116SOL     OW12728   0.385   2.994   2.946  0.4948 -0.3123  0.2379
 4116SOL    HW112729   0.370   3.053   3.020  1.6556 -2.1558  2.0033
 4116SOL    HW212730   0.474   3.013   2.917 -0.0692  0.6367 -0.9451
 4117SOL     OW12731   3.386   0.418   4.208 -0.1517  0.0510  0.3730
 4117SOL    HW112732   3.437   0.378   4.138  0.2059  1.3465 -0.1051
 4117SOL    HW212733   3.300   0.433   4.169 -0.6344 -1.2538  0.8920
 4118SOL     OW12734   0.305   4.734   4.296 -0.8795  0.0720  0.2162
 4118SOL    HW112735   0.349   4.745   4.381  0.8900 -0.4978 -0.6089
 4118SOL    HW212736   0.376   4.726   4.233 -2.1789  1.4555 -1.4679
 4119SOL     OW12737   0.461   3.753   4.350  0.5895  0.1581  0.3807
 4119SOL    HW112738   0.381   3.726   4.393  1.5139 -0.9843  1.4298
 4119SOL    HW212739   0.435   3.770   4.259 -1.0377  0.9278  0.9762
 4120SOL     OW12740   0.988   3.004   0.242  0.3273 -0.2676  0.6083
 4120SOL    HW112741   1.014   2.992   0.151 -1.3529  0.4976  0.0091
 4120SOL    HW212742   1.037   2.937   0.290  2.6513  0.5047 -0.5818
 4121SOL     OW12743   4.364   0.023   1.312  0.3584 -0.1984  0.1441
 4121SOL    HW112744   4.456   0.030   1.338  0.6599 -1.3034 -0.6123
 4121SOL    HW212745   4.356   0.078   1.235  0.4624 -0.3782  0.0056
 4122SOL     OW12746   5.154   5.782   4.614 -0.0459  0.2008  0.0897
 4122SOL    HW112747   5.235   5.766   4.662  1.4691 -0.2789 -2.5429
 4122SOL    HW212748   5.179   5.839   4.542 -2.1959  0.6043 -0.3754
 4123SOL     OW12749   2.237   0.465   1.518 -0.3270  0.2574 -0.0010
 4123SOL    HW112750   2.181   0.387   1.521 -0.9473  0.6860 -0.1327
 4123SOL    HW212751   2.304   0.449   1.584 -0.3752 -0.4452 -0.1195
 4124SOL     OW12752   5.107   1.309   5.865 -0.0689  0.6576  0.0876
 4124SOL    HW112753   5.157   1.268   5.935  2.5341 -1.4033 -2.8428
 4124SOL    HW212754   5.156   1.387   5.843 -0.6497  1.0727  0.2520
 4125SOL     OW12755   2.445   3.476   1.880 -0.2182 -0.1713 -0.0183
 4125SOL    HW112756   2.357   3.441   1.863  0.0059 -0.6519 -0.1769
 4125SOL    HW212757   2.503   3.425   1.823  0.1420  0.2755 -0.0553
 4126SOL     OW12758   3.598   3.153   4.548  0.3209  0.3743  0.1646
 4126SOL    HW112759   3.626   3.143   4.457  1.6143  0.3858  0.5558
 4126SOL    HW212760   3.662   3.212   4.587 -0.4361  0.6658  0.9958
 4127SOL     OW12761   2.913   4.378   0.100 -0.6469 -0.7228 -0.3758
 4127SOL    HW112762   2.992   4.390   0.153  1.0827 -0.5057 -2.8992
 4127SOL    HW212763   2.945   4.337   0.019 -3.0814 -0.3310 -1.5646
 4128SOL     OW12764   4.998   1.314   2.964  0.2871 -0.8872  0.0101
 4128SOL    HW112765   5.045   1.291   2.884 -0.4176 -0.9155 -0.3898
 4128SOL    HW212766   4.909   1.283   2.950  0.2283 -1.1608  0.9211
 4129SOL     OW12767   1.937   3.766   1.885 -0.2012 -0.8717  0.0273
 4129SOL    HW112768   2.023   3.756   1.925 -0.4827 -0.4643  0.7284
 4129SOL    HW212769   1.951   3.828   1.813  0.4054 -1.9899 -0.8556
 4130SOL     OW12770   3.297   3.448   4.664  0.5236 -0.0697 -0.3879
 4130SOL    HW112771   3.226   3.384   4.662 -0.7017  1.2204  0.6955
 4130SOL    HW212772   3.341   3.438   4.579 -0.5483 -1.3230 -0.8062
 4131SOL     OW12773   4.364   1.222   4.309  0.1584  0.0256  0.3861
 4131SOL    HW112774   4.391   1.175   4.388 -2.0159 -0.6214  0.7828
 4131SOL    HW212775   4.440   1.274   4.285  1.0137 -0.1011  2.6660
 4132SOL     OW12776   5.045   2.515   3.376 -0.5175 -0.0027 -0.1611
 4132SOL    HW112777   5.065   2.482   3.288  0.7663  0.3288 -0.0081
 4132SOL    HW212778   4.950   2.522   3.378 -0.5593 -0.0445 -1.5215
 4133SOL     OW12779   0.528   3.452   2.059 -0.1602 -0.2314  0.1068
 4133SOL    HW112780   0.449   3.411   2.022 -0.4218  0.5518 -0.2160
 4133SOL    HW212781   0.600   3.398   2.027 -0.3678  0.5782 -1.7689
 4134SOL     OW12782   4.229   5.668   1.822 -0.1717  0.5872 -0.2544
 4134SOL    HW112783   4.319   5.672   1.791 -0.2739 -3.2412 -1.3269
 4134SOL    HW212784   4.236   5.638   1.913 -0.3788  0.6050 -0.2312
 4135SOL     OW12785   1.690   4.976   5.040  0.2919  0.4413 -0.2632
 4135SOL    HW112786   1.687   5.066   5.073  1.4949  0.6569 -0.7378
 4135SOL    HW212787   1.687   4.922   5.119 -1.9139  0.8561 -0.0383
 4136SOL     OW12788   1.790   0.606   2.668  0.2979  0.0814  0.3056
 4136SOL    HW112789   1.817   0.620   2.577  1.2559 -0.8842  0.4253
 4136SOL    HW212790   1.697   0.585   2.662  0.2472  0.4860 -0.4088
 4137SOL     OW12791   3.961   1.217   6.009  0.3992 -0.7046 -0.3467
 4137SOL    HW112792   3.999   1.304   6.020  1.3098 -1.1405  0.0322
 4137SOL    HW212793   3.891   1.212   6.074  0.1442 -0.1449 -0.5792
 4138SOL     OW12794   4.457   3.487   6.227  0.0195  0.2332  0.3485
 4138SOL    HW112795   4.495   3.490   6.315  0.5135 -1.4540  0.2091
 4138SOL    HW212796   4.377   3.436   6.237 -1.0170  1.7916  0.1938
 4139SOL     OW12797   1.062   3.411   0.605 -0.1791 -0.7744  0.6495
 4139SOL    HW112798   1.100   3.344   0.661 -1.5285 -0.8466  1.5109
 4139SOL    HW212799   1.036   3.364   0.526  0.9213 -0.8408  0.3224
 4140SOL     OW12800   5.714   3.621   4.259 -0.2180 -0.0624  0.2522
 4140SOL    HW112801   5.675   3.537   4.236 -1.5774  0.3753  0.9083
 4140SOL    HW212802   5.808   3.604   4.262 -0.4128 -1.3378 -0.5115
 4141SOL     OW12803   6.094   0.823   3.954 -0.4723  0.5715 -0.4937
 4141SOL    HW112804   6.049   0.834   3.870  0.0454  0.9914 -0.7203
 4141SOL    HW212805   6.124   0.732   3.954 -0.3668  0.6058 -0.8149
 4142SOL     OW12806   2.356   2.014   4.687  0.5040 -0.4073  0.2685
 4142SOL    HW112807   2.426   2.052   4.634 -0.5865  0.1414 -0.7874
 4142SOL    HW212808   2.365   2.056   4.772  0.1954  1.1606 -0.4692
 4143SOL     OW12809   2.725   0.221   5.472 -0.2946 -0.3926  0.2071
 4143SOL    HW112810   2.746   0.130   5.492 -0.9421 -0.3161  1.3270
 4143SOL    HW212811   2.779   0.272   5.534 -1.6241 -0.1053  1.1482
 4144SOL     OW12812   3.283   0.638   4.565 -0.2079 -0.0358 -0.6171
 4144SOL    HW112813   3.284   0.551   4.527 -3.0427 -1.2004  1.8167
 4144SOL    HW212814   3.191   0.661   4.571  0.3426  1.7350  1.8171
 4145SOL     OW12815   0.182   5.219   6.004  0.1851 -0.6161  0.7817
 4145SOL    HW112816   0.228   5.250   6.081  0.1437 -1.3103  1.0939
 4145SOL    HW212817   0.089   5.229   6.025  0.1923  0.4583  0.2902
 4146SOL     OW12818   4.727   3.386   4.084 -1.1345  0.1845  0.0839
 4146SOL    HW112819   4.686   3.423   4.006 -0.3764 -0.8358 -0.8109
 4146SOL    HW212820   4.754   3.463   4.136 -1.4097  0.8655 -0.7718
 4147SOL     OW12821   1.427   0.641   3.108 -0.2764  0.0986 -0.2134
 4147SOL    HW112822   1.365   0.633   3.036 -1.1122  0.5856  0.4429
 4147SOL    HW212823   1.486   0.711   3.081 -0.9036  0.6366 -0.2017
 4148SOL     OW12824   1.470   1.369   5.633  0.3932  0.2284  0.2617
 4148SOL    HW112825   1.408   1.311   5.589  1.1780 -0.2546 -0.2216
 4148SOL    HW212826   1.553   1.354   5.588  0.9127  0.7024  1.0446
 4149SOL     OW12827   5.959   1.845   2.807  0.4663  0.6559  0.1146
 4149SOL    HW112828   6.018   1.858   2.732 -1.0570 -0.6995 -1.3805
 4149SOL    HW212829   5.927   1.933   2.828 -0.7768  0.8333 -2.2977
 4150SOL     OW12830   4.664   3.375   2.415 -0.4710  0.0033  0.2044
 4150SOL    HW112831   4.739   3.319   2.398 -0.5852 -0.2042  0.3757
 4150SOL    HW212832   4.697   3.464   2.407 -0.3801 -0.0915 -0.4524
 4151SOL     OW12833   1.222   1.456   4.989 -0.5667  0.1771 -0.0060
 4151SOL    HW112834   1.163   1.382   4.973  0.2449 -1.1902  2.9720
 4151SOL    HW212835   1.308   1.424   4.963 -0.4549  0.6180 -0.1734
 4152SOL     OW12836   0.938   3.597   4.251  0.0906 -0.0090  0.2986
 4152SOL    HW112837   0.878   3.669   4.235  1.1889  0.6072 -1.1167
 4152SOL    HW212838   1.011   3.638   4.298  0.4223 -0.3172  0.0503
 4153SOL     OW12839   2.881   1.205   1.787 -0.4286 -0.2688  0.3859
 4153SOL    HW112840   2.822   1.280   1.781  0.2985  0.3813  1.2385
 4153SOL    HW212841   2.848   1.144   1.721 -0.1659  1.4136 -1.3554
 4154SOL     OW12842   5.655   2.423   3.860  0.4883  0.3395  0.4671
 4154SOL    HW112843   5.706   2.457   3.934 -0.7935 -0.3143  1.6615
 4154SOL    HW212844   5.649   2.329   3.876  0.7729  0.0836 -0.8409
 4155SOL     OW12845   3.319   2.096   0.233 -0.3289  0.3784  0.4198
 4155SOL    HW112846   3.301   2.189   0.229 -1.0614  0.1867 -1.0717
 4155SOL    HW212847   3.306   2.073   0.325  1.3191  2.0069  1.0988
 4156SOL     OW12848   6.083   0.840   4.231 -0.0218  0.4387  0.2276
 4156SOL    HW112849   6.096   0.833   4.137  1.3632  0.4326  0.4125
 4156SOL    HW212850   6.171   0.833   4.268 -0.6928 -1.0304  1.5978
 4157SOL     OW12851   1.834   3.103   2.683  0.0694  0.0370 -0.3207
 4157SOL    HW112852   1.749   3.118   2.725 -0.0294  2.1626 -1.2061
 4157SOL    HW212853   1.875   3.189   2.680  2.6607 -1.1197  0.8960
 4158SOL     OW12854   1.245   4.368   0.426 -0.4070 -0.1633  0.1911
 4158SOL    HW112855   1.168   4.374   0.370 -0.2503  2.0648  0.1647
 4158SOL    HW212856   1.233   4.438   0.490  0.2296 -1.6119  1.9406
 4159SOL     OW12857   5.052   5.426   1.778  0.2355  0.1580  0.3766
 4159SOL    HW112858   5.058   5.363   1.707  0.8546  0.9256 -0.2547
 4159SOL    HW212859   5.005   5.380   1.848 -2.6973  0.2405 -1.4627
 4160SOL     OW12860   1.585   5.174   1.067  0.0509  0.3238 -0.4965
 4160SOL    HW112861   1.616   5.100   1.015 -2.1986 -1.0104 -0.0063
 4160SOL    HW212862   1.663   5.226   1.084  1.9333 -2.6118  0.2237
 4161SOL     OW12863   0.342   1.076   0.007  0.1857 -0.4184  0.0715
 4161SOL    HW112864   0.291   1.102   0.084  1.1671  0.3790  0.4694
 4161SOL    HW212865   0.354   1.158  -0.041  2.2144 -0.3355  0.6645
 4162SOL     OW12866   6.033   4.565   3.008 -0.4323  0.0549 -0.6964
 4162SOL    HW112867   5.979   4.528   3.078 -2.4269  1.3083 -1.5621
 4162SOL    HW212868   5.997   4.528   2.928  0.7434  0.0047 -1.2112
 4163SOL     OW12869   0.259   1.130   1.602  0.3308 -0.2620  0.7888
 4163SOL    HW112870   0.268   1.089   1.687 -0.7239 -3.0389 -0.3924
 4163SOL    HW212871   0.196   1.076   1.555 -1.0383  2.6503 -0.8879
 4164SOL     OW12872   2.534   2.335   5.363 -0.0603  0.2496  0.0944
 4164SOL    HW112873   2.583   2.309   5.285  1.2647  0.4766  0.8291
 4164SOL    HW212874   2.601   2.342   5.432 -1.4392 -1.6874  1.6792
 4165SOL     OW12875   3.451   2.222   2.530 -0.3141 -0.0496  0.6274
 4165SOL    HW112876   3.462   2.279   2.605 -0.7688 -2.8973  2.9459
 4165SOL    HW212877   3.375   2.168   2.551 -1.0782 -0.2568 -2.3417
 4166SOL     OW12878   2.808   2.711   5.324  0.2501 -0.0552 -0.2790
 4166SOL    HW112879   2.777   2.689   5.236  0.8712 -0.3227 -0.4324
 4166SOL    HW212880   2.807   2.807   5.327 -1.6711 -0.0723  0.1072
 4167SOL     OW12881   2.798   1.191   2.625  0.1256  0.0035 -0.1698
 4167SOL    HW112882   2.762   1.182   2.536 -0.6183 -1.1636  0.2314
 4167SOL    HW212883   2.891   1.205   2.612 -0.0209  0.1080 -1.1551
 4168SOL     OW12884   5.278   0.680   1.209  0.3250  0.2981 -0.0219
 4168SOL    HW112885   5.335   0.607   1.233 -0.8700 -0.6400  0.0169
 4168SOL    HW212886   5.199   0.638   1.176 -1.0806  1.5811  1.6672
 4169SOL     OW12887   4.889   2.776   5.984 -0.4458  0.2120  0.9593
 4169SOL    HW112888   4.811   2.814   6.024  0.0080  0.3305  1.7397
 4169SOL    HW212889   4.962   2.821   6.027  0.0280  1.5973 -1.2261
 4170SOL     OW12890   5.996   4.275   1.849  0.7118 -0.3507 -0.0304
 4170SOL    HW112891   5.987   4.327   1.769 -0.2875 -2.1035 -1.0906
 4170SOL    HW212892   6.000   4.185   1.818 -0.9601 -1.1506  1.9781
 4171SOL     OW12893   2.080   0.941   2.378 -0.3186  0.1533  0.1487
 4171SOL    HW112894   2.126   1.018   2.344  0.7129 -1.1071 -1.4405
 4171SOL    HW212895   2.140   0.904   2.443 -1.4057  1.4233  1.9121
 4172SOL     OW12896   6.199   0.035   0.419 -0.4702  0.2054 -0.1633
 4172SOL    HW112897   6.221  -0.025   0.347 -2.5215 -0.6117 -0.1538
 4172SOL    HW212898   6.153  -0.020   0.483 -1.5204  1.5829  0.2901
 4173SOL     OW12899   4.284   4.667   1.564  0.0465 -0.0665 -0.0295
 4173SOL    HW112900   4.220   4.641   1.630 -1.0409 -0.8259 -1.3527
 4173SOL    HW212901   4.350   4.598   1.567 -0.1460 -0.2476  0.0911
 4174SOL     OW12902   0.121   5.266   6.367 -0.3838  0.1651  0.0228
 4174SOL    HW112903   0.027   5.259   6.353 -0.3103  1.7556 -1.3768
 4174SOL    HW212904   0.136   5.359   6.384  1.0607  0.1193 -0.8959
 4175SOL     OW12905   4.765   2.975   4.134 -0.8682  0.0243  0.0313
 4175SOL    HW112906   4.759   2.917   4.057 -0.0163 -1.4436  1.0344
 4175SOL    HW212907   4.674   2.993   4.157 -1.1436 -0.5180 -0.5990
 4176SOL     OW12908   0.513   0.660   5.790  0.4188 -0.3536 -0.4609
 4176SOL    HW112909   0.456   0.609   5.732 -1.4852  0.6882  0.4631
 4176SOL    HW212910   0.501   0.622   5.877  0.6403  0.2773 -0.1461
 4177SOL     OW12911   2.172   2.300   3.117  0.0590  0.3761  0.7828
 4177SOL    HW112912   2.259   2.289   3.154 -0.0986 -1.3948  0.7023
 4177SOL    HW212913   2.185   2.299   3.023 -0.1006 -0.5383  0.7630
 4178SOL     OW12914   1.917   1.518   4.554  0.0524  0.1856 -0.0665
 4178SOL    HW112915   1.983   1.458   4.588  0.6193  0.6450 -0.3602
 4178SOL    HW212916   1.957   1.605   4.560  1.1587  0.0810 -4.2295
 4179SOL     OW12917   4.343   1.264   3.875 -0.6765 -0.6515 -0.1248
 4179SOL    HW112918   4.357   1.216   3.793 -0.0092 -0.8015  0.0665
 4179SOL    HW212919   4.410   1.228   3.934 -1.5190 -0.9378  0.6551
 4180SOL     OW12920   3.337   3.317   6.324 -0.2700 -0.3522  0.1354
 4180SOL    HW112921   3.303   3.230   6.305  0.2667 -0.8831  1.4676
 4180SOL    HW212922   3.431   3.303   6.339 -0.3538  0.2757  1.3550
 4181SOL     OW12923   5.159   5.033   0.278  0.1089  0.6222  0.4274
 4181SOL    HW112924   5.183   5.125   0.292  1.3424  0.3671  0.0105
 4181SOL    HW212925   5.219   4.984   0.332 -1.1253  0.0864  1.3258
 4182SOL     OW12926   4.431   1.496   3.752  0.0113  0.3383  0.4264
 4182SOL    HW112927   4.370   1.431   3.786 -0.1929  0.8585  1.0628
 4182SOL    HW212928   4.508   1.445   3.727 -0.1909 -0.1695  0.8134
 4183SOL     OW12929   4.076   0.520   0.101 -0.3468  0.4754 -0.2130
 4183SOL    HW112930   4.086   0.609   0.135  0.6159  0.2294  0.1663
 4183SOL    HW212931   4.166   0.488   0.091 -0.6804 -0.3220 -0.6945
 4184SOL     OW12932   5.585   1.895   2.774  0.3467 -0.3546 -0.5526
 4184SOL    HW112933   5.581   1.823   2.838 -0.4729  0.1519 -0.0213
 4184SOL    HW212934   5.631   1.965   2.820 -2.4742  0.9428  0.4634
 4185SOL     OW12935   4.434   5.935   5.387 -0.4513  0.3211 -0.2127
 4185SOL    HW112936   4.434   5.843   5.360 -1.5327  0.6903 -1.5333
 4185SOL    HW212937   4.444   5.984   5.306  2.7716  1.3533  0.7215
 4186SOL     OW12938   1.072   2.733   3.004 -0.0691 -0.7501 -0.2823
 4186SOL    HW112939   1.165   2.714   2.991 -0.3345 -1.8659 -0.5437
 4186SOL    HW212940   1.032   2.649   3.022 -0.8386 -0.1058  1.1073
 4187SOL     OW12941   4.638   2.471   1.655 -0.1225 -0.7136  0.5601
 4187SOL    HW112942   4.698   2.448   1.583  0.1332 -2.4098  1.2848
 4187SOL    HW212943   4.554   2.485   1.612 -0.0177 -1.9150 -0.0807
 4188SOL     OW12944   1.996   4.756   6.295  0.6806  0.1255  0.5999
 4188SOL    HW112945   2.024   4.776   6.206 -2.5355 -1.1864 -0.7827
 4188SOL    HW212946   1.954   4.836   6.326 -0.2126 -0.1277  0.0677
 4189SOL     OW12947   0.777   2.452   4.259 -0.2248  0.2901  0.3158
 4189SOL    HW112948   0.820   2.490   4.335  1.2663  0.3775 -0.5456
 4189SOL    HW212949   0.710   2.516   4.235  0.3838  1.0369  0.5737
 4190SOL     OW12950   6.215   4.868   4.142 -0.0409 -0.3640 -0.2459
 4190SOL    HW112951   6.154   4.874   4.069 -1.0868 -1.5994  0.5008
 4190SOL    HW212952   6.299   4.894   4.105 -0.6561 -0.4686 -1.7613
 4191SOL     OW12953   5.299   2.935   1.791 -0.3181 -0.4634  0.1190
 4191SOL    HW112954   5.268   2.892   1.712 -0.4932  0.3139 -0.2391
 4191SOL    HW212955   5.333   3.019   1.761 -0.6577 -0.0413  0.9008
 4192SOL     OW12956   0.442   5.905   4.969 -0.0095  0.9169  0.1342
 4192SOL    HW112957   0.528   5.947   4.958 -0.5158  1.7109 -0.7930
 4192SOL    HW212958   0.401   5.911   4.882 -0.3394 -0.9346  0.1472
 4193SOL     OW12959   0.854   2.602   0.272 -0.2878 -0.0389  0.7060
 4193SOL    HW112960   0.949   2.586   0.278  0.2012  1.6460 -1.9420
 4193SOL    HW212961   0.819   2.521   0.233  0.4266  0.3003 -0.6753
 4194SOL     OW12962   1.927   4.312   4.905  0.6534 -0.6969  0.0209
 4194SOL    HW112963   1.884   4.378   4.851  0.3329 -0.8122  0.1395
 4194SOL    HW212964   2.012   4.351   4.927  0.6718 -0.5361 -0.3345
 4195SOL     OW12965   6.323   4.729   4.635 -0.0215 -0.3902  0.1017
 4195SOL    HW112966   6.258   4.763   4.574  1.4265  2.1911 -0.0662
 4195SOL    HW212967   6.396   4.701   4.580  0.6784  0.5742  0.5100
 4196SOL     OW12968   6.197   1.386   4.453  0.1460 -0.4361 -0.7688
 4196SOL    HW112969   6.127   1.449   4.470  0.3845 -0.1453 -0.8629
 4196SOL    HW212970   6.185   1.361   4.361  0.8191  0.4306 -1.1011
 4197SOL     OW12971   1.263   0.395   4.966 -0.0975  0.0699 -0.0673
 4197SOL    HW112972   1.301   0.457   4.904 -1.3188  0.7513 -0.1464
 4197SOL    HW212973   1.180   0.435   4.992 -0.1835 -0.8112  1.0444
 4198SOL     OW12974   6.350   2.767   1.234 -0.3066  0.2197 -0.2462
 4198SOL    HW112975   6.440   2.735   1.233 -1.0029 -1.9884  2.0078
 4198SOL    HW212976   6.320   2.757   1.144  0.6076 -2.4377 -0.3084
 4199SOL     OW12977   1.917   3.412   0.268 -0.1879  0.5664  0.0481
 4199SOL    HW112978   1.915   3.506   0.286 -0.5480  0.4957  0.3662
 4199SOL    HW212979   2.004   3.384   0.297  0.2658  0.9700 -0.8882
 4200SOL     OW12980   4.594   5.402   1.286 -0.3491 -0.6272 -0.3660
 4200SOL    HW112981   4.665   5.425   1.345 -1.5615  0.9850  0.5304
 4200SOL    HW212982   4.519   5.385   1.343 -0.9179 -1.4679 -1.3248
 4201SOL     OW12983   3.759   3.714   2.223  0.6723  0.6795 -0.5924
 4201SOL    HW112984   3.729   3.687   2.137 -0.1456  1.5051 -0.5684
 4201SOL    HW212985   3.763   3.810   2.219  1.5047  0.6795 -0.0055
 4202SOL     OW12986   3.770   2.778   0.291 -0.0571 -0.0843  0.2293
 4202SOL    HW112987   3.825   2.729   0.352  1.7242  0.0424 -1.2249
 4202SOL    HW212988   3.816   2.860   0.276 -3.0166  2.1432  2.6319
 4203SOL     OW12989   2.456   2.114   6.113 -0.9341 -0.2319  0.3226
 4203SOL    HW112990   2.441   2.191   6.168  0.0488  0.7688 -0.7702
 4203SOL    HW212991   2.546   2.088   6.132 -0.8714 -0.3979 -0.2041
 4204SOL     OW12992   3.597   6.067   4.034  0.5215  0.0288 -0.0781
 4204SOL    HW112993   3.597   5.972   4.022 -0.1822  0.2145 -1.7291
 4204SOL    HW212994   3.688   6.093   4.025  0.8989 -0.6357  1.7109
 4205SOL     OW12995   4.365   0.220   1.862  0.1295  0.2488 -0.5068
 4205SOL    HW112996   4.445   0.168   1.873  0.9957  1.3130 -1.6520
 4205SOL    HW212997   4.343   0.211   1.769 -1.1597 -0.1277 -0.1730
 4206SOL     OW12998   5.156   4.343   2.915 -0.3731 -0.2733 -0.0153
 4206SOL    HW112999   5.145   4.251   2.890 -1.1154 -0.0687 -0.4595
 4206SOL    HW213000   5.214   4.340   2.991  0.7193 -1.0172 -0.8424
 4207SOL     OW13001   2.624   2.772   4.248  0.1286 -0.0620  0.2584
 4207SOL    HW113002   2.633   2.858   4.207 -0.8924 -0.7258 -1.4098
 4207SOL    HW213003   2.557   2.785   4.315 -3.3846 -0.5558 -3.0206
 4208SOL     OW13004   2.159   5.632   2.113 -0.1591  0.0028 -0.3359
 4208SOL    HW113005   2.253   5.624   2.129 -0.2565  0.7903  0.6702
 4208SOL    HW213006   2.143   5.726   2.111 -0.9915 -0.1352 -0.1490
 4209SOL     OW13007   4.154   2.306   5.843 -0.9051  0.0845  0.2424
 4209SOL    HW113008   4.060   2.300   5.828 -0.6595  0.2414 -1.5472
 4209SOL    HW213009   4.171   2.400   5.851 -0.5837  0.2601 -1.9895
 4210SOL     OW13010   5.117   4.477   5.050  0.0650  0.0816 -0.2955
 4210SOL    HW113011   5.123   4.387   5.084  1.3478  0.6792  1.1710
 4210SOL    HW213012   5.208   4.507   5.049 -0.4069  1.5221 -0.3248
 4211SOL     OW13013   5.945   3.444   4.008  0.1303  0.7168  0.2615
 4211SOL    HW113014   6.041   3.451   4.013  0.0396  1.4708  1.1360
 4211SOL    HW213015   5.930   3.371   3.948  1.2553  0.5980  0.0992
 4212SOL     OW13016   1.775   2.124   6.233  0.0036  0.0574  0.4477
 4212SOL    HW113017   1.764   2.127   6.138 -1.3762  1.3982  0.6297
 4212SOL    HW213018   1.859   2.081   6.247 -1.0500 -2.6895 -1.3165
 4213SOL     OW13019   5.200   6.248   6.339  0.2201  0.0954  0.0464
 4213SOL    HW113020   5.231   6.303   6.267  2.9021  0.0101  1.0450
 4213SOL    HW213021   5.224   6.159   6.312 -1.0015 -0.2181 -0.0310
 4214SOL     OW13022   2.598   3.380   5.216  0.3677 -0.0955 -0.0367
 4214SOL    HW113023   2.643   3.446   5.269  1.7692  0.0128 -1.3457
 4214SOL    HW213024   2.666   3.317   5.194 -0.7600 -1.5058  0.4209
 4215SOL     OW13025   3.599   4.419   1.057  0.4074 -0.0479 -0.6158
 4215SOL    HW113026   3.694   4.429   1.055  0.2073  2.0569 -0.6878
 4215SOL    HW213027   3.569   4.452   0.973 -0.5754  1.8517  0.4431
 4216SOL     OW13028   3.057   0.841   2.377 -0.1405  0.2700  0.6514
 4216SOL    HW113029   3.036   0.749   2.365  0.0362  0.3774 -0.6435
 4216SOL    HW213030   2.988   0.874   2.435 -1.8210 -0.0675 -1.0752
 4217SOL     OW13031   0.605   2.491   1.858  0.0770  0.0645 -0.4978
 4217SOL    HW113032   0.542   2.480   1.787 -0.5594  0.3893  0.0186
 4217SOL    HW213033   0.673   2.548   1.821 -1.8340  2.8792  0.1315
 4218SOL     OW13034   1.477   0.635   5.925 -0.2319 -0.1543  0.0961
 4218SOL    HW113035   1.571   0.654   5.915  0.0013 -0.5177  1.4510
 4218SOL    HW213036   1.475   0.548   5.966 -1.1720 -0.2088 -0.0558
 4219SOL     OW13037   0.399   0.947   2.801 -0.4002 -0.7329 -0.2540
 4219SOL    HW113038   0.450   0.870   2.825 -0.7926 -0.8261  0.2780
 4219SOL    HW213039   0.433   1.017   2.856 -0.4071 -0.6468 -0.3583
 4220SOL     OW13040   2.217   3.955   3.620 -0.4073 -0.6816  0.1887
 4220SOL    HW113041   2.132   3.913   3.629 -0.2574 -0.9084  0.5839
 4220SOL    HW213042   2.231   3.998   3.705 -0.1237 -0.6559  0.1295
 4221SOL     OW13043   0.847   1.346   0.519 -0.3533  0.0182  0.3219
 4221SOL    HW113044   0.918   1.286   0.495  0.3043  0.6255  0.7428
 4221SOL    HW213045   0.810   1.308   0.598 -0.4019 -0.2175  0.1887
 4222SOL     OW13046   4.432   5.169   3.388 -0.1645 -0.3814  0.3180
 4222SOL    HW113047   4.525   5.190   3.379 -0.3665  0.1720 -0.5821
 4222SOL    HW213048   4.428   5.074   3.376  0.1215 -0.2274 -1.1780
 4223SOL     OW13049   1.050   2.626   2.095  0.1724 -0.1606 -0.5322
 4223SOL    HW113050   1.042   2.684   2.171 -1.1849 -0.0614 -0.7502
 4223SOL    HW213051   1.002   2.670   2.026  2.0950  0.1438 -1.6974
 4224SOL     OW13052   5.006   4.018   4.017 -0.7301  0.5096 -1.1420
 4224SOL    HW113053   4.994   4.103   4.061  0.6831  0.7665 -1.2287
 4224SOL    HW213054   5.085   3.981   4.058 -1.8020 -1.1447 -0.5197
 4225SOL     OW13055   3.671   2.167   1.797  0.4499 -0.1759 -0.4892
 4225SOL    HW113056   3.753   2.132   1.832  1.2435  0.5033 -1.6413
 4225SOL    HW213057   3.622   2.089   1.770  0.6371 -0.5964  0.3423
 4226SOL     OW13058   1.782   6.220   4.542 -0.6658 -0.0590 -0.1434
 4226SOL    HW113059   1.801   6.242   4.451 -0.9104 -0.4930 -0.3012
 4226SOL    HW213060   1.853   6.163   4.569  0.9998  2.4158  0.8581
 4227SOL     OW13061   0.266   5.893   4.289 -0.3212  0.5328 -0.1736
 4227SOL    HW113062   0.271   5.798   4.304  0.8080  0.6614  0.2962
 4227SOL    HW213063   0.173   5.914   4.303 -0.6366 -0.5359 -0.5360
 4228SOL     OW13064   1.823   0.545   5.596  0.3389 -0.1942 -0.1155
 4228SOL    HW113065   1.860   0.539   5.508  1.6602 -0.9957  0.4925
 4228SOL    HW213066   1.812   0.639   5.610  1.3939  0.0115 -0.6169
 4229SOL     OW13067   1.035   4.413   1.321  0.4399  0.3326  0.4423
 4229SOL    HW113068   1.089   4.348   1.276 -1.8516 -1.1611 -0.2202
 4229SOL    HW213069   1.034   4.384   1.413  1.4753  0.8798  0.6363
 4230SOL     OW13070   5.507   5.623   6.180 -0.0288  0.2835 -0.6648
 4230SOL    HW113071   5.506   5.715   6.207 -2.2747 -0.0427  0.4501
 4230SOL    HW213072   5.565   5.622   6.104 -0.3008  2.6902 -0.9701
 4231SOL     OW13073   4.976   3.808   0.718  0.0776 -0.2453 -0.3951
 4231SOL    HW113074   4.934   3.753   0.784 -2.1983 -0.4522 -1.9774
 4231SOL    HW213075   5.061   3.766   0.702  0.3999 -0.5542  1.8802
 4232SOL     OW13076   1.450   0.125   5.898 -0.3362  0.4037 -0.2570
 4232SOL    HW113077   1.420   0.117   5.808  0.7760  1.4549 -0.7337
 4232SOL    HW213078   1.485   0.038   5.919 -0.2170  0.2742 -0.9764
 4233SOL     OW13079   1.694   6.079   0.430  0.3035 -0.5574 -0.5047
 4233SOL    HW113080   1.638   6.032   0.367 -2.6677  0.7019  1.1263
 4233SOL    HW213081   1.640   6.087   0.509  1.9841  2.5825  0.4014
 4234SOL     OW13082   3.173   2.929   5.347 -0.1184 -0.3633  0.4216
 4234SOL    HW113083   3.234   3.000   5.367 -0.7725  0.6073 -0.9489
 4234SOL    HW213084   3.087   2.968   5.356 -0.4760 -0.5972 -1.6201
 4235SOL     OW13085   3.189   0.953   5.894 -0.5120 -0.0640  0.4343
 4235SOL    HW113086   3.186   1.043   5.862 -1.4005 -0.4208 -0.5007
 4235SOL    HW213087   3.132   0.904   5.835 -0.1807 -1.2118  1.0439
 4236SOL     OW13088   5.394   4.009   0.634 -0.2929 -0.2823  0.2511
 4236SOL    HW113089   5.359   4.078   0.690  1.0438  0.0666  0.6789
 4236SOL    HW213090   5.479   3.987   0.673  0.4256 -0.3956 -1.3131
 4237SOL     OW13091   0.594   1.270   1.977 -0.0411 -0.2164  0.3809
 4237SOL    HW113092   0.565   1.186   1.942  0.5064 -0.1070 -0.3399
 4237SOL    HW213093   0.613   1.323   1.900  2.3891 -0.3977  0.8220
 4238SOL     OW13094   0.712   5.095   2.947  0.0216 -0.6905  0.0196
 4238SOL    HW113095   0.714   5.052   3.033  1.1128 -0.2114  0.2375
 4238SOL    HW213096   0.653   5.169   2.960 -2.8690 -2.7519 -0.6903
 4239SOL     OW13097   1.675   0.809   1.452 -0.6606 -0.2985  0.1057
 4239SOL    HW113098   1.613   0.879   1.472  0.4194  0.9141 -0.7263
 4239SOL    HW213099   1.678   0.807   1.356  1.8964  0.8217  0.1441
 4240SOL     OW13100   4.759   4.195   2.229  0.0183 -0.5336 -0.8108
 4240SOL    HW113101   4.828   4.208   2.294  0.3285  0.0856 -1.2581
 4240SOL    HW213102   4.680   4.228   2.271  0.6682  2.2657 -1.6718
 4241SOL     OW13103   3.002   4.965   1.872 -0.2167  0.2817 -0.1038
 4241SOL    HW113104   2.954   4.892   1.910 -1.7491  0.4923 -1.5874
 4241SOL    HW213105   2.940   5.007   1.813  1.5298  1.0786 -1.4279
 4242SOL     OW13106   5.342   0.276   6.145 -0.2859  0.3680 -0.5720
 4242SOL    HW113107   5.252   0.287   6.114 -0.5392 -1.2553 -0.4586
 4242SOL    HW213108   5.396   0.313   6.075 -0.9986  0.2258 -1.2051
 4243SOL     OW13109   3.172   3.354   0.431 -0.2682 -0.1597  0.2101
 4243SOL    HW113110   3.114   3.376   0.505 -0.3707 -0.3803  0.1934
 4243SOL    HW213111   3.183   3.259   0.436 -0.4719 -0.2031 -0.2087
 4244SOL     OW13112   0.370   0.506   4.303  0.1393 -0.4782  0.0311
 4244SOL    HW113113   0.450   0.516   4.354  1.0273  0.1238 -1.4523
 4244SOL    HW213114   0.311   0.457   4.361  1.3643 -0.4412  1.3509
 4245SOL     OW13115   2.083   2.041   4.718  0.3471  1.0646  0.0087
 4245SOL    HW113116   2.160   2.044   4.661 -1.4423 -2.3510 -2.8217
 4245SOL    HW213117   2.092   1.959   4.765 -1.5459  0.6412 -0.3473
 4246SOL     OW13118   3.758   0.917   2.730 -0.2362  0.1159 -0.7136
 4246SOL    HW113119   3.813   0.886   2.802  0.5833  0.1131 -1.3404
 4246SOL    HW213120   3.676   0.943   2.773  0.0656 -0.3319  0.1622
 4247SOL     OW13121   3.402   3.316   5.058  0.2447 -0.0546 -0.6675
 4247SOL    HW113122   3.431   3.389   5.003 -1.0000  1.0603  0.1436
 4247SOL    HW213123   3.480   3.292   5.108  1.0704 -0.3156 -2.0392
 4248SOL     OW13124   2.004   5.011   5.175 -0.3923 -0.0656  0.4094
 4248SOL    HW113125   1.972   5.075   5.240 -1.4548  0.2739 -0.4386
 4248SOL    HW213126   1.965   4.928   5.203 -2.3351  0.3990 -0.7945
 4249SOL     OW13127   3.768   2.111   5.350 -0.4037 -0.0015 -0.5296
 4249SOL    HW113128   3.781   2.120   5.445 -0.6793 -1.1423 -0.3768
 4249SOL    HW213129   3.842   2.159   5.311  0.9565 -1.3947  0.2821
 4250SOL     OW13130   5.043   6.092   5.546 -0.0816  0.1706 -0.2430
 4250SOL    HW113131   5.059   6.003   5.577 -0.6108 -0.5722 -2.0439
 4250SOL    HW213132   4.948   6.100   5.542 -0.1278  1.7889  2.5291
 4251SOL     OW13133   4.371   5.987   2.475  0.1107 -0.3276 -0.0127
 4251SOL    HW113134   4.343   5.967   2.386  0.3897  1.4450 -0.5127
 4251SOL    HW213135   4.290   5.985   2.527 -0.4662  1.3356 -0.8148
 4252SOL     OW13136   4.516   6.247   2.027 -0.8998  0.8635  0.5257
 4252SOL    HW113137   4.459   6.251   2.104  0.0017  0.2396  1.2411
 4252SOL    HW213138   4.579   6.318   2.040  0.9121 -0.9214  1.7252
 4253SOL     OW13139   1.071   1.180   5.434 -0.2756  0.0115 -0.4825
 4253SOL    HW113140   1.036   1.156   5.348 -2.6925  0.0301  0.4443
 4253SOL    HW213141   1.033   1.267   5.451 -1.1858 -0.7146  1.3100
 4254SOL     OW13142   4.393   0.629   0.198  0.2464 -0.0753  0.3221
 4254SOL    HW113143   4.344   0.710   0.184 -0.1798  0.1620  2.8134
 4254SOL    HW213144   4.468   0.635   0.139  0.4222  2.3324  0.7423
 4255SOL     OW13145   6.190   6.378   4.461  0.4395  0.1298 -0.2543
 4255SOL    HW113146   6.256   6.447   4.465 -0.4527  0.8919  2.0548
 4255SOL    HW213147   6.237   6.298   4.483  1.8336 -0.3471 -4.5100
 4256SOL     OW13148   5.032   0.630   4.784 -0.1575  0.3751 -0.3029
 4256SOL    HW113149   5.109   0.634   4.727  0.2385  1.4899  0.3108
 4256SOL    HW213150   5.062   0.582   4.861 -0.9266 -1.8993 -1.3695
 4257SOL     OW13151   4.996   2.399   5.186  0.6121 -0.6262 -0.7669
 4257SOL    HW113152   4.956   2.315   5.206  0.3678 -0.6268 -1.2635
 4257SOL    HW213153   5.053   2.417   5.261  1.4958 -1.7558 -1.1603
 4258SOL     OW13154   4.277   1.562   1.581  0.2707 -0.1874 -0.3672
 4258SOL    HW113155   4.210   1.500   1.550  0.7225 -1.2295  0.7288
 4258SOL    HW213156   4.229   1.627   1.632  0.2392 -1.5875  1.3922
 4259SOL     OW13157   5.290   4.514   6.022  0.1388  0.0480  0.0868
 4259SOL    HW113158   5.219   4.462   5.983 -0.3820  1.1530 -0.4553
 4259SOL    HW213159   5.286   4.492   6.115 -0.9530  0.1346  0.0710
 4260SOL     OW13160   3.715   4.157   2.718 -0.5501 -0.6629  0.2465
 4260SOL    HW113161   3.736   4.229   2.778 -0.9934 -1.1828  1.0262
 4260SOL    HW213162   3.636   4.117   2.755  0.3359 -2.2622  0.4611
 4261SOL     OW13163   4.500   3.560   1.318  1.0080 -0.0508 -0.6683
 4261SOL    HW113164   4.499   3.516   1.403 -0.4283 -0.5212 -0.9227
 4261SOL    HW213165   4.484   3.652   1.338 -0.6418 -0.3497 -0.5127
 4262SOL     OW13166   6.037   2.091   5.949 -0.4767  0.5467  0.4571
 4262SOL    HW113167   6.036   2.041   6.031  0.4380 -0.3819 -0.0890
 4262SOL    HW213168   5.944   2.105   5.929 -0.8976 -3.1224 -0.6625
 4263SOL     OW13169   2.829   3.626   0.512  0.2387  0.5536  0.3565
 4263SOL    HW113170   2.786   3.569   0.576  1.5929 -0.9500 -0.0467
 4263SOL    HW213171   2.913   3.647   0.551  0.7699  0.2244 -0.5995
 4264SOL     OW13172   2.911   6.366   3.094  0.1124 -0.1797 -0.6426
 4264SOL    HW113173   2.979   6.427   3.124  0.5451 -0.7892 -0.3749
 4264SOL    HW213174   2.883   6.320   3.173  2.5720 -3.1182 -1.3699
 4265SOL     OW13175   3.018   0.588   0.402 -0.3344 -0.4239  0.3703
 4265SOL    HW113176   3.077   0.601   0.328  0.5776  0.6803  1.2748
 4265SOL    HW213177   2.967   0.510   0.378 -1.1226  0.8012 -2.0738
 4266SOL     OW13178   3.502   5.787   2.628 -0.1417  0.0006 -0.2399
 4266SOL    HW113179   3.421   5.828   2.597 -0.1148  0.2450  0.0112
 4266SOL    HW213180   3.510   5.707   2.576 -0.2996  0.2133 -0.5950
 4267SOL     OW13181   6.103   4.780   4.934 -0.0485 -0.4185  0.9833
 4267SOL    HW113182   6.085   4.697   4.979  1.4560 -1.9541 -1.1301
 4267SOL    HW213183   6.040   4.782   4.861  1.3140 -0.7472 -0.2190
 4268SOL     OW13184   4.774   2.252   5.864 -0.2627 -0.2311 -0.2728
 4268SOL    HW113185   4.813   2.210   5.941  1.3419 -0.4611 -1.1893
 4268SOL    HW213186   4.742   2.337   5.896 -1.0718 -1.0006  0.9863
 4269SOL     OW13187   0.147   3.703   1.268  0.6745 -0.4278 -0.1318
 4269SOL    HW113188   0.161   3.683   1.175 -1.0595 -1.2496 -0.2429
 4269SOL    HW213189   0.057   3.674   1.285  0.7214  0.4108  1.6215
 4270SOL     OW13190   4.061   2.347   1.007 -0.3017  0.5555  0.3113
 4270SOL    HW113191   3.969   2.373   1.007 -0.1312  1.1633  0.9633
 4270SOL    HW213192   4.067   2.284   1.078 -0.5090 -0.5730 -0.6476
 4271SOL     OW13193   0.921   4.406   2.570  0.2396 -0.3243  0.3139
 4271SOL    HW113194   0.903   4.420   2.477  0.4245 -1.7219  0.0650
 4271SOL    HW213195   0.944   4.314   2.577  1.6331  0.1045  1.5393
 4272SOL     OW13196   3.819   1.216   3.321  0.6216  0.2346  0.2392
 4272SOL    HW113197   3.761   1.281   3.362  1.2925  0.6890  0.4726
 4272SOL    HW213198   3.896   1.266   3.295  0.7143 -0.2822 -0.4943
 4273SOL     OW13199   4.782   6.118   5.513  0.0601 -0.6877 -0.0287
 4273SOL    HW113200   4.736   6.179   5.456  1.5669 -0.2046 -0.7408
 4273SOL    HW213201   4.712   6.069   5.557 -1.2077  2.1155  1.2051
 4274SOL     OW13202   3.705   3.294   4.303 -0.2075  0.9341  0.0298
 4274SOL    HW113203   3.655   3.287   4.222  0.6798 -0.4546 -0.4001
 4274SOL    HW213204   3.790   3.257   4.283 -0.0601  0.3212  1.6707
 4275SOL     OW13205   3.628   3.046   3.824 -0.1442 -0.0396  1.2480
 4275SOL    HW113206   3.664   2.981   3.884 -0.5684 -1.6011 -0.1790
 4275SOL    HW213207   3.538   3.017   3.808 -0.1182  0.5177  0.0654
 4276SOL     OW13208   2.915   1.589   2.058 -0.2170 -0.1597 -0.1513
 4276SOL    HW113209   2.961   1.632   1.986 -1.7309 -0.8596 -1.5688
 4276SOL    HW213210   2.827   1.626   2.055  0.2793  1.4488  2.7683
 4277SOL     OW13211   3.100   2.910   5.032  0.1077 -0.4976 -0.0471
 4277SOL    HW113212   3.098   2.985   5.091  1.1770 -0.3903 -0.1233
 4277SOL    HW213213   3.115   2.835   5.090 -0.7460 -0.6315  0.0076
 4278SOL     OW13214   3.178   1.724   0.672  0.3781 -0.2732 -0.5400
 4278SOL    HW113215   3.088   1.711   0.702 -0.1038  0.8825 -1.4468
 4278SOL    HW213216   3.226   1.751   0.750  0.1032 -1.6342  0.1003
 4279SOL     OW13217   6.216   4.656   5.292 -0.1399  0.2844  0.1278
 4279SOL    HW113218   6.195   4.734   5.343  0.7117  0.4873  0.1659
 4279SOL    HW213219   6.238   4.590   5.358 -0.2816  0.1829  0.0730
 4280SOL     OW13220   1.049   6.154   6.261  0.4628 -0.2227  0.3145
 4280SOL    HW113221   1.100   6.078   6.231  0.1999 -0.3787  0.2612
 4280SOL    HW213222   1.101   6.230   6.234  0.9210 -0.3911  0.7161
 4281SOL     OW13223   2.763   2.954   4.094 -0.4752 -0.1506  0.2656
 4281SOL    HW113224   2.766   2.860   4.077  0.5182 -0.3075  1.2767
 4281SOL    HW213225   2.818   2.992   4.026  1.2591 -0.5422  1.4117
 4282SOL     OW13226   2.073   1.301   0.425 -0.4780  0.8819 -0.6861
 4282SOL    HW113227   2.152   1.354   0.436 -0.0919  0.0510  0.7343
 4282SOL    HW213228   2.103   1.223   0.379  0.2923 -1.0298  2.8318
 4283SOL     OW13229   4.320   2.580   3.780 -0.3434  0.0494 -0.0119
 4283SOL    HW113230   4.325   2.651   3.717  0.5582 -0.1836 -0.2214
 4283SOL    HW213231   4.275   2.509   3.734  0.2698 -0.1038 -0.3880
 4284SOL     OW13232   4.787   3.887   2.235 -0.0347  0.3401  0.2235
 4284SOL    HW113233   4.788   3.980   2.257 -0.5335 -0.1889  2.6880
 4284SOL    HW213234   4.872   3.872   2.192  0.4074  1.7549  0.5668
 4285SOL     OW13235   2.670   5.114   3.519 -0.3643  0.0674 -0.1935
 4285SOL    HW113236   2.599   5.050   3.529  0.1568 -0.6076 -0.7241
 4285SOL    HW213237   2.706   5.123   3.607  0.4232 -1.4007 -0.3441
 4286SOL     OW13238   1.069   5.231   3.156  0.8891 -0.4043  0.3966
 4286SOL    HW113239   1.060   5.239   3.061  1.6023 -1.4501  0.2198
 4286SOL    HW213240   1.013   5.156   3.179  0.6053 -0.0635  0.8209
 4287SOL     OW13241   2.728   4.318   1.612 -0.3426 -0.1049 -0.0544
 4287SOL    HW113242   2.814   4.284   1.634  0.1044 -0.4203 -2.1979
 4287SOL    HW213243   2.737   4.413   1.622 -0.4210 -0.2794  1.9159
 4288SOL     OW13244   3.468   2.705   4.259 -0.3957  0.3948 -0.1839
 4288SOL    HW113245   3.394   2.685   4.316 -1.0776  3.6580  0.1436
 4288SOL    HW213246   3.536   2.737   4.318 -0.6938  2.6774 -1.0177
 4289SOL     OW13247   0.382   3.356   0.287  0.3247  0.0467  0.2148
 4289SOL    HW113248   0.423   3.357   0.200 -2.9527  1.4377 -1.3875
 4289SOL    HW213249   0.333   3.274   0.289 -0.1282  0.3263  0.5041
 4290SOL     OW13250   2.551   3.480   3.737  0.4344 -0.0636  0.1895
 4290SOL    HW113251   2.612   3.418   3.777  0.5206  0.6298  1.1694
 4290SOL    HW213252   2.504   3.517   3.811  0.3118  0.9586 -0.3909
 4291SOL     OW13253   5.131   5.437   5.628  0.8263  0.5346 -0.2405
 4291SOL    HW113254   5.142   5.360   5.683  1.8358  0.4093 -0.5960
 4291SOL    HW213255   5.218   5.478   5.627  0.5496  1.1117 -0.8746
 4292SOL     OW13256   1.640   0.687   1.680 -0.2137  0.7071 -0.0554
 4292SOL    HW113257   1.570   0.624   1.663  0.6408 -0.6270  1.2360
 4292SOL    HW213258   1.660   0.723   1.594 -1.8386  0.4275 -0.5855
 4293SOL     OW13259   2.084   4.839   0.735  0.0832 -0.3132  0.2166
 4293SOL    HW113260   2.047   4.761   0.692 -0.6342 -0.0450  0.3443
 4293SOL    HW213261   2.073   4.909   0.671 -2.5961  0.4793  1.4777
 4294SOL     OW13262   0.654   5.274   6.263 -0.0453 -0.4027 -0.5441
 4294SOL    HW113263   0.661   5.195   6.209 -1.3727 -1.4920  0.8436
 4294SOL    HW213264   0.722   5.263   6.330 -1.5658 -1.3886  0.8826
 4295SOL     OW13265   4.509   0.483   3.074 -0.2768  0.6464 -0.7844
 4295SOL    HW113266   4.454   0.405   3.087 -1.7283  1.7226 -0.2669
 4295SOL    HW213267   4.542   0.475   2.985  0.7619 -1.2728 -0.2699
 4296SOL     OW13268   2.211   4.103   5.175  0.5721  0.5041  0.0982
 4296SOL    HW113269   2.174   4.144   5.253  0.9127  1.5138 -0.2613
 4296SOL    HW213270   2.249   4.176   5.125  0.0555 -0.0809 -1.1792
 4297SOL     OW13271   4.470   5.156   3.672  0.8005  0.4103  0.0197
 4297SOL    HW113272   4.450   5.246   3.645 -0.0131  0.7617  1.6706
 4297SOL    HW213273   4.437   5.102   3.601  1.8518  1.4359 -1.2861
 4298SOL     OW13274   4.037   4.389   4.776  0.2133 -0.0626 -0.5670
 4298SOL    HW113275   4.021   4.298   4.802  1.0344  0.4681  1.8784
 4298SOL    HW213276   3.964   4.438   4.812  0.9092  0.5638  0.0068
 4299SOL     OW13277   3.391   2.213   2.264 -0.1439  0.8321 -0.5013
 4299SOL    HW113278   3.424   2.140   2.212 -0.0114  0.2144  0.4362
 4299SOL    HW213279   3.430   2.200   2.351  0.3953  2.3672 -0.4885
 4300SOL     OW13280   1.927   2.880   1.840  0.5213 -0.1736 -0.6490
 4300SOL    HW113281   1.835   2.865   1.820  0.5097 -0.9147 -0.0399
 4300SOL    HW213282   1.957   2.938   1.770  0.4609 -2.6772 -2.8159
 4301SOL     OW13283   0.681   3.084   1.063  0.5179  0.0691 -0.0248
 4301SOL    HW113284   0.592   3.109   1.042  0.3315  0.9701  1.7540
 4301SOL    HW213285   0.734   3.121   0.992 -0.3128  1.1093 -0.1001
 4302SOL     OW13286   5.750   1.019   5.406  0.2541 -0.7732 -0.4513
 4302SOL    HW113287   5.683   1.075   5.448  0.5231  0.4298 -1.5943
 4302SOL    HW213288   5.719   0.930   5.420 -2.0747 -0.1978 -1.7535
 4303SOL     OW13289   0.883   5.769   3.482 -0.3451 -0.0906  0.3104
 4303SOL    HW113290   0.817   5.701   3.474 -0.9016  0.4609  0.1753
 4303SOL    HW213291   0.854   5.839   3.423  2.5161 -1.5112 -2.9313
 4304SOL     OW13292   4.196   2.032   5.451  0.4877  0.2050 -0.4281
 4304SOL    HW113293   4.111   2.023   5.494  1.1284 -0.0170  0.8432
 4304SOL    HW213294   4.176   2.039   5.358 -1.0483  2.3323  0.0245
 4305SOL     OW13295   0.716   5.565   1.869  0.1010 -0.3103  0.1806
 4305SOL    HW113296   0.810   5.572   1.851 -0.0067  1.4055  0.2653
 4305SOL    HW213297   0.673   5.590   1.787 -0.2891 -0.4997  0.3246
 4306SOL     OW13298   2.044   4.634   0.562  0.1189  0.1289  0.1380
 4306SOL    HW113299   2.090   4.685   0.495 -0.8332  0.5829 -0.1922
 4306SOL    HW213300   2.021   4.552   0.518  0.7476 -0.1635  0.3519
 4307SOL     OW13301   0.859   1.668   1.115 -0.6433 -0.7459 -0.0148
 4307SOL    HW113302   0.836   1.579   1.142  0.1997 -1.4369 -1.4726
 4307SOL    HW213303   0.888   1.658   1.024  1.5397  0.6862  0.4945
 4308SOL     OW13304   6.154   0.944   5.572  0.4708  0.1531 -0.0656
 4308SOL    HW113305   6.102   1.023   5.586  0.2012 -0.3127  1.6462
 4308SOL    HW213306   6.242   0.967   5.601  0.9739  0.5766 -1.8713
 4309SOL     OW13307   0.747   2.145   4.990 -0.0430  0.2609 -0.3278
 4309SOL    HW113308   0.657   2.121   4.972 -0.3770  0.1564  1.3522
 4309SOL    HW213309   0.742   2.233   5.027  0.4502 -0.0944  0.6081
 4310SOL     OW13310   1.526   4.418   5.346  0.1593 -0.6376  0.1603
 4310SOL    HW113311   1.473   4.449   5.420  1.2658  0.4822  0.5039
 4310SOL    HW213312   1.488   4.463   5.270  1.5236  1.3450  0.6072
 4311SOL     OW13313   1.370   0.928   3.196 -0.0527 -0.4939 -0.7465
 4311SOL    HW113314   1.314   0.853   3.216  1.3447 -2.3329 -3.4152
 4311SOL    HW213315   1.433   0.894   3.133  0.3966  3.0368 -2.3001
 4312SOL     OW13316   6.044   3.972   3.718 -0.1599 -0.0692 -0.4678
 4312SOL    HW113317   5.951   3.991   3.717  0.2126  2.1049  1.5099
 4312SOL    HW213318   6.081   4.029   3.651 -0.1347 -0.3725 -0.7158
 4313SOL     OW13319   6.233   1.830   3.472 -1.0500 -0.3361  0.1634
 4313SOL    HW113320   6.220   1.844   3.566  0.9609 -1.0514  0.5923
 4313SOL    HW213321   6.258   1.738   3.465  3.1314  0.7256 -0.5109
 4314SOL     OW13322   6.284   2.791   3.362  0.5155  0.0334 -0.2260
 4314SOL    HW113323   6.316   2.706   3.393 -0.8390  0.6595  3.0900
 4314SOL    HW213324   6.304   2.791   3.269  3.1256 -2.7448  0.2474
 4315SOL     OW13325   5.116   3.900   5.526  0.0367  0.2354 -0.0896
 4315SOL    HW113326   5.181   3.932   5.464  1.0295  0.5705  1.1124
 4315SOL    HW213327   5.122   3.805   5.520  1.6123  0.2461  0.9957
 4316SOL     OW13328   1.549   4.551   3.164  0.0590  0.0930 -0.2518
 4316SOL    HW113329   1.493   4.496   3.220  2.0552 -1.1513  0.5685
 4316SOL    HW213330   1.636   4.547   3.205  1.1588  0.5812 -2.4745
 4317SOL     OW13331   1.791   4.274   0.590  0.0121 -0.0221  0.1015
 4317SOL    HW113332   1.724   4.333   0.626  1.5039  0.9462  1.3226
 4317SOL    HW213333   1.799   4.205   0.656 -0.0921 -0.3715 -0.2514
 4318SOL     OW13334   0.956   0.262   2.214  0.3610 -0.6330 -0.1625
 4318SOL    HW113335   1.044   0.267   2.251  0.1875 -0.4021  0.2228
 4318SOL    HW213336   0.959   0.316   2.136  0.4358 -0.2518  0.1041
 4319SOL     OW13337   3.334   2.876   4.671 -0.3111 -0.0614  0.5827
 4319SOL    HW113338   3.399   2.930   4.716 -0.5813  0.2137  0.6402
 4319SOL    HW213339   3.385   2.802   4.636 -0.0669 -0.1520  1.1312
 4320SOL     OW13340   4.704   5.215   4.549 -0.1734  0.4983 -0.0135
 4320SOL    HW113341   4.765   5.180   4.484 -0.7023  1.2573 -0.9430
 4320SOL    HW213342   4.698   5.308   4.528 -0.0544  0.8298  1.3811
 4321SOL     OW13343   0.980   5.748   0.792  0.3672  0.5714 -0.2191
 4321SOL    HW113344   0.975   5.681   0.724 -2.2821  0.7452 -0.2531
 4321SOL    HW213345   1.014   5.825   0.748 -0.0806  0.3021 -1.0435
 4322SOL     OW13346   3.115   5.597   1.248 -0.3350  0.1098 -0.0396
 4322SOL    HW113347   3.106   5.653   1.171  0.3756  0.3616  0.0592
 4322SOL    HW213348   3.146   5.655   1.317 -0.0606 -0.2999  0.1864
 4323SOL     OW13349   4.807   2.080   2.835 -0.2864  0.2285 -0.0149
 4323SOL    HW113350   4.854   2.087   2.918  1.0230 -3.1449 -0.3854
 4323SOL    HW213351   4.719   2.053   2.860  0.3819 -1.7651  0.2617
 4324SOL     OW13352   0.583   5.644   0.126  0.1533 -0.0299  0.0156
 4324SOL    HW113353   0.669   5.605   0.114  0.5401  1.3823 -2.2609
 4324SOL    HW213354   0.575   5.657   0.220  2.5630  0.1184  0.2364
 4325SOL     OW13355   4.142   2.910   3.276 -0.3713 -0.7379 -0.2121
 4325SOL    HW113356   4.050   2.930   3.262 -0.2346  0.5677  0.6180
 4325SOL    HW213357   4.153   2.820   3.246 -1.8357 -0.7704 -0.6447
 4326SOL     OW13358   1.285   4.099   3.175  0.5748 -0.3008 -0.7090
 4326SOL    HW113359   1.255   4.185   3.144  1.5242 -0.0362 -0.9043
 4326SOL    HW213360   1.285   4.044   3.097 -1.5770 -0.9310 -0.2956
 4327SOL     OW13361   1.761   0.899   1.793  0.8515  0.2735 -0.3632
 4327SOL    HW113362   1.786   0.848   1.871  0.2269  0.0656 -0.2928
 4327SOL    HW213363   1.711   0.837   1.739 -1.3169  1.2333  0.4756
 4328SOL     OW13364   1.965   4.409   1.454 -0.1738 -0.0755  0.4072
 4328SOL    HW113365   1.896   4.344   1.444  1.1777 -1.4848  0.0991
 4328SOL    HW213366   1.985   4.409   1.547 -0.9131  0.6868  0.5720
 4329SOL     OW13367   5.809   0.642   5.049 -0.0616 -0.3536 -0.1780
 4329SOL    HW113368   5.785   0.566   4.996 -0.8028  0.9133 -1.6984
 4329SOL    HW213369   5.739   0.650   5.113  0.0033 -0.9421 -0.0337
 4330SOL     OW13370   1.138   5.724   1.624 -0.3804 -0.1321 -0.2540
 4330SOL    HW113371   1.154   5.815   1.650  1.2407 -0.4100 -0.2206
 4330SOL    HW213372   1.079   5.731   1.549  1.7409  1.0963 -1.8754
 4331SOL     OW13373   2.554   4.060   0.425 -0.0570  0.2765  0.4754
 4331SOL    HW113374   2.576   3.972   0.395  0.4468  0.2729  0.8628
 4331SOL    HW213375   2.554   4.055   0.520 -0.9748  0.4657  0.4980
 4332SOL     OW13376   4.372   0.558   5.407  0.3090  0.0249  0.3701
 4332SOL    HW113377   4.453   0.513   5.382  0.5656  0.1597  0.9387
 4332SOL    HW213378   4.390   0.650   5.389 -0.4247 -0.1438 -1.3405
 4333SOL     OW13379   0.675   2.536   3.012 -0.0968 -0.6311  0.2358
 4333SOL    HW113380   0.702   2.594   2.940 -0.7786  1.5053  1.6305
 4333SOL    HW213381   0.590   2.502   2.985  0.0998 -0.6254 -0.4052
 4334SOL     OW13382   5.170   1.806   2.760  0.1603 -0.1546 -0.3465
 4334SOL    HW113383   5.244   1.858   2.727 -0.7633 -1.1519 -4.2679
 4334SOL    HW213384   5.094   1.863   2.747 -0.2730 -0.7148 -0.2553
 4335SOL     OW13385   1.839   4.525   6.305 -0.1577  0.0381 -0.5473
 4335SOL    HW113386   1.897   4.599   6.288 -0.2365  0.0693 -0.6807
 4335SOL    HW213387   1.834   4.519   6.401 -0.0581  0.1312 -0.5370
 4336SOL     OW13388   0.094   5.616   2.142  0.5396 -0.1898  0.1554
 4336SOL    HW113389   0.101   5.705   2.176 -1.4922  0.3548 -0.8035
 4336SOL    HW213390   0.073   5.563   2.219  0.4403  0.3530  0.5021
 4337SOL     OW13391   3.263   5.505   0.108 -0.3159  0.1075  0.3233
 4337SOL    HW113392   3.206   5.428   0.110 -1.8091  1.1997  0.6935
 4337SOL    HW213393   3.298   5.506   0.019 -0.8939 -0.5785  0.0804
 4338SOL     OW13394   1.309   4.075   4.807  0.1863 -0.4680  0.0074
 4338SOL    HW113395   1.222   4.078   4.847  0.9767 -2.1940  1.9150
 4338SOL    HW213396   1.358   4.013   4.860  2.2272 -0.4617 -1.8015
 4339SOL     OW13397   3.503   6.285   4.738  0.0346  0.4661  0.1254
 4339SOL    HW113398   3.442   6.352   4.769 -0.4314  0.5849 -1.0254
 4339SOL    HW213399   3.453   6.203   4.741 -0.2790  0.6039 -1.0656
 4340SOL     OW13400   6.310   3.359   4.771 -0.1661 -0.1587 -0.5034
 4340SOL    HW113401   6.346   3.353   4.682 -1.2379 -4.1031 -0.7441
 4340SOL    HW213402   6.376   3.315   4.826 -0.7720 -0.0969  0.2783
 4341SOL     OW13403   1.915   0.785   6.279  0.1075  0.1266  0.0702
 4341SOL    HW113404   1.912   0.737   6.362 -0.3277 -1.3752 -0.8008
 4341SOL    HW213405   1.999   0.762   6.241 -0.4041 -0.5385 -0.6851
 4342SOL     OW13406   1.993   5.630   0.195 -0.3393  0.5340  0.4254
 4342SOL    HW113407   2.054   5.567   0.233  0.6838  1.6340  0.6515
 4342SOL    HW213408   2.040   5.714   0.198 -1.2776  1.1295 -0.7847
 4343SOL     OW13409   5.040   5.976   0.902  0.3472  0.0123 -0.4055
 4343SOL    HW113410   4.962   6.001   0.951  1.0261  0.7447  0.3226
 4343SOL    HW213411   5.009   5.910   0.839 -1.0542  1.1045 -0.8918
 4344SOL     OW13412   0.543   4.702   4.137 -0.0794 -0.0715  0.9584
 4344SOL    HW113413   0.602   4.635   4.173  0.2529 -0.1152  0.3377
 4344SOL    HW213414   0.601   4.762   4.090 -0.6799 -0.9060 -0.8823
 4345SOL     OW13415   3.488   5.232   1.160 -0.7811 -0.1663  0.6849
 4345SOL    HW113416   3.420   5.276   1.111 -0.3812 -0.5504 -0.2318
 4345SOL    HW213417   3.486   5.141   1.128 -0.0905 -0.2647  0.9043
 4346SOL     OW13418   1.333   4.720   2.566 -0.6211 -0.0234  0.6852
 4346SOL    HW113419   1.322   4.728   2.661 -1.7534  0.1446  0.5441
 4346SOL    HW213420   1.335   4.811   2.535 -1.1373 -0.0932  0.4509
 4347SOL     OW13421   2.226   6.017   0.865 -0.2148 -0.5812 -0.3222
 4347SOL    HW113422   2.191   6.061   0.787  1.5197  0.7072 -0.4007
 4347SOL    HW213423   2.293   5.957   0.831 -1.0396 -1.6999 -0.0115
 4348SOL     OW13424   0.517   2.009   3.587  0.3536 -0.0318  0.1127
 4348SOL    HW113425   0.538   2.045   3.500 -0.7792  0.0392 -0.1496
 4348SOL    HW213426   0.542   2.078   3.648 -1.9592  1.3396 -0.4028
 4349SOL     OW13427   3.969   2.981   3.537 -0.2744  0.1678 -0.4106
 4349SOL    HW113428   3.929   2.931   3.607 -0.5081  1.3456  0.3219
 4349SOL    HW213429   3.913   3.058   3.528  2.1366  2.1913  1.1210
 4350SOL     OW13430   2.891   3.966   0.574  0.4118 -0.3596  0.5336
 4350SOL    HW113431   2.865   3.922   0.494 -1.5531  0.0864  0.8890
 4350SOL    HW213432   2.933   4.047   0.545  3.3980 -2.0719 -0.1012
 4351SOL     OW13433   5.119   2.573   2.423 -0.0473 -0.2491 -0.0356
 4351SOL    HW113434   5.096   2.534   2.508 -1.0972 -0.1033 -0.2448
 4351SOL    HW213435   5.200   2.529   2.398 -0.5051 -1.3504  0.3607
 4352SOL     OW13436   1.789   3.197   1.668 -0.8955  0.7170  0.1517
 4352SOL    HW113437   1.731   3.209   1.592  1.3493  2.4060 -1.3711
 4352SOL    HW213438   1.833   3.281   1.677  0.1361 -0.0285  2.3145
 4353SOL     OW13439   5.253   0.197   3.827  0.5262  0.5079 -0.1766
 4353SOL    HW113440   5.223   0.241   3.748 -0.1905  4.0608  1.9553
 4353SOL    HW213441   5.181   0.206   3.889  0.7132 -3.0232  0.6431
 4354SOL     OW13442   2.840   2.675   4.364 -0.3913 -0.7765  0.5671
 4354SOL    HW113443   2.811   2.660   4.454 -0.5338  2.2148  1.0675
 4354SOL    HW213444   2.761   2.702   4.317 -0.0991 -1.2054 -0.1802
 4355SOL     OW13445   5.038   1.836   3.357 -0.2339 -0.0581  0.3049
 4355SOL    HW113446   5.040   1.884   3.440  1.4709 -1.7595  1.2754
 4355SOL    HW213447   5.111   1.872   3.306 -1.3437  1.0591 -0.5236
 4356SOL     OW13448   1.849   5.713   1.626  0.1349 -0.0353 -0.6922
 4356SOL    HW113449   1.834   5.716   1.721 -0.5062 -1.0151 -0.7602
 4356SOL    HW213450   1.855   5.620   1.606  2.0992  0.2140 -1.3410
 4357SOL     OW13451   3.247   2.422   4.849  0.8612 -0.4590  0.1364
 4357SOL    HW113452   3.222   2.497   4.796 -1.3161 -1.9948 -1.0809
 4357SOL    HW213453   3.313   2.376   4.797  2.8371  1.0307  1.2635
 4358SOL     OW13454   0.543   4.671   0.290  0.2108  0.0210 -0.7359
 4358SOL    HW113455   0.508   4.711   0.210 -0.3899 -0.5109 -0.7464
 4358SOL    HW213456   0.613   4.614   0.259  0.8819  0.8428 -0.7476
 4359SOL     OW13457   2.998   1.172   6.302  0.1200  0.2377 -0.0780
 4359SOL    HW113458   3.068   1.171   6.237  0.5288 -0.5303  0.3596
 4359SOL    HW213459   3.043   1.161   6.386 -0.4815  0.2073  0.2450
 4360SOL     OW13460   4.117   0.900   2.254  0.1815 -0.0796 -0.1722
 4360SOL    HW113461   4.162   0.965   2.309  1.8730 -2.2844  1.1413
 4360SOL    HW213462   4.154   0.912   2.167 -1.5323  2.5468 -0.5856
 4361SOL     OW13463   4.267   4.754   0.556 -0.0048 -0.3122 -0.8555
 4361SOL    HW113464   4.214   4.682   0.590 -1.0508 -1.0931 -3.9567
 4361SOL    HW213465   4.341   4.712   0.512  1.6107  0.6844  0.8304
 4362SOL     OW13466   0.826   6.003   0.291  0.2957 -0.1925  0.0315
 4362SOL    HW113467   0.888   5.949   0.340 -0.3965 -1.0832 -0.0727
 4362SOL    HW213468   0.783   6.057   0.358  2.5215  1.8158 -0.0994
 4363SOL     OW13469   6.278   0.088   3.776 -0.7610  0.1575 -0.6405
 4363SOL    HW113470   6.360   0.134   3.796  0.4100 -2.2318  0.1391
 4363SOL    HW213471   6.269   0.024   3.845 -2.0205 -1.2637 -2.0996
 4364SOL     OW13472   2.645   1.208   2.872  0.5632  0.2469 -0.1411
 4364SOL    HW113473   2.656   1.195   2.778  0.1418 -0.1922 -0.1336
 4364SOL    HW213474   2.623   1.121   2.906 -0.1088  0.5625  0.2380
 4365SOL     OW13475   2.624   6.100   0.402 -0.3422 -0.6498  0.1303
 4365SOL    HW113476   2.537   6.136   0.418  0.1542  0.3857  0.6240
 4365SOL    HW213477   2.629   6.088   0.308 -0.4131  0.9000 -0.0806
 4366SOL     OW13478   4.691   3.601   5.207 -0.5762  0.1003 -0.0688
 4366SOL    HW113479   4.595   3.605   5.208 -0.5670  0.3594 -0.1683
 4366SOL    HW213480   4.711   3.508   5.214 -0.8086  0.1552  1.4589
 4367SOL     OW13481   3.731   2.276   0.746 -0.2936 -0.2000 -0.0760
 4367SOL    HW113482   3.819   2.238   0.749  0.1194  0.7685  0.1242
 4367SOL    HW213483   3.724   2.310   0.657 -0.4663 -0.2705 -0.0884
 4368SOL     OW13484   4.776   5.725   5.943  0.0092  0.0146  0.4743
 4368SOL    HW113485   4.861   5.746   5.905 -0.4805  2.2762  0.5126
 4368SOL    HW213486   4.795   5.694   6.031  0.7525  1.7418  0.9475
 4369SOL     OW13487   2.918   5.979   2.007 -0.1230  0.2100 -0.2462
 4369SOL    HW113488   2.910   6.057   1.953 -0.1009 -0.5787 -1.3939
 4369SOL    HW213489   2.829   5.959   2.034 -0.0719  0.9303  0.5073
 4370SOL     OW13490   5.595   1.998   4.931 -0.0728  0.3183  0.1507
 4370SOL    HW113491   5.654   2.067   4.900  0.2068  0.8411  1.7428
 4370SOL    HW213492   5.540   2.042   4.996  0.3631 -1.0325  1.4586
 4371SOL     OW13493   5.050   3.393   4.984 -0.6203 -0.5196 -0.1365
 4371SOL    HW113494   4.976   3.452   4.974 -1.2442 -1.0080  1.3374
 4371SOL    HW213495   5.032   3.320   4.924 -1.8422 -1.1035  0.9068
 4372SOL     OW13496   4.135   3.011   5.810 -0.1409 -0.7549 -0.1621
 4372SOL    HW113497   4.056   3.059   5.784  0.4454  0.6637  0.5853
 4372SOL    HW213498   4.143   2.941   5.746 -1.3728 -0.2169 -0.9252
 4373SOL     OW13499   6.153   2.594   2.242  0.1928  0.0374 -0.0028
 4373SOL    HW113500   6.231   2.554   2.203  1.0032 -0.1579  1.7330
 4373SOL    HW213501   6.102   2.519   2.273  1.3204  0.2273  2.5194
 4374SOL     OW13502   5.748   3.399   3.691  0.4822 -0.1735  0.9297
 4374SOL    HW113503   5.681   3.462   3.717  1.7909  1.4345  0.4262
 4374SOL    HW213504   5.754   3.406   3.596  3.7801  2.2539  1.2165
 4375SOL     OW13505   4.944   3.211   4.018 -0.1221  0.6750 -0.2239
 4375SOL    HW113506   5.010   3.172   4.075 -0.2096 -1.5663 -1.5816
 4375SOL    HW213507   4.877   3.243   4.077  0.9035  0.5446  1.0358
 4376SOL     OW13508   5.890   2.192   4.962 -0.1914  1.1674 -0.3741
 4376SOL    HW113509   5.946   2.120   4.934 -0.0424  1.5782 -1.1760
 4376SOL    HW213510   5.849   2.223   4.881 -2.3202  0.2714  0.3157
 4377SOL     OW13511   0.625   4.316   0.001 -0.2042  0.5753 -0.4458
 4377SOL    HW113512   0.630   4.236  -0.051  1.3478  0.3675 -0.0119
 4377SOL    HW213513   0.707   4.362  -0.020  0.8452  0.1071  2.4028
 4378SOL     OW13514   0.638   0.824   5.096  0.1887  0.2587 -0.5343
 4378SOL    HW113515   0.629   0.850   5.187  0.3138  0.4223 -0.5684
 4378SOL    HW213516   0.557   0.852   5.054  0.4397  0.8365 -0.6306
 4379SOL     OW13517   0.383   0.821   4.995  0.0376 -0.1375 -0.1836
 4379SOL    HW113518   0.366   0.727   5.003 -1.3915 -0.0090 -1.6354
 4379SOL    HW213519   0.324   0.861   5.059  0.2807 -0.1870  0.0737
 4380SOL     OW13520   5.061   1.921   3.611  0.3653  0.1855  0.6561
 4380SOL    HW113521   5.030   1.859   3.678  2.4181 -0.1249  1.3578
 4380SOL    HW213522   5.156   1.909   3.610  0.3997  0.3341 -2.1952
 4381SOL     OW13523   3.271   0.317   3.571  0.1562  0.6941  0.4369
 4381SOL    HW113524   3.284   0.410   3.554  1.3206  0.1825 -1.6290
 4381SOL    HW213525   3.319   0.273   3.502 -1.9512 -1.4489  0.2543
 4382SOL     OW13526   3.953   1.466   0.036 -0.1201 -0.5022  0.5529
 4382SOL    HW113527   3.895   1.485   0.109  1.5730 -0.7830  1.9860
 4382SOL    HW213528   3.957   1.371   0.031  0.2422 -0.4864  0.4754
 4383SOL     OW13529   3.723   0.673   2.530  0.4060 -0.1147 -0.4400
 4383SOL    HW113530   3.776   0.705   2.456 -1.3907  0.0800 -1.6853
 4383SOL    HW213531   3.637   0.714   2.517  0.7439  1.8241  3.1301
 4384SOL     OW13532   3.017   3.239   3.672  0.2071  0.3308  0.1600
 4384SOL    HW113533   3.091   3.295   3.697 -0.4899  1.0241  0.6934
 4384SOL    HW213534   2.992   3.270   3.585 -1.0908  1.8237  1.0433
 4385SOL     OW13535   3.141   5.861   1.158 -0.0019 -0.2166  0.0553
 4385SOL    HW113536   3.079   5.891   1.092 -0.8568  2.0423  1.8024
 4385SOL    HW213537   3.221   5.911   1.140 -0.0237 -0.0912  0.2948
 4386SOL     OW13538   2.657   0.900   1.913  0.0111  0.9741 -0.0917
 4386SOL    HW113539   2.701   0.844   1.849  2.0222  2.5024 -0.1120
 4386SOL    HW213540   2.599   0.955   1.861  0.6411  1.2929 -0.4657
 4387SOL     OW13541   4.172   6.200   5.717 -0.4940 -0.5191 -0.0863
 4387SOL    HW113542   4.247   6.260   5.713 -1.3671  0.6174  0.4082
 4387SOL    HW213543   4.152   6.180   5.626  1.1566 -1.7859 -0.2021
 4388SOL     OW13544   1.932   3.033   5.385  0.1286  0.0023 -0.2784
 4388SOL    HW113545   1.949   3.074   5.300 -0.0586 -0.1107 -0.3725
 4388SOL    HW213546   1.995   3.073   5.445  3.9408 -3.7042 -1.5386
 4389SOL     OW13547   2.873   1.143   3.385  0.0027 -0.1496  0.5800
 4389SOL    HW113548   2.870   1.047   3.380 -1.8763 -0.0690 -0.1479
 4389SOL    HW213549   2.927   1.169   3.311 -0.9681 -0.5765 -0.2983
 4390SOL     OW13550   0.188   4.870   3.824  0.7039 -0.2984 -0.0841
 4390SOL    HW113551   0.186   4.782   3.786  1.0715  0.0459 -0.9286
 4390SOL    HW213552   0.184   4.856   3.918  2.2156 -1.2924 -0.1455
 4391SOL     OW13553   3.891   0.677   1.657  0.5174 -0.1508  0.2708
 4391SOL    HW113554   3.907   0.585   1.677 -0.3112 -0.7545 -1.6774
 4391SOL    HW213555   3.943   0.694   1.578 -0.0373  0.8002  0.0998
 4392SOL     OW13556   1.826   4.038   5.719  0.1917 -0.5314  0.1168
 4392SOL    HW113557   1.782   4.023   5.635 -3.2992 -0.4410  1.8280
 4392SOL    HW213558   1.807   3.959   5.770  0.6153  0.2338  1.4746
 4393SOL     OW13559   5.912   3.326   1.444 -0.2592 -0.0485 -0.4697
 4393SOL    HW113560   5.992   3.302   1.397 -0.4791  0.3274 -1.0408
 4393SOL    HW213561   5.928   3.297   1.534 -0.0598 -1.2720 -0.8984
 4394SOL     OW13562   5.410   3.921   5.074 -0.2027  0.3327 -0.2184
 4394SOL    HW113563   5.344   3.860   5.041  0.4985 -0.7300  0.3044
 4394SOL    HW213564   5.482   3.916   5.010  1.3361 -2.0471  1.5927
 4395SOL     OW13565   0.024   0.817   5.393 -0.5050 -0.5271  0.0765
 4395SOL    HW113566  -0.040   0.866   5.342  0.1158  0.3288  0.0903
 4395SOL    HW213567   0.026   0.861   5.478 -0.2531 -0.8369  0.2328
 4396SOL     OW13568   0.399   5.981   0.048  0.3811 -0.0106 -0.4002
 4396SOL    HW113569   0.471   5.999  -0.012  0.3243  1.0204 -0.1728
 4396SOL    HW213570   0.401   6.053   0.111 -0.0887 -0.6264  0.3313
 4397SOL     OW13571   5.699   0.763   0.976 -0.2883  0.1026 -0.1870
 4397SOL    HW113572   5.648   0.765   1.056  0.6299  0.3224  0.4063
 4397SOL    HW213573   5.788   0.784   1.004 -0.2156  1.5584 -1.4566
 4398SOL     OW13574   5.055   6.309   3.828  0.1983 -0.0461  0.3638
 4398SOL    HW113575   5.041   6.403   3.815  1.6104  0.0110 -0.7165
 4398SOL    HW213576   4.983   6.267   3.780  0.8750  0.4180 -1.0797
 4399SOL     OW13577   1.390   5.862   2.076 -0.1216  0.3096  0.6499
 4399SOL    HW113578   1.399   5.882   1.983 -0.7691 -0.6350  0.3728
 4399SOL    HW213579   1.473   5.889   2.115  0.5789 -0.3317 -0.3959
 4400SOL     OW13580   0.666   4.810   0.869 -0.4694  0.4014 -0.3132
 4400SOL    HW113581   0.683   4.848   0.955  0.9325 -1.2362  0.1675
 4400SOL    HW213582   0.571   4.820   0.857 -0.5570  1.3975  1.0439
 4401SOL     OW13583   0.369   3.941   5.648 -0.4677 -0.4074  0.2067
 4401SOL    HW113584   0.406   3.926   5.561  1.6358  0.1178  0.9837
 4401SOL    HW213585   0.330   4.028   5.643 -0.5987 -0.4939 -0.2962
 4402SOL     OW13586   0.976   6.372   3.056  0.1424 -0.0089 -0.0025
 4402SOL    HW113587   0.974   6.401   3.147 -0.1519  2.7604 -0.8498
 4402SOL    HW213588   0.898   6.317   3.046  0.5482 -0.9028  1.5736
 4403SOL     OW13589   6.313   0.974   2.079 -0.6428 -0.2134  0.5296
 4403SOL    HW113590   6.328   1.053   2.027 -1.3112 -0.6743 -0.3992
 4403SOL    HW213591   6.254   0.921   2.024 -1.7395 -0.5046  1.9638
 4404SOL     OW13592   3.126   1.538   4.084 -0.2487 -0.3048  0.2284
 4404SOL    HW113593   3.203   1.541   4.141 -0.0460  0.0856 -0.0670
 4404SOL    HW213594   3.154   1.580   4.003 -1.2351  1.2524  0.6702
 4405SOL     OW13595   5.611   5.805   1.946  0.3148  0.0676  0.4384
 4405SOL    HW113596   5.626   5.839   2.034  2.6995 -0.4323  0.2649
 4405SOL    HW213597   5.606   5.883   1.891 -1.4065  0.3895  1.0298
 4406SOL     OW13598   5.061   5.109   2.772  0.1055 -0.3195  0.0139
 4406SOL    HW113599   5.048   5.022   2.809 -0.1246 -0.4170 -0.2902
 4406SOL    HW213600   5.155   5.119   2.764  0.1292 -0.5656 -0.0094
 4407SOL     OW13601   4.202   0.278   5.917 -0.3484  0.2590  0.0743
 4407SOL    HW113602   4.218   0.229   5.998 -1.0800  1.2170  0.8011
 4407SOL    HW213603   4.183   0.210   5.852  0.4440 -0.5309  0.6501
 4408SOL     OW13604   5.214   2.469   4.980 -0.1904  0.3569  0.6971
 4408SOL    HW113605   5.250   2.510   5.058 -1.9417  0.6013  1.3943
 4408SOL    HW213606   5.126   2.442   5.005 -0.9039  0.7271 -1.2728
 4409SOL     OW13607   2.439   5.225   6.069  0.6576  0.0815  0.0235
 4409SOL    HW113608   2.487   5.296   6.111  1.3653 -0.9636  1.0134
 4409SOL    HW213609   2.347   5.251   6.076  0.6772 -0.4853  3.1012
 4410SOL     OW13610   3.987   1.870   0.916 -0.4014  0.3084  0.0259
 4410SOL    HW113611   3.909   1.830   0.877 -0.2592 -0.1241  0.1747
 4410SOL    HW213612   3.957   1.904   1.000  0.2019 -2.4850  1.4334
 4411SOL     OW13613   1.208   3.316   5.373  0.3095 -0.3756  0.3961
 4411SOL    HW113614   1.287   3.301   5.322 -0.5108  0.1423 -1.0644
 4411SOL    HW213615   1.194   3.410   5.369 -0.6699 -0.5243  0.2034
 4412SOL     OW13616   5.568   6.307   2.528 -0.6123 -0.5025 -0.1401
 4412SOL    HW113617   5.494   6.324   2.587  0.5298 -2.7428  2.0520
 4412SOL    HW213618   5.629   6.378   2.547 -1.6580  0.6861 -1.1016
 4413SOL     OW13619   5.881   3.928   4.077  0.3280  0.0680 -0.0963
 4413SOL    HW113620   5.888   3.870   4.001 -0.7180  0.4593 -0.5063
 4413SOL    HW213621   5.787   3.935   4.093  0.4319  1.6115 -0.0332
 4414SOL     OW13622   4.258   1.289   5.462  0.2104 -0.0065 -0.2707
 4414SOL    HW113623   4.293   1.375   5.486 -0.2139  0.2623 -0.5970
 4414SOL    HW213624   4.165   1.306   5.447  0.6151 -0.0067 -2.9184
 4415SOL     OW13625   0.742   1.289   6.019 -0.0060  0.8128 -0.1958
 4415SOL    HW113626   0.769   1.236   6.094  0.4939  0.9147 -0.3020
 4415SOL    HW213627   0.660   1.249   5.990  0.4634 -0.0222 -0.3901
 4416SOL     OW13628   1.782   4.396   2.981  0.6698  0.3888 -0.1411
 4416SOL    HW113629   1.704   4.346   3.005  0.0513  0.1949 -2.3770
 4416SOL    HW213630   1.748   4.480   2.951  1.3471  0.4377 -0.7821
 4417SOL     OW13631   0.063   1.889   3.315  0.1906  1.1469  0.5248
 4417SOL    HW113632   0.140   1.873   3.368  0.8588 -0.6969 -0.9389
 4417SOL    HW213633  -0.011   1.884   3.376  1.0285  0.2029  1.4607
 4418SOL     OW13634   4.650   0.424   3.805 -0.4405  0.0918 -0.1912
 4418SOL    HW113635   4.585   0.452   3.869 -1.5521  1.8986 -2.0720
 4418SOL    HW213636   4.609   0.439   3.720  2.3013  0.9444 -1.4225
 4419SOL     OW13637   3.605   5.770   2.870 -0.6526 -0.6117 -0.5953
 4419SOL    HW113638   3.544   5.710   2.914 -1.6622  0.6530 -0.2336
 4419SOL    HW213639   3.564   5.787   2.785  0.0865 -1.1259 -1.0649
 4420SOL     OW13640   3.227   1.895   0.438 -0.3023 -0.0821  0.1863
 4420SOL    HW113641   3.196   1.856   0.520  0.1165 -0.1825  0.2998
 4420SOL    HW213642   3.306   1.845   0.416 -0.0624  0.3547  0.0522
 4421SOL     OW13643   1.844   1.776   3.927 -0.3466 -0.0431  0.3199
 4421SOL    HW113644   1.933   1.743   3.942 -0.4016 -0.5551 -0.4219
 4421SOL    HW213645   1.854   1.844   3.860 -0.5631 -0.3708 -0.0461
 4422SOL     OW13646   2.700   1.828   6.038  0.1985 -0.4890  0.4262
 4422SOL    HW113647   2.693   1.769   6.113  0.6579 -1.1069 -0.0109
 4422SOL    HW213648   2.726   1.912   6.076  2.4375 -1.2977  0.7968
 4423SOL     OW13649   0.888   4.009   5.634 -0.2838  0.2422  0.9806
 4423SOL    HW113650   0.905   3.983   5.543  1.3911 -2.7905  2.0766
 4423SOL    HW213651   0.814   3.955   5.661 -0.8513  1.2220  1.3889
 4424SOL     OW13652   0.930   0.483   0.578 -0.1097 -0.0884 -0.3125
 4424SOL    HW113653   0.937   0.410   0.517  1.9158 -0.0554 -0.1765
 4424SOL    HW213654   0.837   0.488   0.600 -0.4802 -1.7088 -1.4143
 4425SOL     OW13655   0.690   5.595   4.885  0.3747  0.1972  0.1806
 4425SOL    HW113656   0.671   5.574   4.977  0.7811 -1.4653 -0.0998
 4425SOL    HW213657   0.773   5.550   4.868  0.2696  0.4550 -1.0198
 4426SOL     OW13658   3.889   0.848   6.338 -0.3551  0.2505  0.2655
 4426SOL    HW113659   3.948   0.813   6.404 -0.6607 -0.2355  0.2894
 4426SOL    HW213660   3.878   0.776   6.276  0.6122  0.9912 -0.7799
 4427SOL     OW13661   5.197   1.344   1.756  0.6773 -0.0593  0.1648
 4427SOL    HW113662   5.119   1.354   1.701  1.2277 -0.1537 -0.6358
 4427SOL    HW213663   5.181   1.401   1.831 -0.4107 -0.4942  0.2795
 4428SOL     OW13664   1.127   4.535   4.830 -0.3244 -0.3008  0.3653
 4428SOL    HW113665   1.096   4.573   4.748 -0.0905  0.4441  0.6240
 4428SOL    HW213666   1.138   4.609   4.889  2.7019 -0.4059  0.0484
 4429SOL     OW13667   0.613   2.031   5.887 -0.0784 -0.4258  0.1271
 4429SOL    HW113668   0.636   2.102   5.827 -0.2308 -0.4094  0.0855
 4429SOL    HW213669   0.691   1.976   5.891  0.1481 -0.0837  0.4069
 4430SOL     OW13670   4.944   1.579   1.898  0.5990 -0.1963 -0.0814
 4430SOL    HW113671   4.897   1.584   1.815  0.6947 -1.0698 -0.1887
 4430SOL    HW213672   5.035   1.599   1.876  0.6106 -0.3503 -0.1708
 4431SOL     OW13673   5.598   5.791   5.369  0.4016 -0.4592 -0.7886
 4431SOL    HW113674   5.509   5.813   5.341  0.7348  0.3990 -1.1688
 4431SOL    HW213675   5.610   5.700   5.341  0.2382 -0.0500 -2.1883
 4432SOL     OW13676   2.551   0.552   6.051 -0.3179 -0.1944 -0.4339
 4432SOL    HW113677   2.623   0.532   6.111 -0.5667 -1.3624 -0.5173
 4432SOL    HW213678   2.589   0.543   5.963  0.1231  1.7967 -0.4777
 4433SOL     OW13679   4.499   4.694   2.673 -0.7198 -0.5855  0.2873
 4433SOL    HW113680   4.458   4.704   2.759 -1.4788  0.7611 -0.2137
 4433SOL    HW213681   4.548   4.774   2.660 -0.3813 -0.9024 -0.4247
 4434SOL     OW13682   5.110   3.405   5.866 -0.0327 -0.0900  0.1367
 4434SOL    HW113683   5.142   3.358   5.944  1.9559  0.4280 -0.3472
 4434SOL    HW213684   5.015   3.402   5.875  0.1416  0.0504  2.6625
 4435SOL     OW13685   1.079   6.045   5.402  0.2863 -0.6823 -0.2034
 4435SOL    HW113686   1.162   6.021   5.361  0.1856 -0.7244 -0.3802
 4435SOL    HW213687   1.074   5.989   5.480  0.0610 -1.2218 -0.6068
 4436SOL     OW13688   5.159   5.978   2.288  0.1504  0.3076  1.1616
 4436SOL    HW113689   5.179   6.048   2.225 -1.0017 -1.0942 -0.8104
 4436SOL    HW213690   5.181   5.897   2.242  1.4949 -0.6648  3.4367
 4437SOL     OW13691   4.854   5.025   0.979 -0.7733 -0.3384  0.0619
 4437SOL    HW113692   4.890   5.066   0.900 -0.9317  0.5117  0.4333
 4437SOL    HW213693   4.803   5.094   1.021 -1.1088 -0.9415  0.6416
 4438SOL     OW13694   1.769   3.654   4.892  0.1649  0.0677  0.3556
 4438SOL    HW113695   1.850   3.661   4.942 -0.5476  2.1325  1.2500
 4438SOL    HW213696   1.703   3.630   4.957 -0.2690  0.1382 -0.0587
 4439SOL     OW13697   0.797   3.499   4.631 -0.2752 -0.1042  0.0317
 4439SOL    HW113698   0.866   3.510   4.697 -0.5902  1.1089  0.1824
 4439SOL    HW213699   0.795   3.405   4.614  0.4097 -0.3332  1.1139
 4440SOL     OW13700   5.954   1.928   0.085  0.3252  0.5568  0.1648
 4440SOL    HW113701   5.907   1.926   0.002 -1.9655  2.0493  1.3624
 4440SOL    HW213702   5.971   2.021   0.101  1.0093  0.2599  1.2328
 4441SOL     OW13703   0.709   5.353   5.122 -0.0500  0.0642 -0.5116
 4441SOL    HW113704   0.734   5.305   5.043 -0.2394 -0.8938  0.0002
 4441SOL    HW213705   0.652   5.293   5.170 -0.4452  0.8748  0.0508
 4442SOL     OW13706   3.048   5.472   3.830 -0.6040 -0.4115 -0.0736
 4442SOL    HW113707   2.979   5.450   3.768 -0.6189 -1.2413  0.2239
 4442SOL    HW213708   3.008   5.459   3.916 -0.2541 -0.3273  0.1054
 4443SOL     OW13709   5.382   2.224   2.520 -0.1179  0.0544  0.4589
 4443SOL    HW113710   5.471   2.200   2.492 -0.3858 -0.8713  0.3856
 4443SOL    HW213711   5.396   2.292   2.586  0.6643 -0.3501  0.7224
 4444SOL     OW13712   4.605   0.406   2.812  0.2769 -0.2535 -0.3044
 4444SOL    HW113713   4.635   0.496   2.807  1.7941 -0.8051 -1.6159
 4444SOL    HW213714   4.636   0.365   2.731  0.3669 -2.1787  0.6578
 4445SOL     OW13715   5.806   4.726   0.268  0.1466  0.2637 -0.3805
 4445SOL    HW113716   5.814   4.653   0.207  1.5809  0.2029 -0.1415
 4445SOL    HW213717   5.861   4.795   0.230  1.1632  0.1784  0.8808
 4446SOL     OW13718   2.606   0.903   0.383  0.0091 -0.2577  0.2430
 4446SOL    HW113719   2.653   0.840   0.328 -1.4285 -1.2410  0.1150
 4446SOL    HW213720   2.589   0.977   0.327 -1.4613 -1.2603 -0.6593
 4447SOL     OW13721   2.210   3.079   5.497 -0.7451  0.6047 -0.0128
 4447SOL    HW113722   2.225   3.059   5.405 -1.5904  1.0096 -0.2404
 4447SOL    HW213723   2.250   3.165   5.511 -2.4296  1.4916 -0.5165
 4448SOL     OW13724   4.942   3.324   2.343  0.4978 -0.2059  0.1635
 4448SOL    HW113725   4.936   3.402   2.289  0.3936  0.7424  1.5186
 4448SOL    HW213726   4.963   3.254   2.281 -0.4654  0.6845 -1.2207
 4449SOL     OW13727   2.598   4.575   3.923  0.4284 -0.1143 -0.0076
 4449SOL    HW113728   2.571   4.649   3.868  0.1168 -0.2415 -0.0315
 4449SOL    HW213729   2.547   4.502   3.890  1.3516 -0.5257 -0.5212
 4450SOL     OW13730   4.287   4.791   3.201 -0.5206 -0.2267  0.5334
 4450SOL    HW113731   4.373   4.803   3.242 -0.9573  0.3709  1.2835
 4450SOL    HW213732   4.227   4.774   3.274 -0.5756 -3.5588 -0.1963
 4451SOL     OW13733   1.816   2.634   4.134 -0.1146  0.5253 -0.3694
 4451SOL    HW113734   1.750   2.627   4.203  0.8417 -1.9916  0.3725
 4451SOL    HW213735   1.791   2.567   4.070  0.4639  1.0576 -1.1646
 4452SOL     OW13736   5.835   5.262   4.890 -0.3261  0.9782 -1.0234
 4452SOL    HW113737   5.920   5.243   4.849  0.4661  0.7611  0.6515
 4452SOL    HW213738   5.801   5.175   4.914 -0.0049  1.1830  0.2328
 4453SOL     OW13739   5.776   6.225   4.065 -0.3382  0.3785  0.1703
 4453SOL    HW113740   5.770   6.293   3.998 -1.4140  0.2441  0.1349
 4453SOL    HW213741   5.707   6.163   4.045  0.1586 -0.3481  0.6478
 4454SOL     OW13742   0.189   1.299   2.308 -0.0648  0.0077  0.0413
 4454SOL    HW113743   0.214   1.208   2.324 -2.2918 -0.6415 -0.0185
 4454SOL    HW213744   0.158   1.300   2.218  1.5448  1.2052 -0.5185
 4455SOL     OW13745   0.185   3.685   4.434  0.0412 -0.1749 -0.1752
 4455SOL    HW113746   0.172   3.779   4.438  1.3575 -0.0221  1.4810
 4455SOL    HW213747   0.121   3.649   4.495 -1.7019 -0.5309 -2.1578
 4456SOL     OW13748   3.697   1.231   5.672 -0.2841 -0.2997  0.9857
 4456SOL    HW113749   3.732   1.151   5.633  1.6637 -0.2353  2.5503
 4456SOL    HW213750   3.612   1.204   5.707 -0.3242 -1.3066  0.1522
 4457SOL     OW13751   3.499   0.530   3.803 -0.3873  0.1699 -0.0586
 4457SOL    HW113752   3.479   0.495   3.890 -1.1656  1.4872  0.3052
 4457SOL    HW213753   3.513   0.453   3.749  0.0925 -0.6750  1.2270
 4458SOL     OW13754   2.542   1.283   3.979 -0.5605 -0.0023  0.4842
 4458SOL    HW113755   2.577   1.250   3.897 -0.5806 -0.5515  0.6944
 4458SOL    HW213756   2.598   1.246   4.047 -0.6457  0.3098  0.7309
 4459SOL     OW13757   2.699   2.945   1.577 -0.3469 -0.2696  0.0288
 4459SOL    HW113758   2.683   2.884   1.649 -1.7219 -0.5315 -0.4922
 4459SOL    HW213759   2.685   2.894   1.498  0.0717  0.3068 -0.4171
 4460SOL     OW13760   4.473   0.151   2.980  0.1301  0.0567 -0.3268
 4460SOL    HW113761   4.454   0.074   2.926  0.2174 -0.6377  0.6109
 4460SOL    HW213762   4.567   0.165   2.968 -0.7524  3.2903 -4.7026
 4461SOL     OW13763   4.009   2.225   0.764  0.1963 -0.0722 -0.4501
 4461SOL    HW113764   4.050   2.138   0.765  0.3677  0.0097  1.2444
 4461SOL    HW213765   4.035   2.264   0.847 -0.2606  1.4329 -1.0076
 4462SOL     OW13766   4.082   1.065   0.640  0.2923  0.2810 -0.6674
 4462SOL    HW113767   4.000   1.078   0.593 -0.3456  1.2974  0.6973
 4462SOL    HW213768   4.060   1.003   0.710  1.0263 -0.5314 -1.1377
 4463SOL     OW13769   2.079   2.087   0.730 -0.5380 -0.0041  0.3407
 4463SOL    HW113770   1.996   2.134   0.733 -0.2283  0.5782 -0.1708
 4463SOL    HW213771   2.055   2.000   0.699 -1.2070 -0.4236  1.9541
 4464SOL     OW13772   0.133   5.845   1.564  0.6121  0.6260  0.0628
 4464SOL    HW113773   0.136   5.878   1.475  1.0917 -0.8455 -0.4744
 4464SOL    HW213774   0.064   5.779   1.563  0.4273  0.7971  0.8550
 4465SOL     OW13775   3.440   2.571   5.880 -0.2908  0.4856 -0.2184
 4465SOL    HW113776   3.523   2.550   5.836  0.2401  0.0851  0.9727
 4465SOL    HW213777   3.431   2.666   5.869 -0.0383  0.4254 -0.9822
 4466SOL     OW13778   1.249   3.448   0.312  0.2131  0.4491 -0.0541
 4466SOL    HW113779   1.201   3.509   0.368  0.4119  1.0258 -0.5019
 4466SOL    HW213780   1.320   3.416   0.367 -0.5853 -0.2801  0.5565
 4467SOL     OW13781   3.856   2.105   0.426  0.0379 -0.5620  0.0099
 4467SOL    HW113782   3.939   2.152   0.421  0.1319 -0.8595 -1.5249
 4467SOL    HW213783   3.881   2.014   0.443 -0.0975 -0.2793  1.8776
 4468SOL     OW13784   5.978   5.448   0.499 -0.2963 -1.2588 -0.3522
 4468SOL    HW113785   6.053   5.446   0.557 -1.9279  1.2205  1.9868
 4468SOL    HW213786   5.964   5.357   0.473  3.0880 -1.8084 -0.3572
 4469SOL     OW13787   5.380   5.793   5.805  0.4716 -0.2401 -0.4150
 4469SOL    HW113788   5.330   5.719   5.840  1.5435  0.2368  2.1970
 4469SOL    HW213789   5.465   5.756   5.783  0.6521 -0.0028 -0.1166
 4470SOL     OW13790   4.327   4.447   5.439  0.6234  0.1228 -0.2940
 4470SOL    HW113791   4.397   4.507   5.465  1.3742 -1.0878  0.5323
 4470SOL    HW213792   4.246   4.495   5.457  1.1972  0.6002  1.0899
 4471SOL     OW13793   0.161   2.275   4.933  0.4312 -0.4059 -0.5967
 4471SOL    HW113794   0.097   2.249   4.999 -1.5949 -0.3237 -2.4732
 4471SOL    HW213795   0.161   2.371   4.935  1.4830 -0.4102  0.2923
 4472SOL     OW13796   2.744   4.189   3.209  0.1281 -0.2247 -0.0808
 4472SOL    HW113797   2.650   4.202   3.198 -0.0758 -1.4361  0.1766
 4472SOL    HW213798   2.764   4.230   3.293 -0.1276  0.2045 -0.2258
 4473SOL     OW13799   6.035   1.600   1.564  0.0819 -0.5436 -0.0143
 4473SOL    HW113800   5.957   1.596   1.619 -0.6203  1.7322 -0.7764
 4473SOL    HW213801   6.054   1.693   1.556  2.7824 -1.0709 -0.0081
 4474SOL     OW13802   4.201   2.197   1.735  0.0344  0.0191  0.0930
 4474SOL    HW113803   4.292   2.183   1.761  0.0498 -0.6303 -0.2987
 4474SOL    HW213804   4.195   2.160   1.647 -1.0684 -1.6767  0.8468
 4475SOL     OW13805   0.360   2.909   0.552  0.4982 -0.8476 -0.4684
 4475SOL    HW113806   0.414   2.840   0.592  1.9124  0.2950 -0.3386
 4475SOL    HW213807   0.288   2.921   0.613  1.0618 -1.1628  0.2712
 4476SOL     OW13808   4.249   3.270   0.112 -0.2372  0.4653  0.1435
 4476SOL    HW113809   4.165   3.254   0.068 -0.2071 -0.4689  0.4147
 4476SOL    HW213810   4.314   3.260   0.043 -0.4383  3.0517 -0.5034
 4477SOL     OW13811   3.634   3.434   3.889  0.5763  0.5842 -0.4394
 4477SOL    HW113812   3.633   3.530   3.889 -2.9740  0.6255 -0.6540
 4477SOL    HW213813   3.570   3.410   3.957  0.8393 -1.6226 -0.9400
 4478SOL     OW13814   1.078   3.727   5.941  0.4368 -0.2008 -0.3881
 4478SOL    HW113815   1.104   3.657   5.880  0.4500 -1.5746  1.1445
 4478SOL    HW213816   1.027   3.682   6.008 -2.4343  1.8138 -1.1384
 4479SOL     OW13817   2.169   6.024   3.185 -0.2641 -0.1582  0.1696
 4479SOL    HW113818   2.083   6.019   3.142  0.5029 -2.2423 -1.2062
 4479SOL    HW213819   2.157   5.978   3.268 -0.8341  0.7967  0.6253
 4480SOL     OW13820   3.599   1.298   2.703 -0.2726  0.0511  0.3159
 4480SOL    HW113821   3.596   1.287   2.608 -0.0333  2.0198  0.0595
 4480SOL    HW213822   3.546   1.376   2.720  1.0560  0.6938  1.6210
 4481SOL     OW13823   1.934   0.872   0.353  0.1433 -0.2645 -1.0924
 4481SOL    HW113824   1.929   0.944   0.289  0.3283 -0.3800 -1.2396
 4481SOL    HW213825   2.028   0.857   0.364  0.0985 -1.0701 -1.7307
 4482SOL     OW13826   3.039   0.466   0.015  0.3572  0.1238  0.5313
 4482SOL    HW113827   3.101   0.394   0.027  2.0313  1.0318 -2.0620
 4482SOL    HW213828   3.084   0.543   0.050 -0.9594  0.1096  2.2703
 4483SOL     OW13829   0.114   1.704   4.866 -0.2389 -0.2628  0.1394
 4483SOL    HW113830   0.032   1.656   4.870 -0.0652 -0.5080  0.8584
 4483SOL    HW213831   0.172   1.649   4.813  0.2646 -1.3132  1.7684
 4484SOL     OW13832   5.984   6.221   4.791  0.2021 -0.5704 -0.7889
 4484SOL    HW113833   5.920   6.226   4.720 -0.5247  2.0841 -0.0364
 4484SOL    HW213834   5.940   6.169   4.859 -0.7288  0.2901 -0.7188
 4485SOL     OW13835   3.530   0.906   5.678  0.4341 -0.9067  0.0747
 4485SOL    HW113836   3.511   0.943   5.764  0.4769 -2.6020  0.8427
 4485SOL    HW213837   3.461   0.840   5.665  0.9657 -1.2970 -0.7854
 4486SOL     OW13838   3.923   4.008   2.000 -0.1688  0.2881 -0.4014
 4486SOL    HW113839   3.937   4.093   2.042  0.7427 -0.6272  1.1963
 4486SOL    HW213840   4.011   3.975   1.982 -0.5323 -0.0692 -1.5413
 4487SOL     OW13841   6.313   5.635   0.003 -0.5869  0.0921  0.2741
 4487SOL    HW113842   6.331   5.702  -0.063  1.4674 -0.2929  0.4249
 4487SOL    HW213843   6.393   5.629   0.054 -1.3921 -1.1937  1.4272
 4488SOL     OW13844   0.121   3.139   3.660 -0.2477 -0.6622 -0.1052
 4488SOL    HW113845   0.108   3.221   3.708  0.1738 -0.2940 -0.6100
 4488SOL    HW213846   0.066   3.148   3.582  0.2924 -0.5771 -0.4855
 4489SOL     OW13847   0.253   6.242   0.929  0.0095 -0.6976  0.9219
 4489SOL    HW113848   0.249   6.147   0.918  0.7553 -0.7244  0.8927
 4489SOL    HW213849   0.341   6.259   0.962  0.4955  0.1597 -0.7837
 4490SOL     OW13850   2.036   3.231   1.425  0.1002 -0.1779 -0.0862
 4490SOL    HW113851   2.046   3.179   1.346  1.2916  0.3583 -0.2955
 4490SOL    HW213852   1.947   3.267   1.419  1.3181  2.6430 -2.9040
 4491SOL     OW13853   2.423   2.786   4.429  0.0949  0.2111 -0.2613
 4491SOL    HW113854   2.340   2.753   4.394 -0.0817 -0.1293  0.4555
 4491SOL    HW213855   2.399   2.866   4.476  0.5345  1.3941 -2.0499
 4492SOL     OW13856   5.543   6.111   4.008  0.1250  0.6729  0.8583
 4492SOL    HW113857   5.550   6.066   3.924 -0.4544  1.5449  0.3271
 4492SOL    HW213858   5.452   6.141   4.011  0.5949  2.1106  1.0218
 4493SOL     OW13859   6.247   1.998   2.935 -0.4380  0.2407  0.1223
 4493SOL    HW113860   6.197   1.928   2.891 -1.8587  2.0225 -1.1958
 4493SOL    HW213861   6.314   2.023   2.871  0.0061  0.1605  0.5549
 4494SOL     OW13862   1.853   1.914   5.562  0.2410 -0.0334 -0.5443
 4494SOL    HW113863   1.886   1.955   5.641 -1.3525 -0.7974  0.5467
 4494SOL    HW213864   1.778   1.968   5.536 -1.1009 -1.4899  0.2054
 4495SOL     OW13865   2.268   3.647   4.444  0.2400 -0.2317 -0.0846
 4495SOL    HW113866   2.284   3.562   4.484 -0.5203 -0.7415 -0.8411
 4495SOL    HW213867   2.283   3.710   4.514  0.0091 -1.0364  0.6935
 4496SOL     OW13868   2.485   3.401   2.399  0.7839  0.6511  0.2556
 4496SOL    HW113869   2.503   3.422   2.307 -1.0818  0.9695 -0.0679
 4496SOL    HW213870   2.515   3.311   2.409 -4.2447 -1.4919 -2.3210
 4497SOL     OW13871   5.453   5.963   4.521 -0.2294  0.1568  0.3767
 4497SOL    HW113872   5.408   5.974   4.605 -0.3345  0.4484  0.2837
 4497SOL    HW213873   5.385   5.932   4.461 -0.6952  2.1061 -0.1541
 4498SOL     OW13874   3.041   2.696   3.672 -0.5320  0.0341  0.1128
 4498SOL    HW113875   3.059   2.786   3.646  0.4887 -0.4545 -0.9174
 4498SOL    HW213876   3.109   2.644   3.630 -2.0141 -1.4082 -0.5855
 4499SOL     OW13877   5.222   0.355   5.034 -0.5323  0.4728 -0.0025
 4499SOL    HW113878   5.310   0.372   5.067 -0.7183  1.2894  0.0587
 4499SOL    HW213879   5.165   0.372   5.108 -0.5540 -2.6480  0.7835
 4500SOL     OW13880   5.194   0.631   3.561 -0.1288 -0.5223 -0.0952
 4500SOL    HW113881   5.103   0.661   3.552  0.2417  0.5955 -0.1335
 4500SOL    HW213882   5.199   0.555   3.503 -0.0660  1.5936 -2.9600
 4501SOL     OW13883   2.452   1.486   2.048  0.1368 -0.1773 -0.3226
 4501SOL    HW113884   2.370   1.518   2.085  1.0698  0.1513  1.4830
 4501SOL    HW213885   2.492   1.563   2.007 -0.8866 -0.5399 -2.0888
 4502SOL     OW13886   5.820   6.011   6.273  0.3391 -0.0040  0.1014
 4502SOL    HW113887   5.914   6.011   6.287  0.5962 -1.7078 -1.4356
 4502SOL    HW213888   5.790   5.929   6.312 -0.8339  1.4930  2.4492
 4503SOL     OW13889   0.753   1.268   5.190  0.5353 -0.0119  0.4382
 4503SOL    HW113890   0.793   1.352   5.168  0.3309 -0.2538 -0.9128
 4503SOL    HW213891   0.661   1.278   5.163  0.8599 -1.1846 -1.1814
 4504SOL     OW13892   5.955   1.438   3.105 -0.5523  0.0442 -0.0332
 4504SOL    HW113893   5.945   1.392   3.188  0.2257  1.6410  0.9474
 4504SOL    HW213894   5.890   1.508   3.109 -0.9499 -0.2499 -1.0598
 4505SOL     OW13895   0.732   4.062   3.627 -0.0962  0.5880 -0.4121
 4505SOL    HW113896   0.805   4.031   3.682 -0.6770 -0.4877 -0.2383
 4505SOL    HW213897   0.753   4.154   3.610  0.3167  0.8198  1.2589
 4506SOL     OW13898   4.830   3.798   1.900  0.1136 -0.2565  0.2088
 4506SOL    HW113899   4.866   3.882   1.927  0.4199 -0.3525  0.1073
 4506SOL    HW213900   4.764   3.819   1.834 -1.1821  0.0315  1.5806
 4507SOL     OW13901   0.752   3.615   3.266  0.1733  0.4176  0.5242
 4507SOL    HW113902   0.671   3.584   3.307 -0.5925  1.1974 -0.3885
 4507SOL    HW213903   0.740   3.709   3.254 -0.3980 -0.0571 -3.1560
 4508SOL     OW13904   3.310   5.157   5.782 -0.6118 -0.3950  0.3700
 4508SOL    HW113905   3.307   5.061   5.782  1.3085 -0.4760  0.5826
 4508SOL    HW213906   3.276   5.183   5.867 -3.3607 -0.7748 -0.5699
 4509SOL     OW13907   6.011   0.337   0.967 -0.3908  0.0957  0.1545
 4509SOL    HW113908   6.094   0.337   1.016  0.7369 -1.6615 -1.6986
 4509SOL    HW213909   5.956   0.276   1.016  0.3885 -0.8903 -0.1729
 4510SOL     OW13910   3.303   0.391   5.953 -0.1971  0.2886  0.1110
 4510SOL    HW113911   3.221   0.435   5.977 -0.9159 -0.5504 -0.7316
 4510SOL    HW213912   3.280   0.298   5.950  0.7344  0.0654 -0.3388
 4511SOL     OW13913   1.227   1.984   4.383 -0.4064  0.0416 -0.3993
 4511SOL    HW113914   1.313   2.014   4.413 -0.7005  0.3718  0.1073
 4511SOL    HW213915   1.247   1.931   4.306  0.2021  0.7168 -0.7240
 4512SOL     OW13916   5.653   0.622   5.522  0.6004 -0.1441 -0.2703
 4512SOL    HW113917   5.706   0.692   5.561  0.1531 -0.2592  0.5611
 4512SOL    HW213918   5.648   0.555   5.591 -0.5403 -0.1734 -0.3738
 4513SOL     OW13919   3.079   4.189   4.477 -0.1289  0.4604  0.0692
 4513SOL    HW113920   3.104   4.266   4.529  1.4859 -0.8693  1.3109
 4513SOL    HW213921   2.989   4.170   4.505 -0.1446  1.2475  0.5788
 4514SOL     OW13922   2.752   0.144   3.883 -0.2999 -0.3163  0.0788
 4514SOL    HW113923   2.847   0.154   3.891  0.0935 -3.3673 -0.4109
 4514SOL    HW213924   2.735   0.053   3.907 -3.2174  0.4409  1.0084
 4515SOL     OW13925   5.657   3.494   3.961 -0.3582 -0.1704  0.6551
 4515SOL    HW113926   5.746   3.461   3.972 -0.4020 -0.7215 -0.5622
 4515SOL    HW213927   5.606   3.449   4.029  0.6183  1.5144  2.5456
 4516SOL     OW13928   3.230   5.301   1.013 -0.9276  0.0909 -0.1902
 4516SOL    HW113929   3.137   5.303   1.035 -0.8467  2.9863  0.1346
 4516SOL    HW213930   3.233   5.303   0.918 -1.1930  0.0894 -0.1979
 4517SOL     OW13931   6.295   5.121   1.412  0.7712 -0.2740  0.0206
 4517SOL    HW113932   6.345   5.187   1.460  0.1089 -0.1542  0.5572
 4517SOL    HW213933   6.214   5.166   1.388  0.5256 -0.7428 -0.0396
 4518SOL     OW13934   6.010   4.951   1.659 -0.2654 -0.4092 -0.6437
 4518SOL    HW113935   6.000   4.947   1.564  1.6203  0.3961 -0.8866
 4518SOL    HW213936   6.100   4.922   1.675 -0.5919 -0.5896  0.8930
 4519SOL     OW13937   0.542   3.588   0.056 -0.1273 -0.1732 -0.4196
 4519SOL    HW113938   0.486   3.512   0.041  0.5851 -1.1575  1.8562
 4519SOL    HW213939   0.623   3.568   0.008 -0.8229  0.2483 -1.8137
 4520SOL     OW13940   6.187   6.369   5.235  0.1902  1.2730 -0.0837
 4520SOL    HW113941   6.106   6.318   5.237  1.7549 -1.4059 -1.9323
 4520SOL    HW213942   6.222   6.361   5.324 -0.7383  1.0552  0.2720
 4521SOL     OW13943   6.357   2.641   4.686 -0.3342  0.2954 -0.1008
 4521SOL    HW113944   6.414   2.711   4.720 -0.1569  1.3821 -2.5183
 4521SOL    HW213945   6.302   2.685   4.621 -2.7151 -1.1241  0.9224
 4522SOL     OW13946   1.883   3.691   0.284 -0.1913 -0.2460 -0.2754
 4522SOL    HW113947   1.911   3.737   0.205  1.0124 -2.6654 -1.3325
 4522SOL    HW213948   1.789   3.680   0.273 -0.0313 -0.5900 -1.4126
 4523SOL     OW13949   0.477   1.734   6.017 -0.1473  0.1164 -0.0863
 4523SOL    HW113950   0.443   1.725   6.106 -3.1607  0.7680 -1.1044
 4523SOL    HW213951   0.515   1.822   6.015 -2.2637  1.0644 -0.0880
 4524SOL     OW13952   1.774   3.937   4.947  0.6714  0.2911  0.2208
 4524SOL    HW113953   1.797   3.852   4.909 -0.8925 -0.2103  0.3466
 4524SOL    HW213954   1.833   3.947   5.021  1.6091 -0.1819 -0.4519
 4525SOL     OW13955   4.974   2.155   2.264  0.1507 -0.5312 -0.4116
 4525SOL    HW113956   4.899   2.173   2.207 -0.7064 -1.0638  0.5107
 4525SOL    HW213957   4.962   2.063   2.289  0.4879 -0.2950  0.6421
 4526SOL     OW13958   5.086   4.353   0.064 -0.1266 -0.3728  0.0792
 4526SOL    HW113959   5.170   4.397   0.069 -0.2485 -0.0320 -0.7726
 4526SOL    HW213960   5.092   4.297  -0.013 -1.5912  1.6290 -1.5540
 4527SOL     OW13961   0.882   5.389   0.769 -0.1084  0.3289  0.6605
 4527SOL    HW113962   0.919   5.317   0.819  2.3950  1.3026  0.2587
 4527SOL    HW213963   0.810   5.422   0.823  0.1792 -1.0005  1.8706
 4528SOL     OW13964   0.616   4.990   4.611  0.2746 -0.2294 -0.5749
 4528SOL    HW113965   0.654   5.066   4.567 -0.8660  0.6037 -0.1431
 4528SOL    HW213966   0.569   5.027   4.686  0.8159 -1.4797  0.4017
 4529SOL     OW13967   3.329   3.895   3.750 -0.3124 -0.7369  0.0230
 4529SOL    HW113968   3.273   3.966   3.718  0.6241 -0.4371 -0.9922
 4529SOL    HW213969   3.384   3.935   3.816 -1.5261 -1.1170  1.2970
 4530SOL     OW13970   1.714   0.532   2.065 -0.0587  0.4062  0.5338
 4530SOL    HW113971   1.644   0.478   2.030  0.6314  0.9413 -1.7683
 4530SOL    HW213972   1.677   0.574   2.142 -2.4137  1.0427 -0.9098
 4531SOL     OW13973   4.357   1.088   5.294 -0.3030 -0.2082  0.0155
 4531SOL    HW113974   4.315   1.150   5.354 -0.6720  1.7847 -2.2081
 4531SOL    HW213975   4.297   1.084   5.218  2.5188  1.2672 -2.3990
 4532SOL     OW13976   4.864   1.386   4.217 -0.0977 -0.3805 -0.1966
 4532SOL    HW113977   4.884   1.379   4.124  0.6863  0.4941 -0.1052
 4532SOL    HW213978   4.948   1.375   4.262 -0.0493  1.6241  0.2686
 4533SOL     OW13979   2.757   1.748   1.486 -0.1927  0.6251  0.0789
 4533SOL    HW113980   2.755   1.769   1.580  0.1767 -0.2504  0.2915
 4533SOL    HW213981   2.833   1.690   1.476 -0.1335  0.8444 -0.7902
 4534SOL     OW13982   5.724   3.129   6.349  0.0845 -0.7536 -0.0883
 4534SOL    HW113983   5.760   3.043   6.372 -1.9322 -0.9268  2.6948
 4534SOL    HW213984   5.694   3.165   6.432 -0.3725  2.0710 -1.4283
 4535SOL     OW13985   0.779   4.978   2.085  0.1891  0.4051  0.0773
 4535SOL    HW113986   0.742   5.048   2.139 -1.3845  0.0505 -0.5239
 4535SOL    HW213987   0.812   5.023   2.007 -0.0839  0.5642  0.0552
 4536SOL     OW13988   0.338   2.061   6.092 -0.4159 -0.6461  0.3155
 4536SOL    HW113989   0.353   2.055   6.186 -1.9197 -0.0583  0.5985
 4536SOL    HW213990   0.414   2.018   6.053 -1.6084 -4.3302  1.8600
 4537SOL     OW13991   3.882   2.387   5.264 -0.0699 -0.0308 -0.3640
 4537SOL    HW113992   3.862   2.403   5.172  0.6932  1.9431 -0.1962
 4537SOL    HW213993   3.796   2.386   5.307 -0.4294 -0.9921 -1.0877
 4538SOL     OW13994   2.235   1.384   5.451 -0.1354  0.3154 -0.0321
 4538SOL    HW113995   2.168   1.367   5.517 -1.5573  0.4294 -1.4458
 4538SOL    HW213996   2.259   1.476   5.465  0.6614 -0.0675  1.2874
 4539SOL     OW13997   3.986   1.440   1.489 -0.3629  0.2646  0.7430
 4539SOL    HW113998   3.919   1.373   1.504 -0.9894  0.6668 -0.1971
 4539SOL    HW213999   4.031   1.411   1.410  0.1370  0.3465  0.9956
 4540SOL     OW14000   4.086   1.465   6.060 -0.2814  0.1419 -0.1127
 4540SOL    HW114001   4.108   1.514   6.140 -0.7341 -0.8959  0.6538
 4540SOL    HW214002   4.098   1.529   5.989  0.5553  0.9437  0.7370
 4541SOL     OW14003   5.604   0.543   0.288  0.2156  0.7958 -0.0024
 4541SOL    HW114004   5.514   0.512   0.288  0.2920  0.5210  1.1879
 4541SOL    HW214005   5.638   0.517   0.374  1.7400 -0.0329 -0.8279
 4542SOL     OW14006   1.725   3.490   2.836  0.2224  0.1239 -0.1276
 4542SOL    HW114007   1.753   3.428   2.903 -0.4150 -2.4743 -2.1996
 4542SOL    HW214008   1.648   3.533   2.874  0.0701 -1.0719  0.9486
 4543SOL     OW14009   2.490   3.171   3.895 -0.3959  0.2419 -0.6283
 4543SOL    HW114010   2.583   3.191   3.905 -0.4814  0.3003  0.0661
 4543SOL    HW214011   2.488   3.094   3.839  0.0626  0.3563 -0.8056
 4544SOL     OW14012   1.968   6.133   3.046  0.2101  0.0225  0.2624
 4544SOL    HW114013   1.965   6.051   2.997 -0.3909 -0.5939  1.3087
 4544SOL    HW214014   1.903   6.189   3.003 -0.5622 -0.6333  0.5739
 4545SOL     OW14015   1.131   2.917   3.196  0.1604  0.0789  0.3543
 4545SOL    HW114016   1.121   2.853   3.126 -2.4127 -0.7903  1.4302
 4545SOL    HW214017   1.074   2.885   3.266  0.4705  2.4216  1.7444
 4546SOL     OW14018   3.612   4.573   4.672 -0.8864 -0.0922 -0.1626
 4546SOL    HW114019   3.610   4.485   4.635  2.2174  0.5016 -1.8808
 4546SOL    HW214020   3.623   4.631   4.597 -1.1505  1.6375  1.0951
 4547SOL     OW14021   2.107   1.548   6.174 -0.1248  0.3838  0.3702
 4547SOL    HW114022   2.143   1.636   6.163  2.6677 -0.8905 -1.1792
 4547SOL    HW214023   2.125   1.525   6.265  0.7184  0.7178  0.2876
 4548SOL     OW14024   5.385   1.609   0.699  0.2194 -0.7832  0.3661
 4548SOL    HW114025   5.446   1.565   0.640 -0.6692 -2.9894  0.9980
 4548SOL    HW214026   5.302   1.562   0.686 -0.2059 -0.7571  2.7113
 4549SOL     OW14027   4.776   1.171   1.270 -0.4780 -0.8418 -0.3966
 4549SOL    HW114028   4.860   1.191   1.230 -0.7742  0.3488 -0.4500
 4549SOL    HW214029   4.779   1.215   1.356 -1.7635  0.8245 -1.1730
 4550SOL     OW14030   4.074   0.430   4.786 -0.0424 -0.3570  0.0991
 4550SOL    HW114031   4.093   0.440   4.693 -0.1625 -0.7631  0.0313
 4550SOL    HW214032   4.157   0.452   4.830 -0.3956  1.3310 -0.0206
 4551SOL     OW14033   2.900   0.551   1.319  0.0991  0.4696 -0.2821
 4551SOL    HW114034   2.858   0.623   1.271  0.7625  1.3279  0.4089
 4551SOL    HW214035   2.913   0.585   1.407  2.0323  0.1479 -0.4237
 4552SOL     OW14036   3.395   0.591   3.147 -0.0309 -0.5561 -0.0681
 4552SOL    HW114037   3.448   0.518   3.115  3.1930  2.0512 -1.1421
 4552SOL    HW214038   3.450   0.632   3.214 -1.7538  0.8672  0.5026
 4553SOL     OW14039   3.432   2.608   1.535 -0.2472  0.1615  0.1299
 4553SOL    HW114040   3.440   2.701   1.552  2.2771  0.4284 -2.1910
 4553SOL    HW214041   3.441   2.567   1.621 -0.0124  1.9910  0.9963
 4554SOL     OW14042   1.486   3.747   4.451  0.3889 -0.4381  0.9526
 4554SOL    HW114043   1.488   3.695   4.530 -0.1947  0.7434  1.7578
 4554SOL    HW214044   1.479   3.838   4.482  0.5872  0.0629 -0.4282
 4555SOL     OW14045   0.104   4.344   0.253 -0.4813 -0.1518  0.1610
 4555SOL    HW114046   0.169   4.394   0.203 -0.1677  0.2952  1.0009
 4555SOL    HW214047   0.148   4.322   0.335 -1.0644 -0.6790  0.3395
 4556SOL     OW14048   3.376   6.223   4.045 -0.0387  0.3407  0.4917
 4556SOL    HW114049   3.332   6.177   4.116  0.4987 -2.4227 -0.9097
 4556SOL    HW214050   3.460   6.177   4.036  0.3743  1.3996 -1.1613
 4557SOL     OW14051   1.266   0.919   4.602 -0.0645 -0.1750  0.3360
 4557SOL    HW114052   1.333   0.986   4.587 -1.0750  0.8863  0.5365
 4557SOL    HW214053   1.190   0.949   4.552 -0.2616 -1.6023 -0.2588
 4558SOL     OW14054   1.150   2.083   2.746  0.2285  0.3351  0.3582
 4558SOL    HW114055   1.104   2.022   2.689 -1.0439  0.2055  1.4861
 4558SOL    HW214056   1.172   2.157   2.689  0.1819 -0.3836 -0.6029
 4559SOL     OW14057   1.097   2.443   2.739 -0.3994 -0.5652  0.5978
 4559SOL    HW114058   1.128   2.437   2.648  0.6281 -0.2181  0.9173
 4559SOL    HW214059   1.028   2.377   2.745  1.0383 -2.1485  0.1629
 4560SOL     OW14060   4.947   4.473   1.756 -0.2804 -0.3494 -0.1008
 4560SOL    HW114061   4.999   4.448   1.832  0.7485 -0.0437 -0.6873
 4560SOL    HW214062   5.010   4.512   1.696 -1.0761 -0.6013 -1.1212
 4561SOL     OW14063   0.882   4.267   3.289  0.1240  0.3647  0.1710
 4561SOL    HW114064   0.956   4.214   3.317 -0.3798 -0.2805  0.2831
 4561SOL    HW214065   0.805   4.214   3.310 -0.2384 -0.8657 -3.9409
 4562SOL     OW14066   6.149   5.992   1.004  0.1332  0.1888 -0.5049
 4562SOL    HW114067   6.141   5.932   0.930  1.5198  0.5363 -0.9496
 4562SOL    HW214068   6.143   6.080   0.965  1.1234  0.3759 -0.2546
 4563SOL     OW14069   4.820   3.596   3.655  0.2479  0.5252 -0.2076
 4563SOL    HW114070   4.850   3.565   3.570 -0.2928  0.3650 -0.3425
 4563SOL    HW214071   4.886   3.564   3.717  1.6280  2.2018 -0.7746
 4564SOL     OW14072   5.126   0.405   3.392  0.3702  0.1678 -0.5395
 4564SOL    HW114073   5.127   0.318   3.353  2.5541 -0.1800  0.2008
 4564SOL    HW214074   5.104   0.464   3.320 -0.1531 -0.9009 -1.2553
 4565SOL     OW14075   0.151   2.911   0.349 -0.1542  0.0542  0.6606
 4565SOL    HW114076   0.134   2.819   0.328  0.9923 -0.1579  0.6020
 4565SOL    HW214077   0.243   2.912   0.376 -0.5294  0.9739  1.8993
 4566SOL     OW14078   0.283   5.587   1.691  0.4990 -0.1986  0.0031
 4566SOL    HW114079   0.212   5.543   1.737 -0.2214 -1.0219 -1.8520
 4566SOL    HW214080   0.296   5.668   1.740 -1.6711 -0.0659  0.4423
 4567SOL     OW14081   3.424   5.987   4.984  0.4028  0.0403  0.1311
 4567SOL    HW114082   3.444   5.961   5.074 -0.0548  1.7096  0.7288
 4567SOL    HW214083   3.344   6.039   4.991 -0.6826 -1.3736 -1.4768
 4568SOL     OW14084   1.497   0.731   6.350 -0.0075 -0.0370  0.3977
 4568SOL    HW114085   1.553   0.770   6.283  1.3507 -1.4719  0.6585
 4568SOL    HW214086   1.437   0.801   6.375  0.2154  0.8516 -1.4924
 4569SOL     OW14087   0.515   0.269   6.292 -0.1809  0.6552 -0.1439
 4569SOL    HW114088   0.445   0.301   6.350 -0.0997 -0.0872  0.3595
 4569SOL    HW214089   0.560   0.349   6.264 -1.0933  1.1297 -0.3052
 4570SOL     OW14090   4.157   4.499   2.716 -0.2597 -0.3871  0.1602
 4570SOL    HW114091   4.175   4.487   2.622 -0.3608 -0.6209  0.1721
 4570SOL    HW214092   4.077   4.450   2.732 -1.3340  1.2583 -0.0435
 4571SOL     OW14093   5.174   0.122   0.345 -0.0813  0.0853  0.1994
 4571SOL    HW114094   5.167   0.108   0.439 -0.9745 -0.7773  0.0169
 4571SOL    HW214095   5.250   0.178   0.334  1.6108 -1.9210  1.2427
 4572SOL     OW14096   5.732   5.988   4.552 -0.1021  0.7088 -0.1164
 4572SOL    HW114097   5.639   5.969   4.564  0.1690 -0.9636 -0.5152
 4572SOL    HW214098   5.753   5.949   4.467  1.7062 -1.8051  1.4391
 4573SOL     OW14099   4.730   1.891   3.613  0.2921 -0.6627  0.3612
 4573SOL    HW114100   4.771   1.805   3.619 -0.6336 -1.2369 -1.2295
 4573SOL    HW214101   4.802   1.953   3.627  1.4469 -1.6609 -1.0049
 4574SOL     OW14102   2.454   3.138   0.979 -0.3399 -0.1139  0.0032
 4574SOL    HW114103   2.499   3.068   1.027  1.5129  0.0317 -1.4214
 4574SOL    HW214104   2.516   3.211   0.982 -1.1981  0.6373 -0.6151
 4575SOL     OW14105   1.713   5.787   3.488 -0.0140 -0.1188 -0.6751
 4575SOL    HW114106   1.761   5.712   3.452 -0.8661 -0.9481 -0.1045
 4575SOL    HW214107   1.625   5.753   3.506  0.2882  0.3688  1.8509
 4576SOL     OW14108   2.819   5.130   2.547 -0.6377  0.1797  0.3607
 4576SOL    HW114109   2.791   5.056   2.600 -2.4947  0.4336 -0.2207
 4576SOL    HW214110   2.788   5.207   2.595 -1.9789  0.4241 -0.8533
 4577SOL     OW14111   5.188   3.031   4.865  0.7815  0.3817 -0.0642
 4577SOL    HW114112   5.177   3.030   4.769  0.2405  0.2027 -0.0019
 4577SOL    HW214113   5.259   2.970   4.881  0.0731 -0.5089 -0.2578
 4578SOL     OW14114   0.470   1.274   2.383 -0.5400  0.1364 -0.0658
 4578SOL    HW114115   0.457   1.233   2.468  0.3588 -1.0354 -0.4752
 4578SOL    HW214116   0.563   1.260   2.364 -0.9043 -0.2726 -1.5775
 4579SOL     OW14117   5.302   2.330   6.161 -0.1608  0.2898  0.4456
 4579SOL    HW114118   5.243   2.406   6.158 -0.7923 -0.2330 -0.5553
 4579SOL    HW214119   5.246   2.256   6.184  0.2660 -0.0599  0.3783
 4580SOL     OW14120   6.056   4.974   6.287  0.4311  0.1570  0.1396
 4580SOL    HW114121   6.017   5.029   6.218  0.7990  1.0947  0.6693
 4580SOL    HW214122   6.136   5.020   6.312  0.2710 -0.1356  1.2297
 4581SOL     OW14123   5.722   6.294   5.032 -0.4300  0.1787 -0.0107
 4581SOL    HW114124   5.759   6.211   5.002 -2.1593 -0.1840 -1.1834
 4581SOL    HW214125   5.727   6.352   4.956  0.1372  0.9547  0.6030
 4582SOL     OW14126   2.280   0.511   2.646 -0.1435  1.0026  0.3900
 4582SOL    HW114127   2.204   0.494   2.702 -0.0726  1.6779  0.6899
 4582SOL    HW214128   2.356   0.502   2.704  0.2101 -2.4030 -0.4828
 4583SOL     OW14129   3.730   0.737   3.734 -0.4529 -0.0984  0.3546
 4583SOL    HW114130   3.770   0.780   3.810  0.6440 -0.5937  0.0655
 4583SOL    HW214131   3.724   0.645   3.758 -3.1748  0.2227  1.1300
 4584SOL     OW14132   4.725   3.795   5.428 -0.4127  0.1776  0.1935
 4584SOL    HW114133   4.630   3.803   5.431 -0.3672  1.1559 -0.6356
 4584SOL    HW214134   4.755   3.877   5.389  0.7812 -0.0594  0.5902
 4585SOL     OW14135   3.439   2.023   1.386 -0.9325  0.1698 -0.6915
 4585SOL    HW114136   3.362   2.078   1.401 -1.8803 -0.5008 -3.0331
 4585SOL    HW214137   3.482   2.062   1.310  0.5337 -0.0358  0.0070
 4586SOL     OW14138   5.662   6.021   1.752  0.3031  0.5914  0.2268
 4586SOL    HW114139   5.572   6.045   1.730  0.5253  0.0406 -1.4154
 4586SOL    HW214140   5.711   6.035   1.671  1.5804  0.3150  0.9262
 4587SOL     OW14141   3.702   1.983   2.782  0.1961  0.7117 -0.7153
 4587SOL    HW114142   3.717   2.069   2.819 -1.5458  1.3784 -1.4982
 4587SOL    HW214143   3.693   1.925   2.858  3.7752  0.7194 -0.1895
 4588SOL     OW14144   5.759   3.824   3.522 -0.0701 -0.1362  0.5370
 4588SOL    HW114145   5.711   3.766   3.463  1.2405 -0.8455  0.1312
 4588SOL    HW214146   5.795   3.891   3.465  1.4700 -1.0037  0.4519
 4589SOL     OW14147   5.658   0.441   4.689 -0.0134 -0.2498 -1.1201
 4589SOL    HW114148   5.747   0.443   4.653  1.1383  1.3791  1.7309
 4589SOL    HW214149   5.607   0.498   4.631  1.1459  0.0718 -1.8364
 4590SOL     OW14150   3.642   1.982   4.297 -0.2599 -0.1774  0.3162
 4590SOL    HW114151   3.707   1.932   4.346  0.5399  1.4076  0.9126
 4590SOL    HW214152   3.561   1.931   4.306  0.6660 -1.6523  0.4035
 4591SOL     OW14153   4.524   1.663   1.053 -0.1899 -0.5674 -0.0192
 4591SOL    HW114154   4.616   1.689   1.062 -0.4729  0.2132  0.6482
 4591SOL    HW214155   4.517   1.581   1.101 -0.1014 -0.0201  0.9464
 4592SOL     OW14156   0.254   2.428   1.831  0.3415 -0.0013 -0.4377
 4592SOL    HW114157   0.240   2.334   1.845 -0.9427 -0.0621 -2.0385
 4592SOL    HW214158   0.335   2.432   1.780  0.7169 -0.1975  0.1334
 4593SOL     OW14159   1.814   1.180   5.187 -0.1016 -0.1297  0.1905
 4593SOL    HW114160   1.783   1.263   5.152  0.5240 -0.1865 -0.5307
 4593SOL    HW214161   1.891   1.204   5.240  0.2388 -0.2706 -0.2349
 4594SOL     OW14162   5.231   0.218   5.288  0.2013 -0.1555  0.2167
 4594SOL    HW114163   5.214   0.181   5.375  0.1999 -0.6520  0.0056
 4594SOL    HW214164   5.201   0.309   5.294 -0.6120 -0.4386  0.4702
 4595SOL     OW14165   5.196   4.715   2.022  0.3714 -0.6160  0.0131
 4595SOL    HW114166   5.164   4.746   1.937 -0.0499  0.7136  0.6489
 4595SOL    HW214167   5.292   4.718   2.014  0.3301  0.7981  0.0500
 4596SOL     OW14168   3.698   2.462   4.023  0.2715  0.4111  0.3512
 4596SOL    HW114169   3.611   2.439   4.057  0.8457  0.6593  2.0378
 4596SOL    HW214170   3.740   2.509   4.095  2.2428 -0.7508 -0.0044
 4597SOL     OW14171   0.590   3.675   1.669  0.1320 -0.0439 -0.2306
 4597SOL    HW114172   0.531   3.607   1.701 -0.5399  0.1343 -1.0358
 4597SOL    HW214173   0.611   3.727   1.746 -1.2773  0.2584 -0.0315
 4598SOL     OW14174   6.378   6.167   5.788  0.1813  0.2600  0.4461
 4598SOL    HW114175   6.409   6.076   5.789 -0.6131 -0.0168  0.3877
 4598SOL    HW214176   6.436   6.212   5.850  1.0096 -0.1372 -0.0210
 4599SOL     OW14177   5.528   1.812   5.244 -0.0658  0.1383  0.1983
 4599SOL    HW114178   5.540   1.718   5.232 -1.5464  0.0205 -0.4429
 4599SOL    HW214179   5.608   1.851   5.209  1.0542 -0.9390  1.5062
 4600SOL     OW14180   3.123   5.330   1.298  0.1128 -0.4002 -0.1064
 4600SOL    HW114181   3.075   5.264   1.247  0.5439 -0.7695 -0.0390
 4600SOL    HW214182   3.085   5.413   1.270 -0.9476 -0.7207  0.3576
 4601SOL     OW14183   4.987   0.963   2.747 -0.3624 -0.1712  0.1481
 4601SOL    HW114184   4.904   0.919   2.727 -0.1200 -0.6142  0.1078
 4601SOL    HW214185   5.024   0.913   2.820 -1.0955  1.2497  1.5339
 4602SOL     OW14186   0.144   4.632   2.356  0.4153  0.2718 -0.0093
 4602SOL    HW114187   0.138   4.543   2.390 -1.6402  0.5870  0.5541
 4602SOL    HW214188   0.147   4.622   2.261 -0.5326 -0.3831  0.0294
 4603SOL     OW14189   3.828   2.298   2.764  0.0904 -0.6297  0.2306
 4603SOL    HW114190   3.907   2.347   2.786  0.2613 -0.7223 -0.1679
 4603SOL    HW214191   3.793   2.269   2.849 -1.0954  1.8297  0.6444
 4604SOL     OW14192   2.175   4.128   3.826  0.9638  0.1473 -0.8851
 4604SOL    HW114193   2.187   4.201   3.765  2.6086 -0.2080 -1.0220
 4604SOL    HW214194   2.187   4.167   3.913 -2.0591  0.7891 -0.7065
 4605SOL     OW14195   3.148   3.825   1.412  0.2854 -0.2216 -0.0346
 4605SOL    HW114196   3.181   3.763   1.347 -0.5232  2.2673 -2.9150
 4605SOL    HW214197   3.221   3.885   1.427 -0.9079  1.8379 -2.0664
 4606SOL     OW14198   0.877   0.979   0.058  0.1483 -0.4662 -0.0595
 4606SOL    HW114199   0.870   0.891   0.097  1.5126  0.0417  1.3678
 4606SOL    HW214200   0.933   0.966  -0.018 -0.4151 -0.9940 -0.3960
 4607SOL     OW14201   3.259   2.082   4.200 -0.2816 -0.2019  0.0574
 4607SOL    HW114202   3.278   2.151   4.264  3.6609 -1.6742  0.6395
 4607SOL    HW214203   3.277   2.122   4.115 -2.2726  0.7600  0.0733
 4608SOL     OW14204   3.097   0.309   0.705 -0.3868  0.0666 -0.3799
 4608SOL    HW114205   3.120   0.232   0.757 -1.4396 -1.3780 -1.9994
 4608SOL    HW214206   3.123   0.383   0.760  1.4583 -1.4270  0.8417
 4609SOL     OW14207   2.936   6.201   1.887  0.2270 -0.0049  0.3864
 4609SOL    HW114208   3.003   6.268   1.892 -0.1972  0.5441 -1.1583
 4609SOL    HW214209   2.858   6.242   1.925  1.4299 -1.5831  4.8650
 4610SOL     OW14210   1.984   4.669   1.763 -0.6672  0.2219 -0.0374
 4610SOL    HW114211   2.069   4.663   1.806 -0.2996  2.2821 -0.4343
 4610SOL    HW214212   2.004   4.669   1.670 -1.0133  1.7576 -0.1174
 4611SOL     OW14213   5.299   3.304   2.904 -0.3187 -0.2238  0.1003
 4611SOL    HW114214   5.270   3.220   2.868  2.5761 -0.6262 -1.4979
 4611SOL    HW214215   5.313   3.359   2.827  0.5137  0.8002  0.9700
 4612SOL     OW14216   5.714   6.372   5.921 -0.2774 -0.1379  0.3964
 4612SOL    HW114217   5.717   6.277   5.926  0.9465 -0.1683 -0.6105
 4612SOL    HW214218   5.646   6.391   5.857  1.4613 -0.4466 -1.6186
 4613SOL     OW14219   3.680   4.266   6.082 -0.6066  0.1454  0.2506
 4613SOL    HW114220   3.636   4.186   6.052 -0.2976 -0.2499  0.8154
 4613SOL    HW214221   3.610   4.331   6.088 -1.0702 -0.3858  0.8227
 4614SOL     OW14222   0.723   0.906   0.641  0.0668  0.1954  0.6007
 4614SOL    HW114223   0.651   0.861   0.685 -0.3118 -0.1156 -0.3250
 4614SOL    HW214224   0.788   0.837   0.625  0.9432  0.6197  2.1503
 4615SOL     OW14225   1.139   0.994   1.676 -0.6281  0.1452  0.5588
 4615SOL    HW114226   1.143   1.049   1.598  0.2128  1.1659  1.2965
 4615SOL    HW214227   1.171   1.051   1.747  0.0630 -1.2259  1.3794
 4616SOL     OW14228   2.446   4.366   0.894  0.2651 -0.0504  0.0901
 4616SOL    HW114229   2.440   4.403   0.982 -0.9763  0.6960 -0.2829
 4616SOL    HW214230   2.454   4.272   0.908 -0.2396  0.0305  1.0011
 4617SOL     OW14231   2.272   3.020   3.255  0.3017  0.4684  0.3852
 4617SOL    HW114232   2.321   3.023   3.173 -0.4750  2.6960 -0.0452
 4617SOL    HW214233   2.336   3.040   3.323  1.0659 -1.9461  0.4039
 4618SOL     OW14234   0.794   0.326   0.225  0.0336  0.0739  0.1071
 4618SOL    HW114235   0.708   0.323   0.268 -0.1527  2.0222 -0.0801
 4618SOL    HW214236   0.801   0.242   0.180 -2.8787  0.8536 -1.9120
 4619SOL     OW14237   5.004   2.808   2.592  0.3646  0.2061 -0.3340
 4619SOL    HW114238   5.038   2.738   2.535 -0.0061  0.9266 -1.4714
 4619SOL    HW214239   4.909   2.800   2.583  0.3054  0.1900  0.3549
 4620SOL     OW14240   2.791   5.788   6.110 -0.1775 -0.5711  0.5296
 4620SOL    HW114241   2.875   5.766   6.150 -1.0949 -1.1028  2.2178
 4620SOL    HW214242   2.762   5.867   6.156 -1.0335 -0.9201  0.6078
 4621SOL     OW14243   3.759   2.605   1.580 -0.2687  0.5070  0.1429
 4621SOL    HW114244   3.790   2.521   1.546 -0.7145  0.4657 -0.1544
 4621SOL    HW214245   3.693   2.582   1.646 -0.4019  0.6254  0.0516
 4622SOL     OW14246   0.290   5.158   5.031 -0.6183  0.2168 -0.6155
 4622SOL    HW114247   0.286   5.130   5.122  0.6913 -2.3423 -1.3098
 4622SOL    HW214248   0.206   5.201   5.015 -1.2910 -0.2787  1.4645
 4623SOL     OW14249   0.037   2.420   5.875  0.3045 -0.6149 -0.0056
 4623SOL    HW114250  -0.020   2.375   5.937  0.1506 -0.2293  0.1360
 4623SOL    HW214251   0.111   2.361   5.863  1.1058  0.0041  1.7605
 4624SOL     OW14252   1.790   3.915   6.199 -0.2056 -0.1537 -0.1373
 4624SOL    HW114253   1.795   3.960   6.115  0.5807 -2.2741 -1.2497
 4624SOL    HW214254   1.698   3.886   6.204  0.0490 -1.1202 -0.8652
 4625SOL     OW14255   5.135   1.585   3.457 -0.1863 -0.2859 -0.4896
 4625SOL    HW114256   5.090   1.654   3.408 -1.9676 -0.0282  1.4280
 4625SOL    HW214257   5.226   1.613   3.459 -0.9604  2.3678  0.7323
 4626SOL     OW14258   2.473   5.044   5.080  0.1286 -0.0111 -0.1908
 4626SOL    HW114259   2.431   5.086   5.155  1.0671 -1.1780  1.0112
 4626SOL    HW214260   2.438   4.955   5.080  0.2107 -0.0466 -1.0764
 4627SOL     OW14261   5.853   2.635   1.471 -0.0207 -0.1772  0.3821
 4627SOL    HW114262   5.870   2.547   1.506 -1.5345 -0.6574 -0.0281
 4627SOL    HW214263   5.793   2.675   1.534  0.3316  0.3998  0.3516
 4628SOL     OW14264   0.916   1.715   5.433 -0.0190  0.0577  0.1140
 4628SOL    HW114265   0.906   1.792   5.489 -0.5935  0.6205 -0.7443
 4628SOL    HW214266   0.897   1.747   5.345  1.1806 -0.7434 -0.4550
 4629SOL     OW14267   0.139   4.220   5.311  0.5861 -0.0290  0.3021
 4629SOL    HW114268   0.117   4.213   5.404  1.9436 -1.8084  0.4965
 4629SOL    HW214269   0.063   4.183   5.266 -0.0795  0.8408  0.6866
 4630SOL     OW14270   2.528   0.126   0.515 -0.3923  0.1577 -0.2151
 4630SOL    HW114271   2.558   0.142   0.605 -1.3802 -1.1271  0.3684
 4630SOL    HW214272   2.608   0.110   0.465  0.1604  0.7924  0.4502
 4631SOL     OW14273   4.537   4.840   1.300  0.0116 -0.0376  0.4571
 4631SOL    HW114274   4.588   4.813   1.223 -1.4523 -2.0615  0.1614
 4631SOL    HW214275   4.571   4.926   1.322  0.6260  0.4820 -2.3325
 4632SOL     OW14276   4.560   6.361   5.018  0.1434  0.3495  0.2727
 4632SOL    HW114277   4.500   6.326   5.084  0.7464 -1.0743  0.0765
 4632SOL    HW214278   4.583   6.286   4.964  0.9829  1.1743 -0.5357
 4633SOL     OW14279   6.074   5.885   4.428  0.1594  0.0765 -0.0807
 4633SOL    HW114280   6.013   5.860   4.497  0.1968  0.0510 -0.0563
 4633SOL    HW214281   6.102   5.973   4.451  0.7301 -0.2068  0.3341
 4634SOL     OW14282   0.403   3.971   3.327 -0.2160 -0.0660 -0.0133
 4634SOL    HW114283   0.339   3.924   3.274 -0.0698  0.5925 -0.7907
 4634SOL    HW214284   0.378   3.952   3.418 -2.1792  1.0267 -0.2799
 4635SOL     OW14285   5.059   6.202   1.832 -0.7002  0.2898 -0.2951
 4635SOL    HW114286   5.046   6.109   1.847  0.9186 -0.0109 -0.6656
 4635SOL    HW214287   4.971   6.237   1.818 -1.3326 -1.1335  0.0746
 4636SOL     OW14288   1.669   2.421   5.293  0.1993  0.2515 -0.1106
 4636SOL    HW114289   1.670   2.418   5.389  0.5801 -0.0876 -0.1257
 4636SOL    HW214290   1.578   2.443   5.271 -0.0379 -0.2883  0.3113
 4637SOL     OW14291   3.851   5.290   3.257  0.0105 -0.2067  0.2512
 4637SOL    HW114292   3.856   5.249   3.171  0.3541  1.0720 -0.3468
 4637SOL    HW214293   3.849   5.384   3.239 -0.0748  0.0688  1.6305
 4638SOL     OW14294   1.372   0.054   2.703  0.1726 -0.4871  0.0343
 4638SOL    HW114295   1.310   0.040   2.774  0.4202  0.4838  0.4432
 4638SOL    HW214296   1.457   0.029   2.740  0.2857 -0.0881  0.0403
 4639SOL     OW14297   2.883   4.343   0.644  0.4068 -0.5843  0.1451
 4639SOL    HW114298   2.878   4.434   0.614 -0.3352 -0.5374  0.3882
 4639SOL    HW214299   2.937   4.298   0.578 -0.2834 -0.2453 -0.6586
 4640SOL     OW14300   2.467   0.905   5.811  0.2815 -0.1185 -0.5418
 4640SOL    HW114301   2.557   0.934   5.824 -0.3977  1.2591  1.3146
 4640SOL    HW214302   2.418   0.986   5.795 -1.0981 -0.5540  1.3477
 4641SOL     OW14303   4.499   1.228   0.736 -0.2005 -0.1045  0.6763
 4641SOL    HW114304   4.408   1.217   0.710 -0.5003  2.3064  0.6269
 4641SOL    HW214305   4.496   1.259   0.826  0.6805 -2.6113  1.6179
 4642SOL     OW14306   0.184   3.356   6.084  0.3171 -0.5489  0.7424
 4642SOL    HW114307   0.204   3.443   6.118  1.6280 -0.7095  0.3962
 4642SOL    HW214308   0.134   3.314   6.155  0.0419  0.3349  1.0732
 4643SOL     OW14309   3.699   3.400   3.637  0.0275 -0.5364  0.1918
 4643SOL    HW114310   3.689   3.426   3.728  0.0683  1.3522 -0.3253
 4643SOL    HW214311   3.618   3.354   3.616 -1.7780  2.5494  0.0467
 4644SOL     OW14312   0.672   4.285   1.793  0.3346 -0.1165 -0.2309
 4644SOL    HW114313   0.705   4.321   1.710 -0.6516  1.1295 -0.0996
 4644SOL    HW214314   0.618   4.355   1.829 -0.4587 -1.2221  0.7468
 4645SOL     OW14315   5.428   4.689   3.143 -0.0809 -0.0894  0.3257
 4645SOL    HW114316   5.522   4.681   3.128 -0.3793 -2.8942 -0.4179
 4645SOL    HW214317   5.415   4.780   3.170  2.5500  0.8910 -1.5722
 4646SOL     OW14318   2.444   2.453   2.659 -0.3861 -0.2793 -0.3554
 4646SOL    HW114319   2.351   2.443   2.641 -1.2217 -0.0235  3.4777
 4646SOL    HW214320   2.481   2.366   2.646 -1.2059 -0.4739 -1.4677
 4647SOL     OW14321   4.149   2.182   3.156 -0.1839  0.4405  0.6165
 4647SOL    HW114322   4.108   2.269   3.159 -0.9917  0.0468  1.3745
 4647SOL    HW214323   4.075   2.122   3.144  0.3440 -0.1631  0.3913
 4648SOL     OW14324   4.706   5.223   1.104 -0.3943 -0.1504 -0.5946
 4648SOL    HW114325   4.652   5.263   1.172  1.0022  0.9061 -0.0827
 4648SOL    HW214326   4.782   5.280   1.097  0.9999 -1.9688 -0.8094
 4649SOL     OW14327   1.630   3.538   3.373 -0.4825 -0.3088  0.1844
 4649SOL    HW114328   1.657   3.506   3.459  0.1407 -0.0434  0.0833
 4649SOL    HW214329   1.653   3.467   3.313  0.3662  0.0895  0.0408
 4650SOL     OW14330   5.194   5.463   1.030 -0.4053 -0.0087 -0.6721
 4650SOL    HW114331   5.252   5.539   1.026 -1.3844  0.7660 -0.4105
 4650SOL    HW214332   5.239   5.402   1.088  0.3107  0.4402 -0.7402
 4651SOL     OW14333   4.478   2.315   2.870  0.1145  0.0763 -0.1984
 4651SOL    HW114334   4.516   2.275   2.948 -2.4466 -0.1405  0.9615
 4651SOL    HW214335   4.410   2.255   2.841  0.0511  0.8621 -1.7822
 4652SOL     OW14336   3.850   0.467   3.707 -0.1614 -0.5139 -0.3074
 4652SOL    HW114337   3.940   0.471   3.676  0.2126  1.6897  0.9994
 4652SOL    HW214338   3.848   0.391   3.765  1.5861  1.0133  1.8196
 4653SOL     OW14339   5.298   1.159   4.161 -0.4642  0.6208 -0.6842
 4653SOL    HW114340   5.264   1.192   4.244  0.6739  2.3849 -0.8818
 4653SOL    HW214341   5.334   1.073   4.182 -1.1463  0.6000  0.4229
 4654SOL     OW14342   3.506   5.797   5.397  0.1191  0.1204  0.3819
 4654SOL    HW114343   3.423   5.840   5.379 -0.5290 -1.3278 -0.1197
 4654SOL    HW214344   3.546   5.783   5.311  1.1283  1.2718  0.6454
 4655SOL     OW14345   2.505   5.350   3.509 -0.0279 -0.0590 -0.1051
 4655SOL    HW114346   2.559   5.273   3.490 -0.5118 -0.2595 -0.6777
 4655SOL    HW214347   2.508   5.403   3.429 -1.8286 -0.7643 -0.6756
 4656SOL     OW14348   2.782   2.057   5.060 -0.6220 -0.3095 -0.3255
 4656SOL    HW114349   2.853   2.002   5.029  0.2610  0.3079  0.5685
 4656SOL    HW214350   2.706   1.998   5.064  0.0889 -1.2304 -0.2678
 4657SOL     OW14351   6.231   4.276   6.268 -0.3106  0.7931 -0.2810
 4657SOL    HW114352   6.209   4.351   6.213 -0.4307  1.5408  0.7839
 4657SOL    HW214353   6.199   4.200   6.219  2.5099  1.1497 -2.8027
 4658SOL     OW14354   3.586   5.216   2.658 -0.2535  0.0560  0.0525
 4658SOL    HW114355   3.588   5.267   2.739 -0.8621  0.1585  0.0019
 4658SOL    HW214356   3.493   5.208   2.637 -0.1531 -0.9300 -0.0274
 4659SOL     OW14357   6.294   5.804   3.177  0.2440 -0.9106  0.3275
 4659SOL    HW114358   6.324   5.811   3.268  0.3353 -0.9518  0.3001
 4659SOL    HW214359   6.223   5.741   3.181 -0.4298 -0.1534  0.5391
 4660SOL     OW14360   6.075   5.075   5.020 -0.5639  0.3239 -0.2341
 4660SOL    HW114361   6.024   5.104   5.095 -1.3699  0.3111 -0.7747
 4660SOL    HW214362   6.057   5.139   4.951  0.2974  0.4319 -0.3684
 4661SOL     OW14363   2.742   1.848   3.186 -0.4215 -0.6688 -0.2018
 4661SOL    HW114364   2.823   1.888   3.217 -0.4718  0.0749 -1.0407
 4661SOL    HW214365   2.768   1.761   3.156  0.0406 -0.4777 -0.3536
 4662SOL     OW14366   5.470   5.548   2.173 -0.0656 -0.3814  0.0626
 4662SOL    HW114367   5.470   5.455   2.193  2.2728 -0.3037  0.6232
 4662SOL    HW214368   5.446   5.553   2.080  0.3073 -1.5700 -0.1019
 4663SOL     OW14369   3.910   2.047   1.804 -0.2163 -0.2185 -0.0862
 4663SOL    HW114370   4.000   2.023   1.826 -0.2773  1.7984  2.5594
 4663SOL    HW214371   3.910   2.055   1.708  2.0222 -1.6698 -0.2430
 4664SOL     OW14372   3.734   4.611   3.918  0.1498  0.1635  0.0246
 4664SOL    HW114373   3.779   4.671   3.858 -1.0139  1.9756  0.9032
 4664SOL    HW214374   3.799   4.592   3.986  0.5325  0.3983 -0.2691
 4665SOL     OW14375   3.966   4.458   0.387  0.2921 -0.5484  0.4346
 4665SOL    HW114376   3.981   4.509   0.307 -0.3821 -0.4766  0.3578
 4665SOL    HW214377   3.931   4.521   0.450  1.2244 -0.5081  0.9278
 4666SOL     OW14378   0.210   0.005   3.820 -0.6425 -0.2361 -0.2278
 4666SOL    HW114379   0.147  -0.050   3.774 -0.2466  0.2633 -1.4015
 4666SOL    HW214380   0.166   0.089   3.830 -0.2605  0.0447 -0.8498
 4667SOL     OW14381   4.194   5.325   1.070 -0.6198 -0.3817  0.1930
 4667SOL    HW114382   4.124   5.267   1.101 -1.3926  0.4630  0.0480
 4667SOL    HW214383   4.155   5.372   0.996 -0.0394  0.4045  0.3819
 4668SOL     OW14384   2.432   0.377   1.709  0.0228 -0.4521  0.2161
 4668SOL    HW114385   2.467   0.370   1.798  1.2100  0.7495 -0.1431
 4668SOL    HW214386   2.502   0.417   1.658 -1.1610  0.1859 -0.9630
 4669SOL     OW14387   5.503   3.524   3.703 -0.0932 -0.1115 -0.3127
 4669SOL    HW114388   5.510   3.537   3.798  2.1901  0.5422 -0.5495
 4669SOL    HW214389   5.517   3.611   3.666 -2.6782 -0.0363 -1.2208
 4670SOL     OW14390   2.221   3.214   2.967  0.2957 -0.2516 -0.1155
 4670SOL    HW114391   2.128   3.236   2.976  0.3688 -1.2379  3.7358
 4670SOL    HW214392   2.267   3.296   2.983  0.1335 -0.1976  0.0808
 4671SOL     OW14393   3.867   4.898   3.343 -0.0452 -0.5384  0.1775
 4671SOL    HW114394   3.773   4.882   3.352  0.1254 -0.7605  1.6722
 4671SOL    HW214395   3.892   4.849   3.264 -0.9356 -1.5477  0.5050
 4672SOL     OW14396   1.012   5.800   0.371  0.3328  0.4759  0.2077
 4672SOL    HW114397   1.014   5.705   0.365  0.8043  0.5767 -1.2329
 4672SOL    HW214398   1.093   5.823   0.417  0.5099  0.2182  0.0229
 4673SOL     OW14399   1.847   4.527   4.753 -0.6338 -0.4904 -0.0284
 4673SOL    HW114400   1.794   4.598   4.790  2.4034  2.1652 -0.6050
 4673SOL    HW214401   1.856   4.549   4.660  0.7751 -1.3572 -0.1133
 4674SOL     OW14402   4.494   6.379   5.962 -0.3400 -0.0008  0.0688
 4674SOL    HW114403   4.399   6.382   5.960 -0.3322  1.0779  1.1150
 4674SOL    HW214404   4.516   6.353   6.051  0.3820  1.8631  0.4597
 4675SOL     OW14405   4.660   3.477   2.027  0.1647 -0.0678  0.2095
 4675SOL    HW114406   4.695   3.432   1.950 -0.2066 -1.7240  0.9896
 4675SOL    HW214407   4.567   3.454   2.028  0.0537  0.4065  0.8300
 4676SOL     OW14408   2.314   5.715   0.598  0.0229  0.0436 -0.7865
 4676SOL    HW114409   2.383   5.649   0.602 -0.2480 -0.2658 -1.2322
 4676SOL    HW214410   2.232   5.666   0.604 -0.2569  0.0555 -3.7961
 4677SOL     OW14411   5.191   3.567   4.788 -0.3590 -0.2274  0.0016
 4677SOL    HW114412   5.162   3.616   4.711 -0.6300  0.2819  0.4224
 4677SOL    HW214413   5.138   3.487   4.787 -0.5703 -0.0864 -0.1782
 4678SOL     OW14414   4.969   0.498   2.603  0.4667  0.4550 -0.2753
 4678SOL    HW114415   4.889   0.446   2.603  0.2631  0.7705 -0.1264
 4678SOL    HW214416   5.036   0.438   2.569 -0.0904  0.5955 -1.6454
 4679SOL     OW14417   5.317   0.774   4.321  0.6724 -0.2760 -0.0794
 4679SOL    HW114418   5.224   0.773   4.296  0.9268 -3.0863 -1.0938
 4679SOL    HW214419   5.355   0.846   4.270 -1.0017  1.1626  0.6427
 4680SOL     OW14420   4.513   5.660   6.300 -0.1826  0.9835 -0.6805
 4680SOL    HW114421   4.576   5.588   6.304 -2.0983 -0.8317 -2.1741
 4680SOL    HW214422   4.561   5.732   6.260  0.9383 -0.3921 -1.8563
 4681SOL     OW14423   1.082   6.182   1.306 -0.3561  0.3007 -0.6031
 4681SOL    HW114424   1.030   6.259   1.332 -1.1789 -0.5794  0.3766
 4681SOL    HW214425   1.018   6.122   1.269  0.8094  1.6966 -5.2916
 4682SOL     OW14426   4.010   2.072   2.346 -0.2763 -0.2315  0.3533
 4682SOL    HW114427   3.925   2.113   2.332  0.3309  0.4869 -1.3740
 4682SOL    HW214428   4.036   2.100   2.433 -0.6274  1.6785 -0.1431
 4683SOL     OW14429   1.631   1.997   4.217  0.2269  0.4446  0.3428
 4683SOL    HW114430   1.602   2.057   4.287  2.7822  0.2626  1.5950
 4683SOL    HW214431   1.596   1.912   4.243 -3.1923  1.2539 -1.3023
 4684SOL     OW14432   0.549   4.738   5.581 -0.1140 -0.1441  0.3971
 4684SOL    HW114433   0.506   4.676   5.522  0.2304 -0.1090  0.1041
 4684SOL    HW214434   0.640   4.740   5.551 -0.0229  0.1605  0.6904
 4685SOL     OW14435   5.992   4.721   3.507  0.0029 -0.0277 -0.2292
 4685SOL    HW114436   5.937   4.794   3.534 -0.0656  0.0989 -0.7104
 4685SOL    HW214437   6.080   4.758   3.500  0.3598 -0.4620  1.5667
 4686SOL     OW14438   0.432   3.236   1.462  0.8642 -0.5118 -0.3455
 4686SOL    HW114439   0.397   3.262   1.377 -0.3601 -0.1199  0.2774
 4686SOL    HW214440   0.512   3.188   1.441 -0.6614 -2.4760 -1.8493
 4687SOL     OW14441   6.274   1.678   1.011  0.1539  0.4043  0.1645
 4687SOL    HW114442   6.339   1.612   0.991  0.8852  0.3820  2.4384
 4687SOL    HW214443   6.324   1.758   1.027 -0.2625  0.2416  2.5462
 4688SOL     OW14444   6.071   5.392   5.146  0.2970 -0.0647 -0.0694
 4688SOL    HW114445   6.145   5.347   5.187 -1.2540 -1.7092  1.0310
 4688SOL    HW214446   6.107   5.430   5.066  2.0786 -1.7887 -0.1290
 4689SOL     OW14447   4.927   5.675   1.202 -0.2642  0.2360  0.1336
 4689SOL    HW114448   4.996   5.637   1.147  0.1881  0.9185  0.2170
 4689SOL    HW214449   4.896   5.602   1.255  0.5450 -0.0384  0.2429
 4690SOL     OW14450   5.159   6.106   5.919 -0.2406 -0.5277 -0.1092
 4690SOL    HW114451   5.169   6.179   5.858  0.0716 -0.4158  0.0766
 4690SOL    HW214452   5.198   6.031   5.872  1.8447 -0.0209  0.7447
 4691SOL     OW14453   2.962   0.069   1.229 -0.2167 -0.0445  0.3045
 4691SOL    HW114454   3.051   0.095   1.207 -1.2554  0.8954 -3.0568
 4691SOL    HW214455   2.922   0.149   1.263 -0.7344  0.4174 -1.3610
 4692SOL     OW14456   3.650   6.158   4.549  0.8352  0.3698  0.4764
 4692SOL    HW114457   3.584   6.203   4.601 -0.8117  0.0041 -1.2471
 4692SOL    HW214458   3.696   6.229   4.502 -0.3069  0.4364 -0.5677
 4693SOL     OW14459   4.167   1.587   6.279  0.7283 -0.1432  0.2726
 4693SOL    HW114460   4.213   1.517   6.325 -1.2244  0.4735  3.2989
 4693SOL    HW214461   4.091   1.606   6.334 -0.5869  2.0813 -2.1956
 4694SOL     OW14462   0.874   2.918   1.396 -0.0224 -0.3465 -0.5597
 4694SOL    HW114463   0.811   2.896   1.465  1.7817  0.0679  1.2894
 4694SOL    HW214464   0.924   2.838   1.383 -0.6086 -0.5320 -1.6685
 4695SOL     OW14465   4.487   2.991   0.057 -0.2205  0.2173 -0.1290
 4695SOL    HW114466   4.486   2.902   0.022 -2.3468 -0.4208  1.4280
 4695SOL    HW214467   4.447   3.044  -0.011  1.2673  0.0457 -1.1636
 4696SOL     OW14468   1.726   3.838   0.575  0.0931 -0.4159  0.5594
 4696SOL    HW114469   1.643   3.833   0.528  0.1586  0.0265  0.3887
 4696SOL    HW214470   1.784   3.887   0.517  1.0230 -2.2702 -0.0903
 4697SOL     OW14471   5.400   2.663   1.530  0.3039  0.2509 -0.2233
 4697SOL    HW114472   5.343   2.734   1.501 -1.3208 -1.3764 -1.1739
 4697SOL    HW214473   5.340   2.598   1.567  1.9899  0.5053  3.1394
 4698SOL     OW14474   2.851   0.442   5.203  0.4260  0.3782 -0.5181
 4698SOL    HW114475   2.825   0.379   5.269  1.8870  0.8771  0.5563
 4698SOL    HW214476   2.895   0.390   5.135  2.3713  0.3057  0.7568
 4699SOL     OW14477   0.516   4.109   1.008  0.6817  0.0184 -0.5403
 4699SOL    HW114478   0.472   4.103   1.093  0.4331 -2.1121 -0.7804
 4699SOL    HW214479   0.505   4.200   0.981 -1.2923  0.1486  0.6339
 4700SOL     OW14480   5.041   2.158   1.635 -0.1480  0.1639  0.5199
 4700SOL    HW114481   5.037   2.063   1.637 -1.6440  0.2103  0.0106
 4700SOL    HW214482   5.112   2.180   1.696 -0.7325 -1.1977  1.7127
 4701SOL     OW14483   0.639   3.981   0.566 -0.5280 -0.2531 -0.0447
 4701SOL    HW114484   0.621   3.992   0.473 -1.2948 -0.8817  0.0289
 4701SOL    HW214485   0.639   3.887   0.580  0.3271 -0.1900  0.4564
 4702SOL     OW14486   4.671   1.296   2.592  0.1065  0.1450 -1.0430
 4702SOL    HW114487   4.652   1.385   2.562 -0.8075  0.5449  0.6857
 4702SOL    HW214488   4.628   1.240   2.526  0.6797  0.9608 -2.1314
 4703SOL     OW14489   4.978   5.693   2.437 -0.6343  0.0858 -0.4352
 4703SOL    HW114490   5.072   5.695   2.420 -0.7197  0.2234 -0.9043
 4703SOL    HW214491   4.950   5.784   2.431 -0.4815  0.2898  1.5713
 4704SOL     OW14492   1.612   3.221   3.012  0.3536  0.3053  0.3575
 4704SOL    HW114493   1.671   3.292   3.040  2.8078 -1.3098 -0.5255
 4704SOL    HW214494   1.628   3.151   3.076 -0.7438 -0.0876  0.2031
 4705SOL     OW14495   4.529   0.730   4.159 -0.2107 -0.4658 -0.5325
 4705SOL    HW114496   4.491   0.678   4.229 -1.8285  1.9321  0.4417
 4705SOL    HW214497   4.617   0.751   4.190 -0.8997  0.5487  0.8058
 4706SOL     OW14498   3.179   2.906   2.826  0.1140 -1.0158 -0.1641
 4706SOL    HW114499   3.261   2.945   2.858  0.2061 -0.3224 -1.2179
 4706SOL    HW214500   3.144   2.971   2.765 -0.5076 -1.9346 -0.7903
 4707SOL     OW14501   5.948   5.055   5.638  0.0927  0.3595 -0.1488
 4707SOL    HW114502   5.981   5.081   5.552  0.0633 -0.4924 -0.4217
 4707SOL    HW214503   5.998   4.977   5.661 -1.4455 -0.7284 -0.3996
 4708SOL     OW14504   4.124   0.213   4.327 -0.3289 -0.2593 -0.0529
 4708SOL    HW114505   4.111   0.120   4.310 -2.0825 -0.5235  2.4408
 4708SOL    HW214506   4.183   0.215   4.403  0.0665  0.6923 -0.3684
 4709SOL     OW14507   2.416   0.794   6.045 -0.2623 -0.1872 -0.3677
 4709SOL    HW114508   2.464   0.711   6.052  0.5973  0.2640 -0.9729
 4709SOL    HW214509   2.444   0.831   5.962 -1.3305  0.2935 -0.5219
 4710SOL     OW14510   0.851   1.956   3.251 -0.5817 -0.3810 -0.0489
 4710SOL    HW114511   0.765   1.929   3.217 -0.1976 -0.2384 -1.1572
 4710SOL    HW214512   0.831   2.017   3.321 -1.3720  0.6425 -1.1504
 4711SOL     OW14513   5.436   3.317   2.314 -0.2413 -0.2135 -0.7497
 4711SOL    HW114514   5.343   3.339   2.320 -0.7249 -1.7974 -2.1797
 4711SOL    HW214515   5.481   3.402   2.314 -1.6838  0.5682 -0.3659
 4712SOL     OW14516   1.212   1.494   2.401  0.3961  0.6091  0.2057
 4712SOL    HW114517   1.144   1.436   2.436  1.4513 -0.9802 -0.3631
 4712SOL    HW214518   1.294   1.460   2.436  1.0354  1.7778 -0.1145
 4713SOL     OW14519   4.933   0.180   3.779 -0.2754 -0.0725 -0.2556
 4713SOL    HW114520   4.843   0.150   3.777  0.2660 -1.6379 -2.1041
 4713SOL    HW214521   4.936   0.252   3.716  0.1315 -1.1530 -1.4961
 4714SOL     OW14522   5.078   0.481   0.332 -0.0637  0.2093  0.6312
 4714SOL    HW114523   5.118   0.501   0.416 -0.0661  0.0295  0.6744
 4714SOL    HW214524   5.014   0.551   0.319  0.6996  0.8521  0.2648
 4715SOL     OW14525   3.412   4.251   4.143  0.3538 -0.9731  0.0439
 4715SOL    HW114526   3.419   4.240   4.238  1.6133 -3.2494 -0.2963
 4715SOL    HW214527   3.329   4.209   4.120 -1.4728  2.2041  0.4720
 4716SOL     OW14528   2.577   4.673   5.097  0.0526 -1.2112  0.0272
 4716SOL    HW114529   2.627   4.704   5.173 -1.8282  1.4110  0.2823
 4716SOL    HW214530   2.540   4.589   5.126 -1.0278 -0.0329  2.2499
 4717SOL     OW14531   5.966   0.158   1.501  0.0194 -0.4145 -0.2975
 4717SOL    HW114532   5.986   0.152   1.407 -0.1586 -0.8979 -0.3072
 4717SOL    HW214533   6.008   0.081   1.539  1.0111  0.3591  0.1876
 4718SOL     OW14534   4.011   3.639   1.417  0.6781 -0.3629  0.3856
 4718SOL    HW114535   4.001   3.725   1.377 -1.4521 -0.7541  0.0170
 4718SOL    HW214536   4.084   3.598   1.370  0.0739  0.2862 -1.1375
 4719SOL     OW14537   2.901   5.424   4.677 -0.1315 -0.2464 -0.1882
 4719SOL    HW114538   2.828   5.464   4.629 -0.1436  1.0423  0.8621
 4719SOL    HW214539   2.974   5.486   4.665  0.3598 -0.7824  0.0058
 4720SOL     OW14540   0.126   3.309   1.528  0.2155  0.0155 -0.6271
 4720SOL    HW114541   0.216   3.335   1.549  0.4613 -1.0458 -0.2911
 4720SOL    HW214542   0.123   3.216   1.551 -1.4983  0.4673  1.0860
 4721SOL     OW14543   4.953   4.763   0.846 -0.5653  0.1133 -0.4669
 4721SOL    HW114544   4.987   4.789   0.760  1.5212 -1.5162 -0.1598
 4721SOL    HW214545   5.031   4.753   0.901 -1.6390 -2.1241  0.7047
 4722SOL     OW14546   6.199   0.916   5.232 -1.2290 -0.1154  0.7708
 4722SOL    HW114547   6.164   0.828   5.214  0.0188 -0.5367  0.3824
 4722SOL    HW214548   6.145   0.974   5.178 -1.7497 -0.6958  0.6562
 4723SOL     OW14549   3.182   0.180   6.215 -0.3190 -0.1585 -0.5041
 4723SOL    HW114550   3.242   0.251   6.240 -0.1758  0.3156 -2.1676
 4723SOL    HW214551   3.168   0.132   6.297 -1.5216  2.5701  0.9856
 4724SOL     OW14552   6.197   5.380   0.670 -0.2293  0.4394  0.0506
 4724SOL    HW114553   6.194   5.402   0.763 -0.5258 -1.0639  0.4158
 4724SOL    HW214554   6.282   5.337   0.659 -0.7188 -0.4993 -0.1023
 4725SOL     OW14555   5.974   4.960   2.029  0.3172 -0.1053 -0.0155
 4725SOL    HW114556   5.947   4.904   1.956 -2.2367  0.2914  0.5817
 4725SOL    HW214557   5.964   4.905   2.106  0.8619  0.1848  0.2615
 4726SOL     OW14558   2.947   1.208   3.127  0.1442  0.3954 -0.0015
 4726SOL    HW114559   2.915   1.129   3.084 -0.7651  0.5450  0.3883
 4726SOL    HW214560   2.937   1.277   3.061 -1.6748  0.7141  0.5577
 4727SOL     OW14561   0.270   2.539   2.076 -0.1781 -0.3949  0.1237
 4727SOL    HW114562   0.257   2.491   1.994 -0.5905  1.3050 -0.8408
 4727SOL    HW214563   0.361   2.570   2.071 -0.4687  0.4360 -0.1035
 4728SOL     OW14564   1.331   2.432   5.259  0.5309 -0.2083 -0.6255
 4728SOL    HW114565   1.310   2.370   5.330  2.9215 -0.2009  0.1217
 4728SOL    HW214566   1.348   2.376   5.183 -0.9658 -0.2606 -0.9525
 4729SOL     OW14567   2.746   0.677   5.457  1.0560 -0.6296 -0.3191
 4729SOL    HW114568   2.750   0.771   5.471 -0.6350 -0.7335  1.0322
 4729SOL    HW214569   2.659   0.661   5.420  1.3517 -1.6529 -0.6141
 4730SOL     OW14570   4.338   2.569   2.086 -0.1246  0.3440  0.2307
 4730SOL    HW114571   4.341   2.474   2.088  1.9250  0.4003  0.9375
 4730SOL    HW214572   4.297   2.594   2.169 -0.7571  0.0811 -0.0016
 4731SOL     OW14573   1.126   4.356   1.740  0.2995  0.2356  0.1253
 4731SOL    HW114574   1.037   4.359   1.773  0.3352 -1.5139  0.4229
 4731SOL    HW214575   1.143   4.263   1.722  0.6533  0.9513 -3.8448
 4732SOL     OW14576   5.225   2.902   0.643 -0.6901 -0.1938 -0.6710
 4732SOL    HW114577   5.139   2.859   0.649 -0.9135  0.3473  0.1649
 4732SOL    HW214578   5.205   2.995   0.644 -0.1412 -0.0636 -1.4508
 4733SOL     OW14579   4.056   1.096   2.002 -0.2387 -0.2134 -0.0257
 4733SOL    HW114580   4.023   1.123   1.916 -1.1300 -0.7320  0.1496
 4733SOL    HW214581   4.120   1.028   1.982 -1.8812 -1.7454 -0.1937
 4734SOL     OW14582   4.823   3.973   4.503  0.1351  0.2394 -0.5618
 4734SOL    HW114583   4.737   3.937   4.525  0.3850  0.6290  1.1895
 4734SOL    HW214584   4.811   4.068   4.508  0.4877  0.3123 -1.0516
 4735SOL     OW14585   2.745   0.132   3.611  0.1969  0.1823  0.4607
 4735SOL    HW114586   2.835   0.133   3.581  0.0268 -0.9100 -0.0984
 4735SOL    HW214587   2.751   0.129   3.707  0.7481  0.4620  0.4318
 4736SOL     OW14588   3.633   3.822   6.268 -0.4934 -0.6498  0.6573
 4736SOL    HW114589   3.620   3.765   6.345 -2.2105 -0.5211  0.4859
 4736SOL    HW214590   3.606   3.768   6.194  0.8470 -0.6572  0.1610
 4737SOL     OW14591   2.299   3.054   2.220 -0.0594 -0.4831 -0.0462
 4737SOL    HW114592   2.296   3.062   2.125 -0.0633 -0.3683 -0.0366
 4737SOL    HW214593   2.324   2.963   2.236 -1.4469 -0.9040 -0.1492
 4738SOL     OW14594   5.481   1.502   6.220  0.1868  0.1089  0.0910
 4738SOL    HW114595   5.520   1.437   6.162 -1.2991  0.4619 -1.3515
 4738SOL    HW214596   5.472   1.457   6.304  2.6151 -0.3189  0.1616
 4739SOL     OW14597   3.455   2.449   4.169 -0.0482 -0.5857 -0.5468
 4739SOL    HW114598   3.475   2.371   4.220 -1.0843 -0.3401  0.2599
 4739SOL    HW214599   3.514   2.516   4.203  0.0750 -0.7339 -0.4707
 4740SOL     OW14600   2.026   4.419   2.801  0.1785  0.2581  0.3444
 4740SOL    HW114601   1.992   4.464   2.879  0.5167 -0.1427  0.7254
 4740SOL    HW214602   2.089   4.480   2.764 -1.2094  1.1590 -0.5694
 4741SOL     OW14603   2.549   4.091   0.700 -0.8234 -0.4498 -0.2925
 4741SOL    HW114604   2.634   4.086   0.744 -1.3593  1.3424  1.0434
 4741SOL    HW214605   2.487   4.061   0.767 -1.6170  2.0070  0.1393
 4742SOL     OW14606   5.429   5.311   5.690  0.6317 -0.2813 -0.4151
 4742SOL    HW114607   5.385   5.227   5.702  0.8759 -0.5516 -1.3585
 4742SOL    HW214608   5.519   5.288   5.665  0.6484  0.2494 -0.8580
 4743SOL     OW14609   4.467   2.204   4.566  0.1660  0.2742 -0.6982
 4743SOL    HW114610   4.474   2.152   4.646 -2.1923  1.2002  0.1347
 4743SOL    HW214611   4.557   2.233   4.549  0.6253  0.6194  1.9987
 4744SOL     OW14612   1.115   5.956   2.757  0.4828 -0.6643  0.3616
 4744SOL    HW114613   1.165   5.876   2.773  3.3534  0.6363 -1.6727
 4744SOL    HW214614   1.071   5.939   2.674  1.4667  0.0171 -0.3067
 4745SOL     OW14615   4.250   0.362   4.123  0.2498 -0.1596 -0.0945
 4745SOL    HW114616   4.174   0.408   4.087  0.9171  1.5528  0.6259
 4745SOL    HW214617   4.212   0.292   4.176 -0.8661  1.0139  0.7052
 4746SOL     OW14618   6.271   5.309   5.826  0.0054 -0.6931  0.0709
 4746SOL    HW114619   6.245   5.393   5.789  0.5572 -0.0746  1.0948
 4746SOL    HW214620   6.345   5.282   5.772  0.6029  0.0570  0.5065
 4747SOL     OW14621   3.445   3.451   5.814 -0.4587  0.0870 -0.6018
 4747SOL    HW114622   3.362   3.480   5.852 -0.0565  0.1441  0.2342
 4747SOL    HW214623   3.430   3.359   5.791 -1.3944  0.6359 -2.2955
 4748SOL     OW14624   0.282   3.256   3.950 -0.7306  0.7078  0.5752
 4748SOL    HW114625   0.280   3.350   3.962 -0.6162  0.8535 -0.4786
 4748SOL    HW214626   0.220   3.221   4.014  0.4568  1.3634  2.1143
 4749SOL     OW14627   4.222   1.700   0.141 -0.1229 -0.1818  0.2698
 4749SOL    HW114628   4.311   1.678   0.114 -0.0983 -0.1409  0.3175
 4749SOL    HW214629   4.203   1.783   0.096  0.5578  0.7817  1.7258
 4750SOL     OW14630   5.644   1.182   4.248  0.0200  0.0692  0.2849
 4750SOL    HW114631   5.652   1.268   4.208  0.5673 -0.4640 -0.7657
 4750SOL    HW214632   5.666   1.197   4.340 -3.4762  1.7173  0.9353
 4751SOL     OW14633   2.184   3.113   2.698 -0.4152  0.0494 -0.3922
 4751SOL    HW114634   2.223   3.140   2.781 -2.0216 -0.1413  0.4377
 4751SOL    HW214635   2.184   3.192   2.645  1.0377  0.0635 -0.3823
 4752SOL     OW14636   6.088   2.321   1.208  0.1178  0.5450  0.7399
 4752SOL    HW114637   6.067   2.255   1.142  3.3877 -3.1406  3.0998
 4752SOL    HW214638   6.077   2.405   1.163 -0.5668 -1.7057 -3.5762
 4753SOL     OW14639   5.393   0.869   3.610  0.3629  0.0010 -0.4787
 4753SOL    HW114640   5.394   0.903   3.520  1.2419 -0.2356 -0.5655
 4753SOL    HW214641   5.343   0.788   3.604 -0.5804  0.5808 -0.5303
 4754SOL     OW14642   6.019   2.610   6.354 -0.0647  0.3356  0.3270
 4754SOL    HW114643   6.028   2.667   6.278 -1.5007  2.1747  1.4837
 4754SOL    HW214644   5.948   2.549   6.330 -0.6344  1.0222  0.2414
 4755SOL     OW14645   6.335   3.705   6.329  0.9301  0.2437 -0.2190
 4755SOL    HW114646   6.365   3.773   6.389 -0.0076  1.2732 -0.8967
 4755SOL    HW214647   6.247   3.732   6.304 -0.1395 -2.1222  0.8234
 4756SOL     OW14648   5.175   0.505   4.043  0.5656 -0.7353 -0.3676
 4756SOL    HW114649   5.082   0.508   4.021  0.5118 -1.1584 -0.1936
 4756SOL    HW214650   5.178   0.528   4.136  0.7667  0.7748 -0.7239
 4757SOL     OW14651   3.064   0.559   2.420 -0.0906 -0.6339  0.1758
 4757SOL    HW114652   3.001   0.521   2.481  0.3803  0.1065  1.1499
 4757SOL    HW214653   3.143   0.506   2.431  0.5799  0.6142  1.5674
 4758SOL     OW14654   0.999   5.396   4.518 -0.4593  0.3886 -0.3583
 4758SOL    HW114655   0.948   5.400   4.437 -0.5909  0.6627 -0.2638
 4758SOL    HW214656   1.066   5.464   4.508 -0.4913  0.4410 -0.2308
 4759SOL     OW14657   4.333   4.299   3.349 -0.4941 -0.1088 -0.0559
 4759SOL    HW114658   4.427   4.310   3.360 -0.8230  0.5953  2.4167
 4759SOL    HW214659   4.309   4.363   3.283  0.6059  0.4190  0.0453
 4760SOL     OW14660   0.216   2.681   1.246  0.0861 -0.2369  0.0428
 4760SOL    HW114661   0.270   2.694   1.168 -1.1622 -0.3202 -0.8680
 4760SOL    HW214662   0.249   2.600   1.284  1.2311  0.2238  0.0490
 4761SOL     OW14663   1.119   4.334   5.476  0.2126  0.3818  0.1973
 4761SOL    HW114664   1.034   4.377   5.473 -0.1417 -0.2318  1.4392
 4761SOL    HW214665   1.181   4.402   5.448 -0.5545  1.1526  0.3528
 4762SOL     OW14666   6.014   3.273   0.171 -0.3488 -0.3358  0.1169
 4762SOL    HW114667   6.069   3.336   0.124 -2.7195  2.1797  0.5125
 4762SOL    HW214668   5.964   3.229   0.102  0.4517 -0.9074 -0.0947
 4763SOL     OW14669   3.124   0.776   3.072 -0.6778  0.1344  0.1236
 4763SOL    HW114670   3.132   0.683   3.049 -0.7507  0.2139 -0.2167
 4763SOL    HW214671   3.202   0.817   3.034 -0.8881  0.2965 -0.1286
 4764SOL     OW14672   4.994   0.752   5.647  0.4610  0.3274  0.0290
 4764SOL    HW114673   5.045   0.818   5.693  0.3398  0.3284  0.1643
 4764SOL    HW214674   5.047   0.672   5.653  0.5980  0.4087 -0.1157
 4765SOL     OW14675   0.872   6.110   2.564 -0.3389  0.0127 -0.2962
 4765SOL    HW114676   0.814   6.117   2.488 -0.1020  0.1918 -0.4612
 4765SOL    HW214677   0.918   6.027   2.552  2.4268  1.7590 -2.2866
 4766SOL     OW14678   2.961   0.024   6.117  0.1502 -0.3151  0.2488
 4766SOL    HW114679   2.947  -0.048   6.178  0.9086 -0.3189  0.4299
 4766SOL    HW214680   3.038   0.070   6.151 -0.4130  0.6749  0.2247
 4767SOL     OW14681   4.588   5.504   5.916 -0.0330  0.1288  0.1681
 4767SOL    HW114682   4.508   5.509   5.968  0.8795 -0.9118  1.7375
 4767SOL    HW214683   4.596   5.410   5.895  0.7355  0.2370 -0.0300
 4768SOL     OW14684   3.100   2.301   2.344  0.3022  0.0325  0.0290
 4768SOL    HW114685   3.099   2.236   2.414  0.5992  0.7131  0.6573
 4768SOL    HW214686   3.190   2.302   2.313  0.2120 -0.1323 -0.2451
 4769SOL     OW14687   0.594   5.305   4.255  0.2151  0.4969 -0.1206
 4769SOL    HW114688   0.580   5.211   4.240  1.1867  0.3300 -0.0147
 4769SOL    HW214689   0.553   5.347   4.180 -1.6361  0.0861  0.6338
 4770SOL     OW14690   1.248   2.179   4.090  0.0175  0.2987 -0.6174
 4770SOL    HW114691   1.323   2.219   4.133 -0.1389 -2.8849  2.8042
 4770SOL    HW214692   1.284   2.139   4.011  1.7346 -0.2331  0.4152
 4771SOL     OW14693   5.151   4.080   4.865  0.1139 -0.4853  0.2782
 4771SOL    HW114694   5.199   3.997   4.862 -0.8424 -1.0211 -0.4136
 4771SOL    HW214695   5.118   4.085   4.955 -1.4612 -1.8008 -0.2126
 4772SOL     OW14696   1.121   3.718   4.770 -0.5660 -0.1467 -0.4040
 4772SOL    HW114697   1.084   3.718   4.682  0.3150  0.5807 -0.7847
 4772SOL    HW214698   1.063   3.773   4.822 -0.3331  0.5222 -0.8565
 4773SOL     OW14699   2.967   2.842   1.490  0.7288 -0.8319 -0.2867
 4773SOL    HW114700   2.881   2.825   1.529  0.7817 -2.0317 -0.6668
 4773SOL    HW214701   3.006   2.755   1.478  2.1986 -0.2822  0.3280
 4774SOL     OW14702   4.926   0.275   3.034  0.5518  0.4695 -0.0861
 4774SOL    HW114703   4.855   0.223   3.072  2.3643 -1.3287  0.9154
 4774SOL    HW214704   4.909   0.273   2.939  0.0927 -1.2008  0.0163
 4775SOL     OW14705   4.519   5.009   5.014  0.4815  0.0407 -0.6767
 4775SOL    HW114706   4.481   4.934   4.968  0.1529 -0.2744  0.0933
 4775SOL    HW214707   4.611   4.986   5.024  0.0630 -0.9927  0.9735
 4776SOL     OW14708   1.196   1.773   5.239 -0.7067 -0.2625  0.1521
 4776SOL    HW114709   1.160   1.685   5.233  0.3217 -0.7101  0.4777
 4776SOL    HW214710   1.201   1.803   5.148  2.4102 -1.9662 -0.3104
 4777SOL     OW14711   1.234   0.564   5.439 -0.6257  0.4936  0.2080
 4777SOL    HW114712   1.225   0.642   5.384 -0.5567 -0.7356 -1.5501
 4777SOL    HW214713   1.319   0.575   5.482 -1.1254  1.9387  0.8755
 4778SOL     OW14714   3.280   3.009   0.749 -0.1391 -0.5270  0.4304
 4778SOL    HW114715   3.253   2.919   0.731  0.8508 -0.7677  0.0667
 4778SOL    HW214716   3.376   3.006   0.744  0.1703 -0.3537  4.5084
 4779SOL     OW14717   0.671   1.994   4.463 -0.3120 -0.4424  0.9364
 4779SOL    HW114718   0.754   2.031   4.495 -1.0092  1.4286  0.6229
 4779SOL    HW214719   0.696   1.946   4.384  0.4697  0.0389  0.8870
 4780SOL     OW14720   2.305   5.038   2.013  0.2334 -0.6821  0.1867
 4780SOL    HW114721   2.277   4.994   2.093 -0.7729  0.4767  0.4716
 4780SOL    HW214722   2.273   4.982   1.942 -1.1071 -0.3656  0.5430
 4781SOL     OW14723   5.312   2.590   4.235  0.2281 -0.5956 -0.2483
 4781SOL    HW114724   5.331   2.605   4.143 -0.2236 -1.2352 -0.4545
 4781SOL    HW214725   5.223   2.624   4.247  0.3946 -0.2538  0.0190
 4782SOL     OW14726   0.938   1.742   5.052 -0.3647  0.0990  0.6339
 4782SOL    HW114727   0.892   1.800   4.991 -0.4954 -2.5941 -1.9203
 4782SOL    HW214728   1.031   1.765   5.041 -0.4522  0.1452 -0.0382
 4783SOL     OW14729   5.400   3.625   3.003  0.5958 -0.3735 -0.6702
 4783SOL    HW114730   5.473   3.564   2.994  1.9871  1.2497 -0.4736
 4783SOL    HW214731   5.371   3.641   2.913 -0.2349 -1.8403 -0.6831
 4784SOL     OW14732   3.861   0.269   3.898  0.6595 -0.8085 -0.1408
 4784SOL    HW114733   3.790   0.222   3.941 -0.5792  0.1916 -1.0410
 4784SOL    HW214734   3.891   0.210   3.829 -1.6335  0.0971 -1.9871
 4785SOL     OW14735   0.091   3.846   5.452 -0.7201 -0.3815  0.6366
 4785SOL    HW114736   0.168   3.865   5.398 -1.3402  0.0562 -0.0968
 4785SOL    HW214737   0.064   3.931   5.487 -0.8713 -0.5371  0.9028
 4786SOL     OW14738   2.854   6.241   5.859  0.0262 -0.4377 -0.0255
 4786SOL    HW114739   2.792   6.268   5.927 -0.4177 -2.1339  0.2908
 4786SOL    HW214740   2.911   6.178   5.904  1.7074  0.7515 -0.4339
 4787SOL     OW14741   5.905   0.449   2.202  0.5600 -0.5390  0.1378
 4787SOL    HW114742   5.965   0.514   2.166  1.4819 -0.0903  2.4094
 4787SOL    HW214743   5.821   0.494   2.211  0.4418 -0.5252 -0.9699
 4788SOL     OW14744   0.855   5.084   3.224  0.0014 -0.0785  0.0199
 4788SOL    HW114745   0.845   4.992   3.201 -0.0174 -0.1155  0.1731
 4788SOL    HW214746   0.784   5.101   3.286  0.1401 -0.0206  0.1653
 4789SOL     OW14747   2.115   2.780   4.070  0.3528 -0.3724  0.5799
 4789SOL    HW114748   2.178   2.815   4.133  0.6079 -1.0747  0.7179
 4789SOL    HW214749   2.040   2.753   4.123 -0.4779  1.3612  0.3163
 4790SOL     OW14750   5.590   4.128   6.236  0.1128  0.0718 -0.2696
 4790SOL    HW114751   5.596   4.213   6.281 -0.4332 -0.7259  1.3447
 4790SOL    HW214752   5.670   4.082   6.261 -0.2301 -0.4074 -0.0499
 4791SOL     OW14753   0.446   3.148   4.252 -0.3438  0.5379  0.3172
 4791SOL    HW114754   0.393   3.179   4.326 -0.1253  1.3431  0.1445
 4791SOL    HW214755   0.383   3.106   4.194 -0.3028 -1.3914  1.6326
 4792SOL     OW14756   5.983   6.212   5.285 -0.1007  0.2308 -0.5213
 4792SOL    HW114757   5.926   6.137   5.301  0.2691  0.0529 -0.0628
 4792SOL    HW214758   5.929   6.288   5.309 -0.6916  0.1595 -1.5635
 4793SOL     OW14759   5.018   2.743   5.759  0.1616 -0.0023 -0.5342
 4793SOL    HW114760   4.983   2.765   5.846 -0.0227 -1.0281 -0.3490
 4793SOL    HW214761   5.013   2.648   5.754 -0.4039  0.0903 -1.9178
 4794SOL     OW14762   4.294   0.224   5.278 -0.4323 -0.1486 -0.1518
 4794SOL    HW114763   4.278   0.316   5.299  2.4824  0.2291  0.6861
 4794SOL    HW214764   4.316   0.224   5.184  0.3406  0.1450  0.0235
 4795SOL     OW14765   3.206   0.865   3.669 -0.1656 -0.2440  0.1612
 4795SOL    HW114766   3.299   0.870   3.691 -0.2256 -1.6801  0.7741
 4795SOL    HW214767   3.202   0.889   3.577  0.8681 -0.5722  0.0261
 4796SOL     OW14768   4.833   4.649   3.933 -0.3508  0.4457  0.2536
 4796SOL    HW114769   4.886   4.614   3.863 -0.1087  0.1126  0.6000
 4796SOL    HW214770   4.831   4.744   3.918  0.6870  0.5066  0.4830
 4797SOL     OW14771   0.060   5.097   4.224  0.5743 -0.6192 -0.0417
 4797SOL    HW114772   0.115   5.097   4.145 -0.3783  2.2434 -0.7820
 4797SOL    HW214773   0.106   5.155   4.285 -1.2427  1.3079 -0.4412
 4798SOL     OW14774   0.185   5.946   3.323 -0.5020  0.0412 -0.0413
 4798SOL    HW114775   0.258   5.887   3.345 -1.3050 -0.4058  1.4542
 4798SOL    HW214776   0.107   5.893   3.340 -1.1906 -0.1026 -3.3255
 4799SOL     OW14777   4.293   6.332   0.335  0.7879 -0.3099  0.2225
 4799SOL    HW114778   4.364   6.362   0.278 -0.2673 -1.2150 -1.6226
 4799SOL    HW214779   4.287   6.399   0.403  1.0439  1.6208 -1.6034
 4800SOL     OW14780   2.465   0.169   2.487  0.2523 -0.1222 -0.0347
 4800SOL    HW114781   2.459   0.232   2.415  0.0584 -0.2049 -0.0898
 4800SOL    HW214782   2.410   0.096   2.461  2.2557 -1.3425 -0.9966
 4801SOL     OW14783   5.546   3.983   4.822  0.0356  0.0216  0.3844
 4801SOL    HW114784   5.551   3.914   4.757 -0.4696  0.3378  0.0023
 4801SOL    HW214785   5.611   4.048   4.795 -0.2809  0.2253  0.1028
 4802SOL     OW14786   0.786   6.074   0.705 -0.1336  0.1726  0.1298
 4802SOL    HW114787   0.873   6.035   0.712  0.3951  1.5416  1.6606
 4802SOL    HW214788   0.777   6.126   0.785 -2.1917  0.3887 -0.2139
 4803SOL     OW14789   2.903   5.399   2.932  0.0765 -0.0611 -0.0786
 4803SOL    HW114790   2.836   5.417   2.867 -1.7025 -0.1128  1.6908
 4803SOL    HW214791   2.976   5.455   2.908 -1.3347  1.4534 -0.9205
 4804SOL     OW14792   4.767   2.256   1.821  0.3327  0.4551  0.3760
 4804SOL    HW114793   4.836   2.314   1.853  1.2250 -1.0342  1.1694
 4804SOL    HW214794   4.734   2.300   1.742  1.1287  1.9392  0.8520
 4805SOL     OW14795   2.019   5.849   1.995  0.3682 -0.5805 -0.2786
 4805SOL    HW114796   2.084   5.876   1.931  0.0153 -0.5067 -0.6125
 4805SOL    HW214797   2.047   5.890   2.077  1.6952 -1.9852 -0.0252
 4806SOL     OW14798   1.754   0.928   5.104 -0.0986  0.1388  0.4180
 4806SOL    HW114799   1.742   0.937   5.010 -0.5867  0.1227  0.4775
 4806SOL    HW214800   1.755   1.018   5.137 -0.9329  0.1240  0.5144
 4807SOL     OW14801   6.375   2.521   5.589  0.2198 -0.8494 -0.3146
 4807SOL    HW114802   6.287   2.552   5.611 -0.5178 -1.6771 -1.9984
 4807SOL    HW214803   6.414   2.495   5.673 -0.1563  1.9725  0.7745
 4808SOL     OW14804   5.639   3.605   0.743 -0.2149  0.1529  0.0652
 4808SOL    HW114805   5.663   3.576   0.831 -0.3907 -0.7061 -0.1652
 4808SOL    HW214806   5.716   3.585   0.689  0.0477  1.0547  0.1008
 4809SOL     OW14807   2.643   3.601   2.881 -0.1218 -0.1120 -0.4795
 4809SOL    HW114808   2.563   3.574   2.927  0.8671 -1.1590  0.6381
 4809SOL    HW214809   2.651   3.539   2.809  0.1999 -0.6142 -0.0188
 4810SOL     OW14810   4.573   1.365   6.355  0.1392  0.2121 -0.3626
 4810SOL    HW114811   4.615   1.391   6.273 -0.6725  2.5373 -0.0780
 4810SOL    HW214812   4.482   1.393   6.345 -0.1352 -0.1070  1.0649
 4811SOL     OW14813   1.684   3.310   0.127  0.3626 -0.0590  0.0064
 4811SOL    HW114814   1.771   3.351   0.137  0.1269  0.2042  1.0073
 4811SOL    HW214815   1.672   3.303   0.032  0.9846  0.9693 -0.1543
 4812SOL     OW14816   3.843   2.794   6.310  0.1527 -0.0325 -0.0436
 4812SOL    HW114817   3.792   2.875   6.314  1.6231  0.9915 -1.3482
 4812SOL    HW214818   3.901   2.798   6.386  0.2740  0.1891 -0.1459
 4813SOL     OW14819   3.376   6.240   0.306 -0.5110  0.1633  0.4747
 4813SOL    HW114820   3.362   6.302   0.378 -0.7560 -0.8280  1.3114
 4813SOL    HW214821   3.443   6.180   0.340 -0.6780 -0.3482 -0.0919
 4814SOL     OW14822   2.931   1.888   3.925  0.5172 -0.3254 -0.3835
 4814SOL    HW114823   2.931   1.942   3.846  0.2125  0.6915  0.3007
 4814SOL    HW214824   3.023   1.867   3.941  0.5810 -0.5100 -0.9902
 4815SOL     OW14825   4.223   2.583   0.992  0.2252 -0.1719 -0.6867
 4815SOL    HW114826   4.192   2.502   1.030 -0.3086  0.4732  0.2507
 4815SOL    HW214827   4.152   2.612   0.934 -0.0166  0.1669 -0.2215
 4816SOL     OW14828   4.756   6.046   2.923 -0.0945  0.0092 -0.5975
 4816SOL    HW114829   4.801   5.978   2.873  0.8741 -0.4911  0.9289
 4816SOL    HW214830   4.666   6.013   2.932 -0.3293  0.1788 -2.1022
 4817SOL     OW14831   1.260   1.458   6.363 -0.3850  0.0610  0.2144
 4817SOL    HW114832   1.350   1.439   6.338 -0.4099  1.1373 -0.7350
 4817SOL    HW214833   1.208   1.397   6.311 -0.2538  0.1130  0.0194
 4818SOL     OW14834   0.188   0.567   2.038 -0.2430  0.1161  0.0697
 4818SOL    HW114835   0.097   0.572   2.069  0.2587  0.1784  1.5966
 4818SOL    HW214836   0.223   0.489   2.081  0.3788 -0.0110 -0.6620
 4819SOL     OW14837   3.620   5.589   1.284 -0.0280  0.0370  0.2072
 4819SOL    HW114838   3.646   5.677   1.257 -0.9239 -0.3258 -1.9749
 4819SOL    HW214839   3.527   5.584   1.263 -0.1348 -1.2118  0.9314
 4820SOL     OW14840   5.469   1.301   4.030 -0.0740 -0.1771  0.0691
 4820SOL    HW114841   5.502   1.240   3.964 -0.0112  0.1400 -0.1924
 4820SOL    HW214842   5.401   1.252   4.077 -2.5620  0.7162 -2.4722
 4821SOL     OW14843   2.660   1.804   0.710  0.4327 -0.2271  0.5872
 4821SOL    HW114844   2.633   1.888   0.674  0.7129 -0.5043 -0.2625
 4821SOL    HW214845   2.588   1.780   0.769 -0.0563  0.1849  0.1614
 4822SOL     OW14846   2.379   1.773   2.885  0.0233  0.2104 -0.3092
 4822SOL    HW114847   2.416   1.698   2.932  0.4574  0.9782  0.6044
 4822SOL    HW214848   2.303   1.799   2.938  0.0716  0.6128 -0.4352
 4823SOL     OW14849   5.553   2.587   6.238 -0.0674 -0.4603 -0.3697
 4823SOL    HW114850   5.589   2.674   6.255 -2.1942 -0.1182  3.0810
 4823SOL    HW214851   5.473   2.603   6.188  0.1220 -0.5193 -0.6909
 4824SOL     OW14852   5.682   2.930   3.251 -0.3064  0.7481  0.4968
 4824SOL    HW114853   5.647   2.870   3.317  0.3607 -1.1946 -0.8807
 4824SOL    HW214854   5.777   2.916   3.255 -0.0700  2.2773  0.6660
 4825SOL     OW14855   6.208   4.842   5.474 -0.3624  0.9439 -0.2965
 4825SOL    HW114856   6.192   4.834   5.568  1.8692  2.2752  0.2257
 4825SOL    HW214857   6.163   4.922   5.448 -2.5330 -0.3844 -0.7669
 4826SOL     OW14858   5.225   5.050   5.463  0.2557 -0.4580 -0.3299
 4826SOL    HW114859   5.252   5.099   5.385  2.6385  0.8482  1.2344
 4826SOL    HW214860   5.131   5.064   5.469  0.1546  0.0073 -2.5816
 4827SOL     OW14861   6.333   5.558   3.826 -0.0781 -0.0345  0.0329
 4827SOL    HW114862   6.248   5.546   3.869  0.8984 -0.3037  1.9226
 4827SOL    HW214863   6.335   5.651   3.802 -1.5785 -0.3765 -1.5059
 4828SOL     OW14864   2.637   6.128   4.817  0.5088 -0.3024 -0.2439
 4828SOL    HW114865   2.640   6.147   4.723 -0.2729 -0.0946 -0.2288
 4828SOL    HW214866   2.698   6.191   4.856  0.4789 -0.0786 -0.5571
 4829SOL     OW14867   1.528   5.231   4.936 -0.2687 -0.2334  0.2640
 4829SOL    HW114868   1.582   5.302   4.972  1.0573  0.1027 -2.3312
 4829SOL    HW214869   1.586   5.155   4.936 -0.5130 -0.4203 -0.3938
 4830SOL     OW14870   3.736   1.464   3.454  0.0400 -0.1576  0.3769
 4830SOL    HW114871   3.648   1.497   3.434 -0.4604 -0.6024  1.7922
 4830SOL    HW214872   3.762   1.513   3.533  1.0332 -0.0796  0.0068
 4831SOL     OW14873   5.450   5.337   0.858 -0.0295  0.1839 -0.1357
 4831SOL    HW114874   5.510   5.312   0.789  0.0206  0.3263 -0.1452
 4831SOL    HW214875   5.506   5.382   0.922 -0.1725  0.5662 -0.2781
 4832SOL     OW14876   2.124   1.141   3.519  0.4859 -0.2423 -0.0005
 4832SOL    HW114877   2.199   1.086   3.542 -0.1539 -1.5012 -0.8485
 4832SOL    HW214878   2.090   1.172   3.603  0.1665 -2.0733  0.5676
 4833SOL     OW14879   2.406   0.516   4.336 -0.2222  0.1358  0.4403
 4833SOL    HW114880   2.450   0.457   4.275 -1.4757 -0.4539  0.1013
 4833SOL    HW214881   2.392   0.464   4.414 -1.1465  0.0440  0.2139
 4834SOL     OW14882   4.520   4.984   5.380  0.4713  0.1920 -0.4123
 4834SOL    HW114883   4.544   5.046   5.311  0.2987  0.9556  0.2130
 4834SOL    HW214884   4.592   4.989   5.443 -0.3230  0.9576  0.4418
 4835SOL     OW14885   4.461   5.983   2.048 -0.4387  0.0437  0.2125
 4835SOL    HW114886   4.498   5.971   1.961  1.2273 -0.6723  0.9817
 4835SOL    HW214887   4.488   6.071   2.073 -0.8134  0.2048  0.0362
 4836SOL     OW14888   4.704   2.102   1.013  0.4825 -0.1289 -0.3595
 4836SOL    HW114889   4.732   2.147   1.093 -1.7453  1.3786 -0.4031
 4836SOL    HW214890   4.668   2.171   0.957  1.2868 -1.2870 -2.3708
 4837SOL     OW14891   0.360   0.838   1.469 -0.6750  0.1770 -0.0680
 4837SOL    HW114892   0.411   0.763   1.440  1.0198  0.9652  0.8020
 4837SOL    HW214893   0.278   0.832   1.420 -0.1189 -1.6155 -0.8091
 4838SOL     OW14894   3.667   3.576   3.057  0.3445  0.2862 -0.5955
 4838SOL    HW114895   3.641   3.608   2.971 -0.9731 -0.3022 -0.4239
 4838SOL    HW214896   3.752   3.535   3.043 -0.3527 -0.7670 -1.8265
 4839SOL     OW14897   4.368   2.906   1.650  0.3775 -0.4233 -0.1557
 4839SOL    HW114898   4.283   2.941   1.677 -0.4769 -1.0328 -2.0462
 4839SOL    HW214899   4.394   2.849   1.723 -2.3996 -2.8675 -0.9887
 4840SOL     OW14900   0.347   4.688   3.585 -0.2511  0.2028  0.1459
 4840SOL    HW114901   0.258   4.722   3.577 -0.2659  0.0139 -0.4930
 4840SOL    HW214902   0.398   4.739   3.521  0.2362  0.7660  0.9606
 4841SOL     OW14903   1.646   6.061   1.765 -0.1089  0.2315 -0.1042
 4841SOL    HW114904   1.625   6.131   1.703  1.8709  1.0803  0.1291
 4841SOL    HW214905   1.666   6.107   1.846  1.8393 -0.5457 -0.1206
 4842SOL     OW14906   0.414   5.083   4.765  0.0452  0.6192 -0.1157
 4842SOL    HW114907   0.400   5.143   4.838  0.4425 -0.7854  1.1437
 4842SOL    HW214908   0.338   5.097   4.708 -0.2531  1.7580  0.5413
 4843SOL     OW14909   2.699   5.000   2.295 -0.1074  0.1929 -0.4366
 4843SOL    HW114910   2.644   4.922   2.304  1.3111 -0.8210 -0.4218
 4843SOL    HW214911   2.691   5.024   2.202  0.3752 -0.6493 -0.6943
 4844SOL     OW14912   0.170   3.144   5.321 -0.6677 -0.1488  0.3388
 4844SOL    HW114913   0.217   3.165   5.402  0.4047  0.4895 -0.4354
 4844SOL    HW214914   0.153   3.229   5.281  0.8446 -0.5460 -1.2211
 4845SOL     OW14915   5.573   0.405   5.995 -0.4674 -0.3001 -0.6345
 4845SOL    HW114916   5.646   0.344   5.992 -0.3059 -0.2010  1.0569
 4845SOL    HW214917   5.577   0.452   5.911 -0.0123 -1.9084 -1.5253
 4846SOL     OW14918   3.020   2.500   5.513  0.3031 -0.0370 -0.6303
 4846SOL    HW114919   3.054   2.427   5.462 -0.1304 -0.8122  0.1706
 4846SOL    HW214920   3.097   2.541   5.551  0.4503 -1.1880  0.3747
 4847SOL     OW14921   0.408   6.312   2.196 -0.1111  0.1532 -0.6239
 4847SOL    HW114922   0.479   6.287   2.136 -0.9642  2.9876 -2.9798
 4847SOL    HW214923   0.417   6.407   2.205 -2.5562  0.3230  0.4095
 4848SOL     OW14924   5.249   5.139   0.889  0.0140  1.2586  0.3202
 4848SOL    HW114925   5.273   5.063   0.836 -0.7142  1.1160  0.1848
 4848SOL    HW214926   5.320   5.202   0.874  0.9728  0.3507  0.9804
 4849SOL     OW14927   5.895   4.216   3.513  0.0946  0.1696  0.5932
 4849SOL    HW114928   5.806   4.220   3.549 -0.2175  0.6093 -0.2108
 4849SOL    HW214929   5.945   4.279   3.565 -0.6497  1.7313 -0.5344
 4850SOL     OW14930   4.551   1.858   2.486  0.3606  0.3571 -0.0753
 4850SOL    HW114931   4.509   1.918   2.546  1.5001  0.4982  0.5938
 4850SOL    HW214932   4.481   1.830   2.427 -0.1895  2.2826 -0.3589
 4851SOL     OW14933   0.250   0.068   1.465 -0.0440 -0.3067 -0.3245
 4851SOL    HW114934   0.290   0.136   1.410  0.0297  1.9532  2.3988
 4851SOL    HW214935   0.156   0.084   1.457 -0.3144 -2.8589 -3.2680
 4852SOL     OW14936   1.220   1.332   6.003  0.0893 -0.2007 -0.0760
 4852SOL    HW114937   1.199   1.276   5.929  3.2369 -1.6504  0.0636
 4852SOL    HW214938   1.195   1.281   6.080  0.1724 -0.1916 -0.0425
 4853SOL     OW14939   5.587   1.295   2.854  0.4486 -0.0361  0.5227
 4853SOL    HW114940   5.668   1.324   2.896  0.2747 -0.3718  1.1037
 4853SOL    HW214941   5.517   1.337   2.905  0.2228 -0.7608  0.8270
 4854SOL     OW14942   0.712   1.149   2.220  0.1073 -0.2894  0.0877
 4854SOL    HW114943   0.771   1.211   2.179  0.9227  0.4899  2.3445
 4854SOL    HW214944   0.634   1.148   2.165  1.4772  0.1076 -1.8720
 4855SOL     OW14945   5.228   6.358   3.220  0.3294  0.2776  0.1578
 4855SOL    HW114946   5.301   6.347   3.282 -1.1431 -2.9812  1.4759
 4855SOL    HW214947   5.258   6.314   3.141 -0.5498 -1.9991  1.0525
 4856SOL     OW14948   2.727   0.850   0.656 -0.4049  0.1612 -0.4940
 4856SOL    HW114949   2.747   0.756   0.652 -1.3639 -0.1349  0.9836
 4856SOL    HW214950   2.645   0.859   0.607 -0.7774  0.0767  0.1091
 4857SOL     OW14951   1.654   3.302   6.238 -0.0953 -0.0611 -0.2165
 4857SOL    HW114952   1.599   3.237   6.193  2.1675 -0.6361 -2.2771
 4857SOL    HW214953   1.624   3.386   6.205 -0.0058 -0.3612 -1.1050
 4858SOL     OW14954   4.769   3.861   5.116  0.3006  0.2661  0.2306
 4858SOL    HW114955   4.754   3.770   5.144  0.6924  0.2741  0.4726
 4858SOL    HW214956   4.820   3.899   5.187  0.3191  0.6164  0.0268
 4859SOL     OW14957   4.999   3.673   1.143 -0.1274  0.1018 -0.0935
 4859SOL    HW114958   4.909   3.646   1.125 -0.7315  0.3131  2.4451
 4859SOL    HW214959   5.028   3.614   1.212  1.6145  0.1967 -0.7308
 4860SOL     OW14960   0.010   0.223   3.023  0.4098 -0.3396  0.0311
 4860SOL    HW114961  -0.078   0.192   3.001 -0.1723  0.7398  0.8255
 4860SOL    HW214962   0.005   0.246   3.115  2.1528 -2.4503  0.6897
 4861SOL     OW14963   6.159   5.532   5.688  0.1662  0.8235  0.0801
 4861SOL    HW114964   6.088   5.577   5.642  0.0632  0.4297 -0.1533
 4861SOL    HW214965   6.192   5.596   5.750 -1.4556  0.4859  1.3166
 4862SOL     OW14966   5.146   3.241   2.090 -0.7505 -0.1202  0.0278
 4862SOL    HW114967   5.116   3.195   2.012  1.5825 -2.3222  0.3522
 4862SOL    HW214968   5.194   3.316   2.056 -0.0148 -0.8942 -0.6753
 4863SOL     OW14969   0.136   1.002   2.259  0.2248  0.0947 -0.2866
 4863SOL    HW114970   0.086   0.992   2.178  0.6618  1.4351 -0.7535
 4863SOL    HW214971   0.225   0.975   2.236  0.1820 -0.2482 -0.0473
 4864SOL     OW14972   2.975   2.371   3.628 -0.0418 -0.1447  0.0917
 4864SOL    HW114973   3.063   2.407   3.627 -0.2879  0.4603 -0.4624
 4864SOL    HW214974   2.949   2.369   3.536 -0.3696 -0.8986  0.2005
 4865SOL     OW14975   3.674   4.970   6.252 -0.4106  0.3158 -0.1230
 4865SOL    HW114976   3.769   4.974   6.250 -0.3607 -1.1560 -2.2304
 4865SOL    HW214977   3.649   5.022   6.328  2.1104 -0.0376  0.9782
 4866SOL     OW14978   4.745   1.877   5.830  0.1459 -0.6326  0.3953
 4866SOL    HW114979   4.656   1.905   5.809  0.2777  0.3135  1.0714
 4866SOL    HW214980   4.789   1.956   5.861  0.7250 -1.4407  1.6788
 4867SOL     OW14981   2.235   3.628   4.940 -0.5727  0.1249 -0.2772
 4867SOL    HW114982   2.146   3.651   4.968 -0.2440  2.1287 -0.8043
 4867SOL    HW214983   2.289   3.701   4.968  0.6913 -0.4422 -1.1672
 4868SOL     OW14984   4.165   3.028   1.833  0.8117  0.2199 -0.3579
 4868SOL    HW114985   4.121   2.970   1.896  0.9652 -0.4047 -0.8245
 4868SOL    HW214986   4.176   3.111   1.881  0.1990  0.0050  0.1637
 4869SOL     OW14987   1.259   5.382   2.153 -0.0196 -0.2234  0.0538
 4869SOL    HW114988   1.242   5.288   2.154  2.9185 -0.8329 -1.6390
 4869SOL    HW214989   1.221   5.411   2.070 -3.7780  0.7664  1.9808
 4870SOL     OW14990   2.182   5.118   0.585  0.0306 -0.7487  0.0613
 4870SOL    HW114991   2.113   5.184   0.586  1.8683  1.2507 -0.3335
 4870SOL    HW214992   2.163   5.065   0.507 -0.7274  0.1390 -0.3695
 4871SOL     OW14993   0.659   2.769   4.850  0.0863 -0.1041  0.7376
 4871SOL    HW114994   0.588   2.709   4.827 -0.0017  0.1986  0.2212
 4871SOL    HW214995   0.683   2.810   4.768  0.8473 -0.1866  0.9185
 4872SOL     OW14996   3.540   6.356   0.540  0.1658 -0.2908  0.2217
 4872SOL    HW114997   3.488   6.425   0.581 -0.4039  0.0684 -1.0596
 4872SOL    HW214998   3.609   6.403   0.493 -0.7730 -0.5025 -1.4263
 4873SOL     OW14999   3.128   4.649   3.000 -0.1311 -0.0432 -0.4395
 4873SOL    HW115000   3.206   4.676   2.951  0.8724  0.7205  1.5237
 4873SOL    HW215001   3.061   4.636   2.933  1.4293  0.1807 -2.0808
 4874SOL     OW15002   3.338   2.076   4.937 -0.5228  0.1853 -0.2562
 4874SOL    HW115003   3.291   1.993   4.941  0.1786 -0.2448 -0.6370
 4874SOL    HW215004   3.382   2.074   4.852 -0.1239  0.7338 -0.0666
 4875SOL     OW15005   5.772   4.568   4.780 -0.0200  0.3522 -0.7505
 4875SOL    HW115006   5.796   4.660   4.785 -0.5758  0.4800 -0.3940
 4875SOL    HW215007   5.810   4.537   4.698 -0.2792  1.0293 -1.1227
 4876SOL     OW15008   5.272   5.385   4.204 -0.4693  0.0087  0.2404
 4876SOL    HW115009   5.179   5.409   4.203 -0.4943 -0.1249 -0.5734
 4876SOL    HW215010   5.316   5.464   4.234 -0.6804  0.6669 -1.1370
 4877SOL     OW15011   4.662   5.876   5.130 -0.8153  0.0295 -0.2401
 4877SOL    HW115012   4.591   5.901   5.072 -1.2817  1.5589  0.9488
 4877SOL    HW215013   4.728   5.944   5.119 -0.6102 -0.0381  0.5118
 4878SOL     OW15014   1.078   3.482   1.601  0.4692  0.2545  0.4758
 4878SOL    HW115015   1.103   3.397   1.637  0.8127  0.2140  0.1445
 4878SOL    HW215016   0.982   3.483   1.605  0.5240  0.8577  2.7803
 4879SOL     OW15017   3.865   6.045   3.108 -0.0307 -0.4406  0.0157
 4879SOL    HW115018   3.930   6.099   3.152 -2.1227  1.4440  0.8934
 4879SOL    HW215019   3.857   6.083   3.021 -1.3442  0.5652  0.5599
 4880SOL     OW15020   4.702   0.092   0.989 -0.2420  0.0090 -0.3886
 4880SOL    HW115021   4.646   0.053   0.922 -0.0246 -2.0036  0.5796
 4880SOL    HW215022   4.735   0.172   0.948 -2.0497  0.0765 -1.7814
 4881SOL     OW15023   0.824   2.935   3.773 -0.1485 -0.1258  0.1975
 4881SOL    HW115024   0.839   2.993   3.848  1.1504 -0.1717 -0.0105
 4881SOL    HW215025   0.825   2.847   3.810 -0.0266 -0.1219  0.2031
 4882SOL     OW15026   6.046   3.196   0.453  0.3931  0.0040 -0.0176
 4882SOL    HW115027   6.020   3.233   0.369  0.7845  0.9019  0.2567
 4882SOL    HW215028   6.123   3.142   0.432  2.1569  2.3833  0.1841
 4883SOL     OW15029   6.042   0.757   5.018 -0.4988 -0.5687  0.5241
 4883SOL    HW115030   6.107   0.692   5.043  0.3872  0.0998 -0.0070
 4883SOL    HW215031   5.957   0.715   5.034  0.0676 -1.6793  0.6010
 4884SOL     OW15032   5.893   0.566   0.801 -0.0823  0.1544 -0.3817
 4884SOL    HW115033   5.931   0.647   0.836 -0.2141  0.5228 -1.0820
 4884SOL    HW215034   5.924   0.498   0.860  1.2005  0.5204 -0.6087
 4885SOL     OW15035   0.618   4.640   3.759  0.4384  0.0727  0.0444
 4885SOL    HW115036   0.636   4.591   3.839  0.3143  0.9037  0.5983
 4885SOL    HW215037   0.522   4.645   3.754  0.4445 -0.0692 -0.2078
 4886SOL     OW15038   1.499   3.790   5.535  0.0368  0.4783  0.1769
 4886SOL    HW115039   1.467   3.778   5.446  2.8255 -3.2609 -0.4749
 4886SOL    HW215040   1.449   3.727   5.587  0.0859  0.9517  0.7987
 4887SOL     OW15041   2.675   1.105   4.430 -0.5363 -0.0058  0.3174
 4887SOL    HW115042   2.741   1.040   4.456 -0.3546 -0.4757 -1.2181
 4887SOL    HW215043   2.726   1.175   4.388 -0.6893  1.3577  2.3197
 4888SOL     OW15044   2.748   3.320   2.595 -0.1638 -0.7744  0.4391
 4888SOL    HW115045   2.826   3.327   2.649  0.0851  1.6191 -0.1765
 4888SOL    HW215046   2.680   3.365   2.645 -0.7409 -1.3743  0.2053
 4889SOL     OW15047   0.742   2.859   5.819 -0.5262  0.4440  0.1823
 4889SOL    HW115048   0.723   2.914   5.743 -0.2439  0.5041  0.1536
 4889SOL    HW215049   0.834   2.833   5.808 -0.3064  0.9409  0.8093
 4890SOL     OW15050   2.212   1.728   1.954 -0.1175  0.6281 -0.0063
 4890SOL    HW115051   2.239   1.781   1.880  0.7128 -0.5738 -0.5767
 4890SOL    HW215052   2.190   1.643   1.916  1.3554 -0.3364  1.2620
 4891SOL     OW15053   0.515   4.616   5.340 -0.3295  0.1395 -0.0079
 4891SOL    HW115054   0.535   4.681   5.272  0.1771  1.1182  1.0416
 4891SOL    HW215055   0.434   4.576   5.312 -0.8492  1.4960 -0.5119
 4892SOL     OW15056   1.768   2.833   2.234 -0.0945  0.1747  0.4237
 4892SOL    HW115057   1.695   2.791   2.189 -1.1048  0.2943  1.9173
 4892SOL    HW215058   1.728   2.876   2.310  1.4707  0.5577  1.0528
 4893SOL     OW15059   6.212   4.016   1.347 -0.3704 -0.0546  0.0979
 4893SOL    HW115060   6.255   4.099   1.364  0.1942  0.1299 -2.0421
 4893SOL    HW215061   6.222   3.966   1.428  1.4179  1.0424  0.5756
 4894SOL     OW15062   1.832   4.290   6.167 -0.2180 -0.5713 -0.0597
 4894SOL    HW115063   1.888   4.297   6.090 -0.3668 -1.9728 -0.2992
 4894SOL    HW215064   1.861   4.361   6.224 -0.1194  0.4905 -1.4062
 4895SOL     OW15065   0.712   3.112   1.721  0.0252 -0.0705  0.0352
 4895SOL    HW115066   0.704   3.048   1.792 -0.0448  0.4596  0.5110
 4895SOL    HW215067   0.796   3.155   1.737  1.3549 -1.8704 -1.8147
 4896SOL     OW15068   4.954   0.336   4.233  0.3260  0.3198  0.1000
 4896SOL    HW115069   5.043   0.362   4.258  0.4422 -0.7703  0.8616
 4896SOL    HW215070   4.923   0.284   4.308 -0.6423 -0.0120 -0.5265
 4897SOL     OW15071   0.431   6.047   5.981 -0.2517 -0.0642  1.2633
 4897SOL    HW115072   0.518   6.057   5.943 -0.7328  1.1956  0.4720
 4897SOL    HW215073   0.371   6.065   5.908 -1.1714 -0.3196  1.9538
 4898SOL     OW15074   5.391   3.456   1.185  0.8459  0.9538  0.2484
 4898SOL    HW115075   5.356   3.379   1.141  2.1994  0.4308  0.0866
 4898SOL    HW215076   5.485   3.452   1.172  0.9420  2.6183  0.2652
 4899SOL     OW15077   5.720   4.221   0.943  0.1714  0.4130  0.6697
 4899SOL    HW115078   5.783   4.214   0.872 -0.5499  0.2565  0.0352
 4899SOL    HW215079   5.766   4.187   1.020  0.2800 -1.3484 -0.1524
 4900SOL     OW15080   1.637   5.417   0.881 -0.7405 -0.5661 -0.3062
 4900SOL    HW115081   1.715   5.378   0.921  0.1519  0.7814 -0.7023
 4900SOL    HW215082   1.627   5.501   0.925 -1.7698 -0.5662 -0.5176
 4901SOL     OW15083   3.743   0.039   3.992 -0.2432  0.0179  0.3925
 4901SOL    HW115084   3.708   0.018   4.078  3.1334  0.7366  2.0500
 4901SOL    HW215085   3.779  -0.043   3.960 -1.3657 -0.2150 -0.2954
 4902SOL     OW15086   0.109   0.305   1.322 -0.6825 -0.3087 -0.2072
 4902SOL    HW115087   0.032   0.256   1.348  0.5269 -2.1193  0.0567
 4902SOL    HW215088   0.150   0.332   1.404 -0.3153 -0.5236 -0.3150
 4903SOL     OW15089   4.860   4.397   3.455 -0.2533 -0.8028 -0.3889
 4903SOL    HW115090   4.836   4.352   3.536 -1.9908  1.2865  0.3114
 4903SOL    HW215091   4.937   4.350   3.423  2.1341 -0.0116  3.8733
 4904SOL     OW15092   3.035   5.682   3.131  0.1438  0.0147 -0.3148
 4904SOL    HW115093   3.035   5.658   3.223 -0.0446 -0.2955 -0.3956
 4904SOL    HW215094   3.128   5.696   3.110  0.0998  1.0111  0.1544
 4905SOL     OW15095   3.308   3.192   1.829 -0.3795 -0.1867  0.1946
 4905SOL    HW115096   3.311   3.097   1.821  0.8377 -0.2418  1.1619
 4905SOL    HW215097   3.254   3.209   1.906 -0.6107 -0.0857  0.0132
 4906SOL     OW15098   1.288   4.205   6.374  0.7451 -0.3035  0.1502
 4906SOL    HW115099   1.302   4.138   6.441  0.3646 -0.7724 -0.2307
 4906SOL    HW215100   1.242   4.275   6.420 -1.4169 -1.5170 -0.0833
 4907SOL     OW15101   2.702   2.031   3.688 -0.2473 -0.3256 -0.6058
 4907SOL    HW115102   2.682   2.069   3.603 -1.6943 -0.2616 -0.2459
 4907SOL    HW215103   2.796   2.044   3.699 -0.0072 -0.5436 -2.2946
 4908SOL     OW15104   0.862   6.251   1.893 -0.2098  0.1062 -0.4659
 4908SOL    HW115105   0.823   6.182   1.839  0.1659  0.6323 -1.4360
 4908SOL    HW215106   0.937   6.281   1.841  0.2442  0.5267  0.4273
 4909SOL     OW15107   5.170   2.582   6.159  0.7098 -0.0223  0.1639
 4909SOL    HW115108   5.157   2.642   6.232 -0.9892  0.9692 -0.9033
 4909SOL    HW215109   5.226   2.630   6.098 -1.5941  0.9858 -1.2144
 4910SOL     OW15110   3.631   2.834   3.450  0.1468 -0.3538  0.1361
 4910SOL    HW115111   3.645   2.918   3.406  2.3662 -0.3766  0.7508
 4910SOL    HW215112   3.642   2.768   3.382 -0.8104 -0.2036 -0.1768
 4911SOL     OW15113   0.697   2.757   2.197  0.0166 -0.4079 -0.0335
 4911SOL    HW115114   0.771   2.804   2.234  0.3899 -3.0408  2.7666
 4911SOL    HW215115   0.620   2.804   2.228  0.4480  1.5171 -1.7971
 4912SOL     OW15116   2.858   0.864   2.564 -0.1843 -0.3727  0.1688
 4912SOL    HW115117   2.860   0.805   2.640 -2.4687 -1.4501 -0.5565
 4912SOL    HW215118   2.818   0.944   2.597  2.2572  0.5539  0.9802
 4913SOL     OW15119   5.374   5.667   1.090 -0.5084 -0.2373  0.9339
 4913SOL    HW115120   5.467   5.667   1.067 -0.6611 -2.7448  0.1516
 4913SOL    HW215121   5.343   5.754   1.066  1.1618 -0.0993 -0.8499
 4914SOL     OW15122   5.973   0.702   2.130  0.3623  0.2145  0.3194
 4914SOL    HW115123   5.901   0.764   2.140 -0.0471 -0.3954  1.1707
 4914SOL    HW215124   6.008   0.720   2.043  0.0691  1.4554  0.4433
 4915SOL     OW15125   2.130   2.950   4.774 -0.5853  0.0777  0.0092
 4915SOL    HW115126   2.157   2.930   4.864 -1.5903  0.6219  0.4279
 4915SOL    HW215127   2.175   3.032   4.754 -1.0467  0.4019  0.3120
 4916SOL     OW15128   6.314   1.388   3.024 -0.0409 -0.4340  0.5891
 4916SOL    HW115129   6.282   1.455   2.963  1.0678 -0.6277 -0.2206
 4916SOL    HW215130   6.347   1.318   2.967 -0.5368 -1.3540  1.4266
 4917SOL     OW15131   6.367   2.659   1.611 -0.3436 -0.2418  0.2652
 4917SOL    HW115132   6.362   2.679   1.517 -1.5106  1.5789  0.6922
 4917SOL    HW215133   6.458   2.676   1.634 -0.2665  0.2075 -0.3468
 4918SOL     OW15134   4.136   5.842   3.231 -0.1538  0.4037 -0.0647
 4918SOL    HW115135   4.101   5.825   3.319 -0.6653 -1.2823 -0.5768
 4918SOL    HW215136   4.094   5.776   3.176  0.9739  0.7807 -1.3894
 4919SOL     OW15137   2.979   4.882   3.478  0.0862 -0.2251  0.1885
 4919SOL    HW115138   2.945   4.959   3.432  0.3686  0.2864  0.8346
 4919SOL    HW215139   2.902   4.846   3.524 -0.2779 -0.9526 -0.9680
 4920SOL     OW15140   3.642   2.453   5.528 -0.1832  0.7165  0.4363
 4920SOL    HW115141   3.645   2.364   5.564  1.6870  0.7885  0.5115
 4920SOL    HW215142   3.549   2.468   5.508 -0.8475 -0.4433  2.4430
 4921SOL     OW15143   4.112   1.132   3.156 -0.3603 -0.4435  0.6112
 4921SOL    HW115144   4.110   1.094   3.068 -1.3236  1.1311 -0.0523
 4921SOL    HW215145   4.116   1.056   3.214 -1.2188 -1.5473 -0.7385
 4922SOL     OW15146   6.094   2.066   3.349  0.8022 -0.1369 -0.3328
 4922SOL    HW115147   6.140   1.999   3.401 -0.0205 -0.0071  0.5882
 4922SOL    HW215148   6.157   2.093   3.283  0.9940 -2.1511 -1.0041
 4923SOL     OW15149   0.755   5.089   0.184 -0.0961 -0.1926 -0.3915
 4923SOL    HW115150   0.711   5.061   0.264  2.2878 -5.2210 -0.6517
 4923SOL    HW215151   0.844   5.110   0.210 -0.2998  1.8279 -1.1919
 4924SOL     OW15152   0.912   1.564   3.054 -0.3629 -0.3375  0.7830
 4924SOL    HW115153   0.977   1.587   2.987 -0.5181  0.9744  1.0690
 4924SOL    HW215154   0.962   1.558   3.135 -0.5200  0.2117  0.9223
 4925SOL     OW15155   4.126   6.222   3.100 -0.3304 -0.3609 -1.3463
 4925SOL    HW115156   4.111   6.312   3.071 -0.3431  0.0207 -0.2100
 4925SOL    HW215157   4.201   6.192   3.050  1.5780  1.3265  0.4064
 4926SOL     OW15158   0.127   5.174   2.976  0.4550  0.3045 -0.3052
 4926SOL    HW115159   0.177   5.109   2.926  1.3336  0.2354  0.6464
 4926SOL    HW215160   0.190   5.245   2.992 -0.9070  2.1297 -2.6496
 4927SOL     OW15161   4.817   2.778   4.382 -0.3786  0.3299 -0.9857
 4927SOL    HW115162   4.821   2.861   4.335 -0.8666 -0.5277 -2.5869
 4927SOL    HW215163   4.904   2.740   4.372  0.3157  1.3124  1.0439
 4928SOL     OW15164   4.928   3.086   0.157  0.1764 -0.5617  0.3533
 4928SOL    HW115165   4.835   3.100   0.139  0.2902 -0.4418 -0.1458
 4928SOL    HW215166   4.935   3.087   0.253 -0.2267  0.1053  0.3751
 4929SOL     OW15167   4.046   0.854   5.747 -0.1103 -0.2378  0.3851
 4929SOL    HW115168   4.080   0.803   5.673 -0.6441  0.8444 -0.6135
 4929SOL    HW215169   3.962   0.813   5.768 -0.6616  0.3890 -0.5859
 4930SOL     OW15170   0.484   5.440   1.611 -0.4300  0.1288 -0.8137
 4930SOL    HW115171   0.433   5.511   1.651 -0.8292  0.3400 -1.6930
 4930SOL    HW215172   0.420   5.371   1.595 -0.0598 -0.4011 -0.0582
 4931SOL     OW15173   1.323   4.178   5.591  0.8098 -0.3010 -0.4744
 4931SOL    HW115174   1.330   4.195   5.685  0.4360  1.2162 -0.7008
 4931SOL    HW215175   1.255   4.238   5.561  0.5859 -1.1265 -1.6315
 4932SOL     OW15176   2.742   4.125   2.799  0.5489 -0.3493 -0.2842
 4932SOL    HW115177   2.785   4.039   2.802 -0.1970 -0.7164  0.2137
 4932SOL    HW215178   2.648   4.104   2.794  0.3642  0.4404 -0.1435
 4933SOL     OW15179   4.145   0.077   2.973 -0.2056 -0.5411  0.3453
 4933SOL    HW115180   4.106   0.089   2.886 -1.5591 -1.8029  0.7561
 4933SOL    HW215181   4.239   0.075   2.957 -0.4587 -1.1855 -1.1504
 4934SOL     OW15182   3.239   4.557   2.321  0.5040 -0.2615 -0.1088
 4934SOL    HW115183   3.303   4.575   2.251  0.6424 -0.3976 -0.0161
 4934SOL    HW215184   3.176   4.628   2.313  2.0414  1.3486  1.4380
 4935SOL     OW15185   0.938   4.935   5.402 -0.1436  0.6686  0.0815
 4935SOL    HW115186   0.896   4.934   5.316 -0.8084  0.0788  0.4010
 4935SOL    HW215187   0.950   5.028   5.423  0.9940  0.7942 -1.1042
 4936SOL     OW15188   6.086   2.820   1.561  0.1516 -0.3217 -0.1657
 4936SOL    HW115189   6.049   2.847   1.646 -0.2808 -1.7068  0.0871
 4936SOL    HW215190   6.046   2.735   1.543  1.3829 -0.7206 -1.0546
 4937SOL     OW15191   6.079   2.615   2.773 -0.2792  0.1232  0.0543
 4937SOL    HW115192   6.003   2.566   2.741 -2.2572  2.5143  0.8458
 4937SOL    HW215193   6.049   2.652   2.856  1.5091  1.7012  0.0230
 4938SOL     OW15194   0.952   1.272   2.175  0.1426  0.0893  0.3255
 4938SOL    HW115195   1.000   1.193   2.200 -1.5402 -0.6809  1.2249
 4938SOL    HW215196   0.937   1.318   2.257 -0.5637  0.3662  0.0468
 4939SOL     OW15197   5.045   2.940   6.191  0.0636  0.1864 -0.3270
 4939SOL    HW115198   5.125   2.913   6.235 -0.0589  1.2049  0.5221
 4939SOL    HW215199   5.029   3.030   6.220 -1.3721  0.0112 -0.4947
 4940SOL     OW15200   1.940   0.591   5.043 -0.3823 -0.0503  0.2798
 4940SOL    HW115201   1.874   0.611   5.109  0.9552  0.9290  1.3724
 4940SOL    HW215202   1.912   0.639   4.966 -1.3541 -0.2716  0.4868
 4941SOL     OW15203   5.498   1.424   3.413  0.2318  0.4799  0.3583
 4941SOL    HW115204   5.426   1.466   3.367  0.6353  0.1289 -0.6131
 4941SOL    HW215205   5.561   1.495   3.428  1.4386  0.0459 -2.3239
 4942SOL     OW15206   3.095   1.096   2.243  0.0202 -0.9068  0.0901
 4942SOL    HW115207   3.045   1.015   2.258 -0.9433 -0.8240 -2.3335
 4942SOL    HW215208   3.035   1.152   2.193  0.5015  1.5182  2.1339
 4943SOL     OW15209   2.160   5.841   3.419  0.3257  0.1522 -0.5841
 4943SOL    HW115210   2.092   5.775   3.433 -0.3292  1.0369  0.5420
 4943SOL    HW215211   2.237   5.805   3.465 -0.0737  0.2313  0.1641
 4944SOL     OW15212   3.487   1.976   1.657 -0.0437  0.1113 -0.1743
 4944SOL    HW115213   3.404   2.022   1.671  1.2103  2.1486  0.8346
 4944SOL    HW215214   3.486   1.952   1.564 -2.5303 -1.5135  0.2271
 4945SOL     OW15215   2.061   4.991   4.418 -0.3451 -0.0561  0.4871
 4945SOL    HW115216   2.097   5.032   4.339 -0.6364  1.0941  0.9464
 4945SOL    HW215217   2.002   4.923   4.385 -0.3033  0.2826 -0.2894
 4946SOL     OW15218   4.359   3.220   2.835  0.0507 -0.2904  0.2843
 4946SOL    HW115219   4.439   3.227   2.886  0.5922  1.7809 -0.7844
 4946SOL    HW215220   4.324   3.309   2.834 -2.0042 -1.0821  0.3147
 4947SOL     OW15221   3.928   0.082   2.087 -0.5399  0.2833 -0.6840
 4947SOL    HW115222   3.994   0.149   2.104  1.1965 -1.1204 -1.6701
 4947SOL    HW215223   3.978   0.001   2.077 -2.3513 -0.7081 -2.1364
 4948SOL     OW15224   1.883   5.048   5.531 -0.0583  0.1512 -0.6035
 4948SOL    HW115225   1.808   5.108   5.533  0.0060  0.1757  1.4916
 4948SOL    HW215226   1.846   4.962   5.552  0.3626  0.0015 -0.4729
 4949SOL     OW15227   0.334   5.443   0.605  0.3838 -0.0771 -0.1344
 4949SOL    HW115228   0.292   5.413   0.524 -0.1822 -0.4142  0.2846
 4949SOL    HW215229   0.396   5.510   0.576 -1.0290  1.0293 -0.6716
 4950SOL     OW15230   5.279   3.503   3.221 -0.2501 -0.2783  0.5525
 4950SOL    HW115231   5.347   3.547   3.170 -2.3116  0.2311 -1.9094
 4950SOL    HW215232   5.325   3.441   3.276  2.1671 -0.1668 -1.2827
 4951SOL     OW15233   5.888   1.021   6.336  0.0595  0.4476 -0.1164
 4951SOL    HW115234   5.803   0.997   6.300  1.0795 -2.1319 -0.9487
 4951SOL    HW215235   5.869   1.047   6.427 -1.7150  0.7693 -0.5659
 4952SOL     OW15236   4.291   6.266   0.823  0.0162  0.1802 -0.1185
 4952SOL    HW115237   4.336   6.204   0.880  2.3137  0.6204 -1.3656
 4952SOL    HW215238   4.345   6.346   0.827 -1.9058  1.4967  0.0670
 4953SOL     OW15239   1.026   4.006   1.932  0.1873 -0.9115  0.8366
 4953SOL    HW115240   0.934   4.033   1.924  0.6218 -0.0342 -1.4410
 4953SOL    HW215241   1.061   4.014   1.843  2.5814 -0.8395  1.7630
 4954SOL     OW15242   1.696   3.851   2.537  0.2723  0.1274 -0.1690
 4954SOL    HW115243   1.696   3.860   2.441 -0.3500 -0.3995 -0.2196
 4954SOL    HW215244   1.619   3.900   2.565  0.6971  0.6500  0.1040
 4955SOL     OW15245   1.936   5.636   0.796  0.1412  0.0297  0.0096
 4955SOL    HW115246   2.008   5.592   0.750  0.5843  0.6256  0.1413
 4955SOL    HW215247   1.912   5.708   0.738 -1.1267 -0.8485 -0.5934
 4956SOL     OW15248   2.409   4.237   5.748 -0.2781  0.4620 -0.4077
 4956SOL    HW115249   2.325   4.246   5.702  1.6334  0.3288 -4.1258
 4956SOL    HW215250   2.433   4.327   5.771 -1.5757  0.4682  1.0235
 4957SOL     OW15251   4.994   0.523   3.155 -0.3347  0.1475  0.5244
 4957SOL    HW115252   4.965   0.454   3.096 -0.8124  1.9946 -1.4659
 4957SOL    HW215253   4.913   0.559   3.192 -0.1238  0.1015  1.0384
 4958SOL     OW15254   6.328   0.205   5.871  0.1988 -0.2407  0.0128
 4958SOL    HW115255   6.354   0.188   5.961 -1.1970 -0.1396  0.4412
 4958SOL    HW215256   6.330   0.300   5.863 -1.5281 -0.1440  0.5151
 4959SOL     OW15257   1.171   3.648   0.479 -0.1796  0.1945 -0.5526
 4959SOL    HW115258   1.145   3.586   0.546  2.0211  1.8332  1.9316
 4959SOL    HW215259   1.132   3.731   0.507 -0.7260  0.5512 -2.3030
 4960SOL     OW15260   5.832   0.706   2.807  0.3101  0.1848  0.5248
 4960SOL    HW115261   5.876   0.640   2.861  0.1932  0.1586  0.5892
 4960SOL    HW215262   5.802   0.772   2.870  0.4717  0.3261  0.4554
 4961SOL     OW15263   5.511   3.779   1.315 -0.3812  0.4470  0.2920
 4961SOL    HW115264   5.424   3.768   1.277 -0.1045 -0.2132 -0.1541
 4961SOL    HW215265   5.567   3.799   1.240  0.2710 -1.3999  0.2811
 4962SOL     OW15266   4.137   2.728   2.239  0.7252  0.1748  0.0953
 4962SOL    HW115267   4.152   2.822   2.228  0.4560  0.1588 -0.4368
 4962SOL    HW215268   4.097   2.720   2.325  2.3411  0.3635  0.8801
 4963SOL     OW15269   2.246   1.208   4.225 -0.4838  0.5568 -0.2760
 4963SOL    HW115270   2.319   1.223   4.166 -0.0326  0.0917  0.1634
 4963SOL    HW215271   2.218   1.296   4.252 -0.9781  0.7919 -1.5234
 4964SOL     OW15272   2.401   3.024   3.010  0.0450 -0.5604  0.1334
 4964SOL    HW115273   2.440   2.976   2.938  1.9895  1.8568 -0.5104
 4964SOL    HW215274   2.336   3.081   2.969  1.0871  0.7481  0.2616
 4965SOL     OW15275   5.773   5.202   2.474 -0.1169 -0.5810 -0.2275
 4965SOL    HW115276   5.726   5.286   2.466 -0.2829 -0.8798 -2.7962
 4965SOL    HW215277   5.864   5.224   2.456  0.0240 -0.7644  0.2609
 4966SOL     OW15278   4.929   1.006   6.343 -0.5025 -0.6012 -0.2139
 4966SOL    HW115279   4.841   1.042   6.358  0.5740  1.4501  1.5238
 4966SOL    HW215280   4.965   1.060   6.273  0.5020  0.6657  1.2439
 4967SOL     OW15281   4.464   3.580   2.964 -0.7358  0.3657  0.0225
 4967SOL    HW115282   4.378   3.543   2.983 -0.0421 -1.3901 -0.1134
 4967SOL    HW215283   4.512   3.508   2.923  0.8164  1.2964  0.1710
 4968SOL     OW15284   3.669   2.928   1.723 -0.2642 -0.1028 -0.3841
 4968SOL    HW115285   3.586   2.898   1.687  0.3557 -2.8000  0.2427
 4968SOL    HW215286   3.646   2.965   1.808 -1.0328  0.9231 -1.0290
 4969SOL     OW15287   1.813   2.916   0.652  0.1174  0.2758  0.4327
 4969SOL    HW115288   1.832   3.007   0.674  0.1669  0.2580  0.4616
 4969SOL    HW215289   1.853   2.904   0.566 -0.2326  0.3995  0.2485
 4970SOL     OW15290   0.574   1.214   5.503  0.1734  0.3075  0.0108
 4970SOL    HW115291   0.553   1.299   5.464  0.0751  0.2763 -0.0052
 4970SOL    HW215292   0.489   1.169   5.509  0.3981 -0.2940 -1.1706
 4971SOL     OW15293   1.120   2.599   5.210  0.4662  0.4949 -0.1811
 4971SOL    HW115294   1.186   2.548   5.258  0.0134 -0.2046 -0.2910
 4971SOL    HW215295   1.129   2.688   5.244  1.4463  0.4016 -0.1762
 4972SOL     OW15296   4.473   2.005   0.206 -0.4368 -0.3211 -0.5490
 4972SOL    HW115297   4.494   1.922   0.250 -1.7994  0.6344  2.0565
 4972SOL    HW215298   4.407   2.045   0.262 -0.9383  1.8328 -2.6010
 4973SOL     OW15299   4.730   0.910   2.502  0.4943 -0.0786 -0.2502
 4973SOL    HW115300   4.766   0.827   2.471 -1.0772 -0.6667 -0.5208
 4973SOL    HW215301   4.708   0.958   2.422  1.6302  0.7146 -0.0980
 4974SOL     OW15302   3.342   5.225   1.400  0.2011 -0.4849 -0.2758
 4974SOL    HW115303   3.387   5.200   1.319  0.0544 -0.3257 -0.4089
 4974SOL    HW215304   3.263   5.270   1.370 -0.5073 -1.5594 -0.0545
 4975SOL     OW15305   1.262   2.472   0.985 -0.4001  0.5680 -0.2671
 4975SOL    HW115306   1.247   2.565   1.003  1.6612  1.2067 -1.6226
 4975SOL    HW215307   1.358   2.463   0.983 -0.5729 -1.2719 -1.7126
 4976SOL     OW15308   5.752   4.315   1.566 -0.3765  0.1418  0.3192
 4976SOL    HW115309   5.691   4.365   1.511  1.3297  0.9467 -0.8918
 4976SOL    HW215310   5.697   4.251   1.611 -1.9955  0.2812 -1.3917
 4977SOL     OW15311   4.640   4.787   5.968  0.2496  0.0408  0.2301
 4977SOL    HW115312   4.636   4.865   6.023 -1.1068 -0.2637  0.5865
 4977SOL    HW215313   4.600   4.718   6.021  0.4085 -0.6342 -0.5151
 4978SOL     OW15314   5.535   3.597   2.031  0.0402 -0.1774 -0.0932
 4978SOL    HW115315   5.518   3.684   2.068 -0.1320 -0.2700  0.0462
 4978SOL    HW215316   5.579   3.549   2.101  1.0646  0.1290 -0.5294
 4979SOL     OW15317   1.988   3.231   3.836 -0.1754  0.1581  0.3113
 4979SOL    HW115318   1.913   3.192   3.880 -1.2901  1.4499 -0.3943
 4979SOL    HW215319   1.953   3.262   3.752  1.6965 -1.4339 -1.0931
 4980SOL     OW15320   1.417   4.922   3.573  0.0449 -0.4559  0.6222
 4980SOL    HW115321   1.457   4.848   3.527  0.2595  0.2951 -0.4094
 4980SOL    HW215322   1.338   4.941   3.523 -0.3294 -0.3767  1.2440
 4981SOL     OW15323   4.992   6.193   0.434  0.0404  0.0055 -0.3419
 4981SOL    HW115324   5.022   6.226   0.349 -0.5542  0.3852 -0.4109
 4981SOL    HW215325   4.962   6.104   0.415 -1.6581  0.6626 -0.8889
 4982SOL     OW15326   2.431   1.518   6.011 -0.5126  0.1296 -0.0793
 4982SOL    HW115327   2.379   1.440   5.993 -3.0397  2.2694 -2.4389
 4982SOL    HW215328   2.392   1.555   6.090  0.5225 -0.7976  0.8909
 4983SOL     OW15329   2.350   2.140   4.944  0.0233  0.2176 -0.1570
 4983SOL    HW115330   2.356   2.124   5.038  2.9703  2.4299  0.0856
 4983SOL    HW215331   2.276   2.200   4.934 -0.6315 -0.4459  0.6722
 4984SOL     OW15332   0.820   2.001   5.456  0.0402 -0.0321  0.6923
 4984SOL    HW115333   0.770   2.070   5.414 -0.9343  0.4898  2.6314
 4984SOL    HW215334   0.818   2.023   5.549  2.2996 -1.0338  1.0086
 4985SOL     OW15335   2.393   3.893   0.169  0.5892  0.0083  0.3183
 4985SOL    HW115336   2.372   3.814   0.119 -0.0884  0.0693  0.5076
 4985SOL    HW215337   2.488   3.899   0.163  0.7003 -1.1033  0.7195
 4986SOL     OW15338   3.667   5.016   2.333 -0.3986  0.6502  0.2816
 4986SOL    HW115339   3.572   5.024   2.342 -0.3743  1.2390  0.0310
 4986SOL    HW215340   3.697   5.106   2.322  0.1675  0.4429  0.1558
 4987SOL     OW15341   1.681   4.729   4.825  0.1191 -0.5219 -0.5859
 4987SOL    HW115342   1.670   4.780   4.905 -0.4556 -0.9248 -0.4057
 4987SOL    HW215343   1.746   4.777   4.774  0.9516 -0.6033  0.4006
 4988SOL     OW15344   2.662   5.860   3.199 -0.0012 -0.1355 -0.4298
 4988SOL    HW115345   2.604   5.878   3.124 -1.0832  0.1831  0.4657
 4988SOL    HW215346   2.700   5.945   3.220 -0.7175  0.0414  0.1981
 4989SOL     OW15347   4.715   2.533   4.291  0.7462  0.0183 -0.5833
 4989SOL    HW115348   4.710   2.624   4.320 -0.3278  0.5797 -2.4574
 4989SOL    HW215349   4.807   2.523   4.264  1.4174 -0.1224  1.6564
 4990SOL     OW15350   2.603   0.395   2.649  0.0314  0.5436 -0.3402
 4990SOL    HW115351   2.604   0.339   2.726 -1.6542  2.7643  1.3833
 4990SOL    HW215352   2.549   0.348   2.585 -0.2284 -0.4175  0.5870
 4991SOL     OW15353   4.180   1.558   1.037 -0.6659  0.4892 -0.0997
 4991SOL    HW115354   4.100   1.595   1.074 -1.7811 -1.4526 -0.5177
 4991SOL    HW215355   4.159   1.539   0.946  1.1158  2.4013 -0.9586
 4992SOL     OW15356   6.162   1.225   5.376  0.2320 -1.1777 -0.0353
 4992SOL    HW115357   6.133   1.138   5.403 -0.9858 -0.6878  0.2837
 4992SOL    HW215358   6.086   1.262   5.332  0.2308  0.3131  1.2039
 4993SOL     OW15359   0.341   5.876   1.787 -0.5892  0.2141 -0.6596
 4993SOL    HW115360   0.273   5.885   1.720 -0.4680 -0.2914 -0.8530
 4993SOL    HW215361   0.414   5.929   1.755 -0.4697 -0.1550 -1.0161
 4994SOL     OW15362   4.096   2.767   2.897  0.1218 -0.2819 -0.0007
 4994SOL    HW115363   4.097   2.764   2.802 -3.2480  1.8132 -0.2077
 4994SOL    HW215364   4.158   2.836   2.920  2.0195 -1.7769 -0.5654
 4995SOL     OW15365   3.160   4.910   0.291 -0.5993 -0.6681 -0.2323
 4995SOL    HW115366   3.181   4.928   0.200 -0.0929 -1.7235 -0.3299
 4995SOL    HW215367   3.066   4.894   0.291 -0.7280  0.1059 -0.4475
 4996SOL     OW15368   2.191   6.224   1.954  0.1945 -0.2906 -0.2489
 4996SOL    HW115369   2.229   6.231   2.042  1.1693 -0.9485 -0.6257
 4996SOL    HW215370   2.202   6.311   1.917  0.5088 -0.2377 -0.0312
 4997SOL     OW15371   3.459   0.559   0.176 -0.4649 -0.7175  0.2042
 4997SOL    HW115372   3.467   0.599   0.090 -1.0059 -0.3574  0.3165
 4997SOL    HW215373   3.483   0.467   0.163 -1.2804 -0.8435 -0.4894
 4998SOL     OW15374   3.373   2.226   0.765  0.5172 -0.0612  0.1394
 4998SOL    HW115375   3.435   2.165   0.725  2.9401  1.9596  0.6907
 4998SOL    HW215376   3.421   2.264   0.839 -0.9034  2.5635 -0.2292
 4999SOL     OW15377   1.686   3.237   4.417  0.3510  0.1096 -0.3516
 4999SOL    HW115378   1.701   3.157   4.367  0.3816  0.0482 -0.2423
 4999SOL    HW215379   1.752   3.235   4.486 -2.3143 -1.8429  2.2469
 5000SOL     OW15380   1.844   0.467   0.956 -0.1723  0.0763 -0.4721
 5000SOL    HW115381   1.788   0.469   0.879  1.0144  0.6534 -1.3428
 5000SOL    HW215382   1.921   0.416   0.928 -0.2590 -0.7048  0.6945
 5001SOL     OW15383   3.079   0.846   4.414  0.1838  0.1580  0.0171
 5001SOL    HW115384   3.171   0.871   4.401  0.2407  0.4059  0.8220
 5001SOL    HW215385   3.071   0.836   4.509 -0.9173  1.2569  0.0479
 5002SOL     OW15386   2.764   3.190   4.602  0.0830  0.1500 -0.6026
 5002SOL    HW115387   2.730   3.243   4.674  1.1524 -0.2788  0.2245
 5002SOL    HW215388   2.757   3.100   4.633 -0.4178 -0.1055 -1.4479
 5003SOL     OW15389   3.115   0.347   4.676 -0.1425  0.1896 -0.3051
 5003SOL    HW115390   3.198   0.357   4.723 -0.5874 -1.3334  0.8505
 5003SOL    HW215391   3.131   0.387   4.591  1.8433 -0.2182 -0.1550
 5004SOL     OW15392   2.840   0.480   0.227 -0.5445  0.2046 -0.0285
 5004SOL    HW115393   2.747   0.470   0.207 -0.6508 -3.5226  2.0130
 5004SOL    HW215394   2.885   0.447   0.149 -0.9174  0.0729 -0.1882
 5005SOL     OW15395   4.503   1.403   1.599  0.7698  0.4970 -0.5888
 5005SOL    HW115396   4.429   1.464   1.603  1.5472  1.3661  1.9788
 5005SOL    HW215397   4.467   1.319   1.627  0.9625  1.1880  1.8451
 5006SOL     OW15398   3.311   3.093   4.496  0.1693  0.8784  0.5303
 5006SOL    HW115399   3.399   3.124   4.519  0.5609 -0.5727  1.0331
 5006SOL    HW215400   3.293   3.022   4.557 -1.1343  0.7913  0.0724
 5007SOL     OW15401   4.442   0.990   6.256  0.0620 -0.0020 -0.4265
 5007SOL    HW115402   4.352   1.017   6.274 -0.2987 -1.1973 -0.4058
 5007SOL    HW215403   4.433   0.913   6.199  1.1065  1.0173 -1.9862
 5008SOL     OW15404   4.721   3.172   4.846 -0.0232 -0.2800 -0.0565
 5008SOL    HW115405   4.713   3.124   4.929 -2.4404 -0.2786 -0.2658
 5008SOL    HW215406   4.691   3.109   4.780  0.1321  0.3448 -0.7170
 5009SOL     OW15407   0.431   0.400   5.169  0.2320  0.0093 -0.1548
 5009SOL    HW115408   0.509   0.451   5.189 -0.7584  0.9174  1.4858
 5009SOL    HW215409   0.436   0.324   5.227 -0.5312  0.4959  0.5464
 5010SOL     OW15410   2.972   5.044   2.331 -0.4715 -0.0769  0.8466
 5010SOL    HW115411   2.977   5.126   2.379 -1.0616  1.1227 -1.1170
 5010SOL    HW215412   2.879   5.021   2.332 -0.8863  1.3105 -1.9084
 5011SOL     OW15413   4.576   4.784   5.715 -0.5461 -0.1799  0.2878
 5011SOL    HW115414   4.605   4.800   5.805  1.1309 -0.8235 -0.1063
 5011SOL    HW215415   4.503   4.844   5.702  0.0949  0.9188  1.6268
 5012SOL     OW15416   0.418   4.653   5.832  0.4703 -0.5370  0.3185
 5012SOL    HW115417   0.489   4.591   5.850  1.5052  0.7321  0.6924
 5012SOL    HW215418   0.446   4.699   5.752 -1.5414 -2.3705 -1.4917
 5013SOL     OW15419   2.131   2.298   5.923  0.0049 -0.3783 -0.3125
 5013SOL    HW115420   2.085   2.358   5.981 -0.1724 -3.0086  2.3690
 5013SOL    HW215421   2.075   2.294   5.845 -1.7595  0.2687  0.8805
 5014SOL     OW15422   2.364   0.778   4.845 -0.2803  0.6734  0.0170
 5014SOL    HW115423   2.418   0.713   4.889 -2.0284  0.1136  1.3978
 5014SOL    HW215424   2.415   0.859   4.849  1.0338 -0.1523  0.0640
 5015SOL     OW15425   0.581   2.673   0.361 -0.5569 -0.1263 -0.0834
 5015SOL    HW115426   0.574   2.762   0.396 -1.1764 -1.6926  4.0822
 5015SOL    HW215427   0.652   2.678   0.297 -0.4555  3.3108  0.1837
 5016SOL     OW15428   5.694   2.994   2.115 -0.0123  0.4276  0.4572
 5016SOL    HW115429   5.623   3.047   2.081 -1.0317  0.4712  2.5628
 5016SOL    HW215430   5.653   2.911   2.139  1.2549 -0.7199 -1.2152
 5017SOL     OW15431   2.767   1.160   0.048  0.5997  0.3907  0.3879
 5017SOL    HW115432   2.852   1.164   0.004  0.0881 -0.6374 -0.7140
 5017SOL    HW215433   2.788   1.168   0.141  1.8034  1.2899  0.0525
 5018SOL     OW15434   4.519   1.379   0.475 -0.0923  0.1296 -0.0902
 5018SOL    HW115435   4.476   1.293   0.480 -1.4351  0.6639 -1.8388
 5018SOL    HW215436   4.567   1.376   0.392  0.4490  0.8142  0.1982
 5019SOL     OW15437   3.393   4.672   2.821  0.0939  0.6496 -0.0166
 5019SOL    HW115438   3.369   4.647   2.732 -1.3250 -0.5053  0.6742
 5019SOL    HW215439   3.409   4.767   2.816  1.5280  0.3266 -1.8023
 5020SOL     OW15440   2.851   3.222   2.928 -0.1945 -0.2167  0.2845
 5020SOL    HW115441   2.775   3.215   2.871  0.4032 -0.4802 -0.4905
 5020SOL    HW215442   2.911   3.280   2.881  0.4384 -0.7061  0.4887
 5021SOL     OW15443   1.217   2.951   1.455  0.0410  0.1740  0.2853
 5021SOL    HW115444   1.183   2.862   1.447  0.4587  0.1390 -1.2975
 5021SOL    HW215445   1.242   2.975   1.366  1.7451  1.1537  1.0058
 5022SOL     OW15446   3.728   3.535   0.760  0.1491  0.1544  0.5542
 5022SOL    HW115447   3.739   3.605   0.825 -0.1615  0.1838  0.5757
 5022SOL    HW215448   3.791   3.556   0.692 -2.0016  2.1471 -0.8900
 5023SOL     OW15449   1.354   0.985   1.236 -0.1487  0.0775 -0.2223
 5023SOL    HW115450   1.365   1.028   1.151  0.8304  1.3744  0.5428
 5023SOL    HW215451   1.416   0.912   1.234  0.5187  0.6451 -0.2747
 5024SOL     OW15452   5.745   5.897   5.888 -0.6571  0.2049 -0.1054
 5024SOL    HW115453   5.745   5.934   5.800  0.6933  0.2832 -0.0864
 5024SOL    HW215454   5.815   5.945   5.934  1.8751 -3.0427 -0.3903
 5025SOL     OW15455   1.429   0.349   3.329 -0.2600 -0.3335 -0.0743
 5025SOL    HW115456   1.490   0.391   3.269 -1.5167  1.7378  0.0733
 5025SOL    HW215457   1.343   0.363   3.289 -0.7677 -2.2127  0.3101
 5026SOL     OW15458   5.968   4.735   1.869 -0.0231 -0.0005  0.1447
 5026SOL    HW115459   5.925   4.652   1.885 -0.7175  0.2392 -0.4394
 5026SOL    HW215460   5.978   4.738   1.774 -2.3779  1.7484 -0.0841
 5027SOL     OW15461   3.502   1.908   3.483  0.1890  0.5387  0.3703
 5027SOL    HW115462   3.585   1.951   3.464  1.2335 -1.2195  0.8426
 5027SOL    HW215463   3.502   1.895   3.578 -0.9507  1.1552  0.4713
 5028SOL     OW15464   2.000   2.492   4.474  0.5081  0.0183 -0.3698
 5028SOL    HW115465   2.022   2.410   4.518 -0.8536  0.0581  0.4112
 5028SOL    HW215466   1.907   2.504   4.490  0.8755  2.1851  0.2950
 5029SOL     OW15467   0.117   2.904   3.943  0.5463 -0.4094  0.2903
 5029SOL    HW115468   0.131   2.994   3.913  0.4996 -0.3827  0.3478
 5029SOL    HW215469   0.039   2.875   3.895  0.9058 -0.6201 -0.1635
 5030SOL     OW15470   0.022   0.474   4.846  0.4245  0.3041  0.2662
 5030SOL    HW115471  -0.040   0.527   4.897 -0.6030  1.0435 -1.6923
 5030SOL    HW215472   0.002   0.384   4.872 -1.1680  0.5624  0.0273
 5031SOL     OW15473   4.746   2.818   2.898 -0.3159  0.0427 -0.1024
 5031SOL    HW115474   4.784   2.885   2.956 -0.8421  0.8155 -0.6495
 5031SOL    HW215475   4.652   2.827   2.910 -0.3758 -1.1424  0.4196
 5032SOL     OW15476   0.007   1.861   4.166  0.1813  0.5386  0.0773
 5032SOL    HW115477  -0.042   1.942   4.156  0.8455  0.9576  0.1449
 5032SOL    HW215478   0.045   1.845   4.079 -0.0433  0.2412  0.0336
 5033SOL     OW15479   0.959   1.394   2.743  0.0046  0.7133 -0.1668
 5033SOL    HW115480   0.895   1.395   2.814  0.6680  1.7717  0.4223
 5033SOL    HW215481   1.025   1.457   2.769  0.8546  0.2581 -1.1847
 5034SOL     OW15482   4.269   2.453   0.197  0.3752  0.6846 -0.7140
 5034SOL    HW115483   4.353   2.485   0.164  1.0591 -0.4530 -0.1247
 5034SOL    HW215484   4.259   2.494   0.283  1.1333 -0.4691 -0.0644
 5035SOL     OW15485   1.679   1.430   5.899  0.2762 -0.3756 -0.0681
 5035SOL    HW115486   1.617   1.503   5.898 -0.5058 -1.0297  0.0266
 5035SOL    HW215487   1.624   1.352   5.898  1.1197 -0.9697 -1.1315
 5036SOL     OW15488   1.085   4.723   5.873  0.1135 -0.0077  0.0432
 5036SOL    HW115489   1.075   4.730   5.968 -2.5261 -0.1425 -0.1834
 5036SOL    HW215490   1.102   4.812   5.843  1.8974 -0.1035  0.7065
 5037SOL     OW15491   1.993   3.385   5.833 -0.9290 -0.3514 -0.1381
 5037SOL    HW115492   2.074   3.390   5.781 -0.6181 -1.7247  0.1894
 5037SOL    HW215493   1.985   3.471   5.873 -1.2758  0.8212 -2.6143
 5038SOL     OW15494   5.846   1.576   2.667  0.1463  0.3651  0.4782
 5038SOL    HW115495   5.817   1.661   2.699 -1.9957  0.0930 -0.6245
 5038SOL    HW215496   5.826   1.515   2.738 -2.0474  0.1825 -0.2777
 5039SOL     OW15497   5.590   2.813   0.742 -0.0417  0.5291 -0.1321
 5039SOL    HW115498   5.538   2.750   0.793 -0.4021  1.1072  0.2130
 5039SOL    HW215499   5.551   2.810   0.654  0.3322 -0.1787 -0.2840
 5040SOL     OW15500   5.608   1.764   6.374  0.3743 -0.1307 -0.3197
 5040SOL    HW115501   5.679   1.806   6.326 -0.1546  0.6736 -0.4063
 5040SOL    HW215502   5.531   1.819   6.357  0.1182 -0.0107  1.1951
 5041SOL     OW15503   4.494   5.015   3.916  0.3229 -0.1885  0.4452
 5041SOL    HW115504   4.462   5.071   3.846 -0.0150 -0.7084  0.1821
 5041SOL    HW215505   4.503   5.073   3.991  2.5005  0.7860 -0.5213
 5042SOL     OW15506   6.281   2.241   0.247 -0.0340 -0.2263 -0.1223
 5042SOL    HW115507   6.299   2.273   0.335 -0.8557 -1.0319  0.3415
 5042SOL    HW215508   6.190   2.209   0.251 -0.3271  0.4048 -1.4445
 5043SOL     OW15509   4.482   5.569   2.659 -0.0129  0.1295  0.3001
 5043SOL    HW115510   4.513   5.577   2.568 -1.1135  0.1491 -0.0767
 5043SOL    HW215511   4.548   5.616   2.710  0.5053  0.3020 -0.5125
 5044SOL     OW15512   6.323   3.564   0.600 -0.0621 -0.2442 -0.4955
 5044SOL    HW115513   6.318   3.472   0.576  1.0739  0.1648 -2.4774
 5044SOL    HW215514   6.399   3.569   0.658 -1.7466 -0.9588  1.8315
 5045SOL     OW15515   4.505   4.577   4.557 -0.2213 -0.6380  0.6752
 5045SOL    HW115516   4.470   4.515   4.620 -0.5256  0.3823  1.5229
 5045SOL    HW215517   4.438   4.581   4.488 -2.4825  2.2362  2.8774
 5046SOL     OW15518   1.986   2.793   5.911  0.4725  0.2195 -0.2299
 5046SOL    HW115519   1.989   2.882   5.875 -1.9959  0.0854 -0.9143
 5046SOL    HW215520   1.985   2.736   5.833 -1.0040 -0.2433  0.1014
 5047SOL     OW15521   0.065   0.871   0.129  0.3632  0.2337 -0.0182
 5047SOL    HW115522   0.032   0.815   0.199 -0.7896 -0.3268 -0.9914
 5047SOL    HW215523   0.088   0.953   0.173  2.4274 -1.0914  1.4894
 5048SOL     OW15524   1.259   4.090   0.522 -0.0435 -0.0629  0.6178
 5048SOL    HW115525   1.254   4.183   0.499 -2.5858 -0.6229 -1.1999
 5048SOL    HW215526   1.204   4.081   0.599  1.6172  0.2197  1.8754
 5049SOL     OW15527   4.820   5.713   3.272  0.2451 -0.0426 -0.1263
 5049SOL    HW115528   4.880   5.781   3.242 -0.3729  0.2563 -0.7192
 5049SOL    HW215529   4.742   5.726   3.218  0.0781 -1.1411 -0.1586
 5050SOL     OW15530   5.008   2.332   4.542  0.4896 -0.5149  0.3813
 5050SOL    HW115531   4.922   2.372   4.551  1.2124  1.1661 -0.0221
 5050SOL    HW215532   4.999   2.245   4.582 -1.0475  0.1110  1.4157
 5051SOL     OW15533   4.908   5.099   4.417 -0.6972  0.5021 -0.1833
 5051SOL    HW115534   4.995   5.134   4.398  0.2349 -1.9404 -0.6496
 5051SOL    HW215535   4.924   5.009   4.445 -3.0724  0.0551 -0.1341
 5052SOL     OW15536   3.552   5.040   2.961  0.6824 -0.2006  0.1892
 5052SOL    HW115537   3.575   4.965   2.906  0.4270 -0.7404  0.8037
 5052SOL    HW215538   3.468   5.016   2.999  1.2986 -0.2581  1.5558
 5053SOL     OW15539   5.503   1.992   4.291 -0.7751  0.2892 -0.3349
 5053SOL    HW115540   5.437   2.009   4.358 -0.9312  1.0918 -0.6959
 5053SOL    HW215541   5.551   2.074   4.283 -0.1730 -0.0854 -0.5622
 5054SOL     OW15542   3.782   0.103   1.811 -0.0104  0.9803 -0.3901
 5054SOL    HW115543   3.800   0.106   1.905  0.5534  1.4777 -0.5090
 5054SOL    HW215544   3.699   0.056   1.804  0.1942  0.5031  0.3204
 5055SOL     OW15545   4.459   4.829   3.729 -0.0239  0.1462  0.1140
 5055SOL    HW115546   4.397   4.759   3.749  1.1756 -1.3893 -1.5025
 5055SOL    HW215547   4.468   4.877   3.811 -0.4469 -1.9053  1.3845
 5056SOL     OW15548   0.974   5.180   2.878  0.7257  0.0661 -0.2910
 5056SOL    HW115549   0.978   5.180   2.783 -0.4375 -1.3870 -0.3685
 5056SOL    HW215550   0.889   5.140   2.898  0.2569  1.8154  1.3363
 5057SOL     OW15551   1.503   3.238   1.037  0.1284 -0.1292 -0.5709
 5057SOL    HW115552   1.571   3.216   1.102 -0.2524  1.3078  0.3399
 5057SOL    HW215553   1.450   3.306   1.080 -0.8358  0.0035 -1.9468
 5058SOL     OW15554   6.126   2.699   3.950  0.3244 -0.0211  0.2848
 5058SOL    HW115555   6.160   2.611   3.965  0.1037 -0.0507  0.6163
 5058SOL    HW215556   6.175   2.731   3.874  0.4813 -0.3878  0.2309
 5059SOL     OW15557   2.817   3.604   2.556  0.2023 -0.0083  0.0488
 5059SOL    HW115558   2.833   3.688   2.513  1.7661  0.4688  1.5298
 5059SOL    HW215559   2.873   3.542   2.509 -1.6196 -0.4483 -1.6337
 5060SOL     OW15560   2.833   0.778   1.183 -0.2053  0.0251 -0.0789
 5060SOL    HW115561   2.870   0.772   1.095  2.1132  1.7999  0.7091
 5060SOL    HW215562   2.808   0.870   1.192 -1.9515 -0.4900  0.5438
 5061SOL     OW15563   1.230   6.087   3.114 -0.3847  0.2388  0.3673
 5061SOL    HW115564   1.139   6.089   3.085 -0.6266  1.3569  1.1936
 5061SOL    HW215565   1.235   6.153   3.182  0.4031 -1.7579  2.2858
 5062SOL     OW15566   1.071   1.266   0.355  0.0607 -0.1605  0.0968
 5062SOL    HW115567   1.162   1.241   0.374 -0.1042 -0.5985  0.3285
 5062SOL    HW215568   1.077   1.357   0.326  0.5588 -0.1391  0.2510
 5063SOL     OW15569   5.717   4.768   4.338 -0.0152  0.2127 -0.0091
 5063SOL    HW115570   5.703   4.727   4.252  2.4976 -0.8767  0.0500
 5063SOL    HW215571   5.698   4.698   4.401 -3.7923  1.5704  0.4528
 5064SOL     OW15572   4.028   0.132   0.958  0.2551 -0.2201  0.3595
 5064SOL    HW115573   4.049   0.067   0.891  0.0957  0.8459 -0.7526
 5064SOL    HW215574   4.109   0.143   1.007  0.0286 -1.8996  1.1254
 5065SOL     OW15575   4.070   1.204   4.024  0.3348 -0.1318 -0.6959
 5065SOL    HW115576   4.160   1.224   3.996  0.5715  0.1788  0.2568
 5065SOL    HW215577   4.015   1.241   3.955  0.8954  0.8953 -0.6028
 5066SOL     OW15578   6.296   2.823   5.611  0.4566  0.0163 -0.0688
 5066SOL    HW115579   6.229   2.754   5.607 -1.2188  1.5844  0.3005
 5066SOL    HW215580   6.330   2.828   5.522 -0.3050 -0.4150 -0.3941
 5067SOL     OW15581   0.450   2.025   5.296  0.2485  0.1990 -0.0433
 5067SOL    HW115582   0.414   2.043   5.383  4.3183  4.6063  0.9010
 5067SOL    HW215583   0.422   2.099   5.242 -0.1906 -1.2675 -1.8834
 5068SOL     OW15584   4.850   2.888   3.754  0.0254  0.1088 -0.2637
 5068SOL    HW115585   4.866   2.847   3.668  2.4695 -0.5772  0.4764
 5068SOL    HW215586   4.787   2.830   3.796 -0.5719  0.0015 -1.2946
 5069SOL     OW15587   5.402   6.081   1.685  0.2094 -0.1983  0.2686
 5069SOL    HW115588   5.408   6.037   1.600  1.4052  2.0103 -0.8479
 5069SOL    HW215589   5.314   6.119   1.686  0.6364  0.8662 -0.5884
 5070SOL     OW15590   5.298   5.157   4.613 -0.0048  0.5692  0.0080
 5070SOL    HW115591   5.232   5.200   4.667 -0.0555 -1.0388  1.2547
 5070SOL    HW215592   5.248   5.112   4.545 -0.0679  0.9208 -0.1798
 5071SOL     OW15593   4.406   3.286   2.354 -0.2991  0.5373  0.6052
 5071SOL    HW115594   4.496   3.318   2.363  0.6461 -1.5204 -1.0771
 5071SOL    HW215595   4.395   3.226   2.427 -0.3662  0.8907  0.8885
 5072SOL     OW15596   5.757   2.924   2.853  0.3969  0.2645  0.0660
 5072SOL    HW115597   5.747   3.009   2.895  1.9044  0.7021 -0.4178
 5072SOL    HW215598   5.846   2.896   2.876  0.4745 -0.4602 -1.0458
 5073SOL     OW15599   3.559   2.933   0.685  0.6325  0.5640  0.5269
 5073SOL    HW115600   3.648   2.958   0.662  1.4113 -0.1212  2.7097
 5073SOL    HW215601   3.550   2.843   0.654 -0.0120  1.2973 -1.5134
 5074SOL     OW15602   4.161   4.977   1.321  0.3540 -0.5341  0.0740
 5074SOL    HW115603   4.210   4.920   1.261  1.5831  0.6184 -0.0370
 5074SOL    HW215604   4.111   5.034   1.263  1.6513  0.6761  0.1060
 5075SOL     OW15605   0.537   1.164   5.857 -0.2393 -0.1515 -0.2409
 5075SOL    HW115606   0.542   1.099   5.927  2.8110  1.1386  0.8231
 5075SOL    HW215607   0.446   1.193   5.858 -0.5699 -1.1398  2.2896
 5076SOL     OW15608   0.917   3.540   2.261 -0.0838 -0.2714  0.4359
 5076SOL    HW115609   0.854   3.600   2.300  0.0871  0.5944 -0.6099
 5076SOL    HW215610   0.986   3.597   2.227  2.2334 -1.2450  3.1931
 5077SOL     OW15611   0.406   5.249   2.200  0.0298  0.5582  0.3575
 5077SOL    HW115612   0.319   5.269   2.234  0.3337  3.3808 -0.4013
 5077SOL    HW215613   0.424   5.320   2.139  2.2648 -0.8098 -0.6169
 5078SOL     OW15614   1.292   1.979   2.208 -0.2936 -0.3806 -0.7457
 5078SOL    HW115615   1.372   1.941   2.172  0.1072  1.2887 -1.6528
 5078SOL    HW215616   1.236   1.904   2.227  2.3820 -1.7439  2.1172
 5079SOL     OW15617   5.223   0.124   4.178  0.1586 -0.1193 -0.2147
 5079SOL    HW115618   5.210   0.215   4.205  0.6517 -0.1694  0.1867
 5079SOL    HW215619   5.143   0.102   4.130  0.4311  0.8109 -1.1084
 5080SOL     OW15620   2.217   6.375   0.480  0.1765  0.5301 -0.1768
 5080SOL    HW115621   2.167   6.446   0.440 -1.0109  0.2970  0.8621
 5080SOL    HW215622   2.249   6.323   0.406 -2.2515 -0.0832 -0.8155
 5081SOL     OW15623   3.722   2.308   2.500  0.3027  0.3396 -0.4339
 5081SOL    HW115624   3.631   2.286   2.517  0.7622  0.7441  2.9859
 5081SOL    HW215625   3.764   2.302   2.586  3.4359  0.4524 -1.8914
 5082SOL     OW15626   0.678   3.152   5.276  0.6709  0.0920  0.0093
 5082SOL    HW115627   0.650   3.064   5.250  1.4138 -0.1717  0.0915
 5082SOL    HW215628   0.774   3.147   5.279  0.6874  0.7196  0.6823
 5083SOL     OW15629   6.263   5.187   3.510  0.3017 -0.4630 -0.6330
 5083SOL    HW115630   6.243   5.100   3.543  0.3053  0.0245  0.6999
 5083SOL    HW215631   6.280   5.239   3.589  0.3679  0.7214 -1.4147
 5084SOL     OW15632   3.538   1.451   5.537 -0.5763 -0.3482 -0.1579
 5084SOL    HW115633   3.590   1.377   5.568 -0.7420 -0.3800  0.0422
 5084SOL    HW215634   3.600   1.523   5.533 -1.0113  0.1933  2.2690
 5085SOL     OW15635   5.501   0.535   5.070 -0.3203 -0.7024  0.7606
 5085SOL    HW115636   5.544   0.450   5.074 -0.6807 -0.8327  2.4397
 5085SOL    HW215637   5.556   0.591   5.125 -1.4198 -0.4770  1.6351
 5086SOL     OW15638   2.206   4.068   1.342  0.1137  0.6120 -0.2666
 5086SOL    HW115639   2.269   4.116   1.288  1.0758 -0.4961 -0.1342
 5086SOL    HW215640   2.256   3.997   1.382 -1.7722 -1.9681 -2.2947
 5087SOL     OW15641   2.328   0.804   2.875  0.3574  1.0441 -0.4330
 5087SOL    HW115642   2.237   0.797   2.904  0.2250 -2.3052 -1.4745
 5087SOL    HW215643   2.322   0.841   2.787 -0.0682  0.0325 -0.8332
 5088SOL     OW15644   6.080   3.374   2.160 -0.1425 -0.3545 -0.6145
 5088SOL    HW115645   6.026   3.411   2.090  0.0330 -0.7219 -0.9409
 5088SOL    HW215646   6.018   3.325   2.214 -0.4999  0.9403  0.1982
 5089SOL     OW15647   4.638   0.011   5.737 -0.0430 -0.0736  0.0527
 5089SOL    HW115648   4.600   0.027   5.824 -0.2678 -1.2358  0.1751
 5089SOL    HW215649   4.646   0.098   5.698  1.8182  0.6481  1.9620
 5090SOL     OW15650   1.549   1.440   6.338  0.3162 -0.4352 -0.6564
 5090SOL    HW115651   1.624   1.452   6.280  1.1386 -3.0344 -0.2116
 5090SOL    HW215652   1.588   1.430   6.425 -0.5704 -1.5438 -0.3864
 5091SOL     OW15653   2.276   3.015   5.254  0.5654 -0.1454  0.0827
 5091SOL    HW115654   2.251   2.958   5.182  0.6408  0.1107 -0.1496
 5091SOL    HW215655   2.349   3.068   5.219  1.0279 -0.4630  0.5503
 5092SOL     OW15656   2.731   0.969   5.892  0.3377  0.3697  0.5905
 5092SOL    HW115657   2.801   1.031   5.910  0.8707 -0.5285  1.6476
 5092SOL    HW215658   2.769   0.883   5.909  0.8543 -0.6423 -4.6884
 5093SOL     OW15659   1.548   4.995   3.980  0.0750  0.0148 -0.0179
 5093SOL    HW115660   1.613   4.949   4.034  0.2634 -1.3439 -1.3681
 5093SOL    HW215661   1.583   4.989   3.891 -2.3866 -1.6565 -0.9202
 5094SOL     OW15662   3.990   0.456   6.041 -0.4131 -0.0178 -0.0916
 5094SOL    HW115663   4.052   0.399   5.996  0.0516 -0.1172  0.6679
 5094SOL    HW215664   3.904   0.428   6.009 -0.0048  1.0023 -2.1601
 5095SOL     OW15665   4.716   4.853   3.134 -0.2917  0.0062 -0.2457
 5095SOL    HW115666   4.763   4.806   3.065  2.9422  3.1655 -0.3206
 5095SOL    HW215667   4.757   4.823   3.216 -0.7560 -0.0754 -0.0426
 5096SOL     OW15668   2.458   4.336   4.225 -0.2355  0.1861  0.4798
 5096SOL    HW115669   2.528   4.392   4.191 -0.5714 -1.4550 -3.0690
 5096SOL    HW215670   2.501   4.285   4.294  1.0234  1.9991  1.0960
 5097SOL     OW15671   3.067   2.497   4.613 -0.6934  0.2201 -0.6721
 5097SOL    HW115672   3.000   2.565   4.616 -0.6330  0.2192  0.6916
 5097SOL    HW215673   3.019   2.417   4.595 -0.9352  0.3701 -0.7041
 5098SOL     OW15674   0.972   5.568   4.904  0.1957 -0.5312 -0.3317
 5098SOL    HW115675   1.058   5.609   4.904 -0.4998  0.9737 -0.8267
 5098SOL    HW215676   0.941   5.577   4.994 -0.8690  2.0633 -0.9184
 5099SOL     OW15677   3.677   1.906   1.910 -0.0346  0.3561 -0.1132
 5099SOL    HW115678   3.715   1.947   1.988  0.9483 -0.9185  0.1028
 5099SOL    HW215679   3.740   1.923   1.840 -0.2583  0.3501 -0.3155
 5100SOL     OW15680   0.457   3.427   1.258 -0.4465  0.0576  0.4468
 5100SOL    HW115681   0.537   3.447   1.306 -0.9032 -0.3781  1.4129
 5100SOL    HW215682   0.393   3.491   1.290 -1.0040 -0.8133  1.1097
 5101SOL     OW15683   5.280   1.333   4.494 -0.0991 -0.1324 -0.4176
 5101SOL    HW115684   5.345   1.390   4.453  0.6893  0.0896  1.0866
 5101SOL    HW215685   5.324   1.299   4.572 -1.1175 -1.5431 -0.4378
 5102SOL     OW15686   1.614   5.388   1.701 -0.0108 -0.8801 -0.1764
 5102SOL    HW115687   1.662   5.407   1.621 -0.1604  0.2218 -0.0218
 5102SOL    HW215688   1.676   5.407   1.771  0.1696 -1.9907 -0.0279
 5103SOL     OW15689   4.245   2.184   4.983 -0.5687 -0.8325 -0.1916
 5103SOL    HW115690   4.182   2.201   4.913 -1.3706  0.1166  0.7392
 5103SOL    HW215691   4.329   2.174   4.938 -0.7606  1.5852 -1.1514
 5104SOL     OW15692   5.308   0.577   1.910 -0.6393 -0.5808  0.1216
 5104SOL    HW115693   5.307   0.610   1.999 -1.1689  0.3116 -0.2011
 5104SOL    HW215694   5.393   0.535   1.899  0.6426  1.9768  0.0885
 5105SOL     OW15695   4.896   4.758   2.007  0.3874  0.9002 -0.4625
 5105SOL    HW115696   4.865   4.820   1.941  0.2996  1.5548  0.1987
 5105SOL    HW215697   4.982   4.791   2.032  1.9196 -1.2023 -2.6968
 5106SOL     OW15698   0.529   5.664   0.394  0.4565  0.4485  0.4383
 5106SOL    HW115699   0.597   5.677   0.460  0.3573  0.1121  0.6053
 5106SOL    HW215700   0.484   5.749   0.389 -0.1722  0.1898  1.5143
 5107SOL     OW15701   3.390   4.686   1.234 -0.0453  0.2260 -0.0180
 5107SOL    HW115702   3.414   4.593   1.225  1.6057  0.7301 -1.0026
 5107SOL    HW215703   3.470   4.729   1.261 -0.3818  1.6204 -1.1894
 5108SOL     OW15704   3.266   5.853   3.316  0.1332  0.1283 -0.4559
 5108SOL    HW115705   3.215   5.773   3.329  1.0828 -0.2437  1.2013
 5108SOL    HW215706   3.301   5.874   3.403  0.6269  1.8515 -1.0342
 5109SOL     OW15707   1.179   3.302   3.042 -0.1420  0.3043 -0.0266
 5109SOL    HW115708   1.137   3.334   3.122 -1.6467  1.2642 -1.1642
 5109SOL    HW215709   1.250   3.245   3.073 -3.3602 -2.8384  1.9527
 5110SOL     OW15710   0.128   1.634   0.813 -0.3641 -0.4999 -0.4729
 5110SOL    HW115711   0.063   1.587   0.761 -0.0495 -0.6975 -0.6891
 5110SOL    HW215712   0.145   1.577   0.888 -2.4255  0.7531  1.0018
 5111SOL     OW15713   6.009   0.762   3.639 -0.0179  0.0005 -0.3020
 5111SOL    HW115714   6.094   0.792   3.607 -0.3703  0.3126 -0.9471
 5111SOL    HW215715   5.978   0.702   3.571 -0.3065 -0.1272 -0.0576
 5112SOL     OW15716   2.852   0.713   4.774 -0.8800 -0.5163  0.0273
 5112SOL    HW115717   2.883   0.668   4.853 -1.5667  0.1113  0.6700
 5112SOL    HW215718   2.767   0.673   4.755 -1.4756  0.4676  0.5794
 5113SOL     OW15719   1.172   4.134   4.386  0.2474  0.0664 -0.6791
 5113SOL    HW115720   1.222   4.204   4.426  0.6578 -0.2989 -0.5510
 5113SOL    HW215721   1.081   4.150   4.412  0.5367 -0.2852  0.5519
 5114SOL     OW15722   1.956   6.074   0.427  0.2245  0.2800  0.4321
 5114SOL    HW115723   1.973   6.155   0.379 -0.7704 -0.9345 -2.0392
 5114SOL    HW215724   1.861   6.069   0.434  0.3425  1.1315  3.8666
 5115SOL     OW15725   2.882   4.331   3.410  0.2999 -0.2767 -0.3563
 5115SOL    HW115726   2.875   4.357   3.502  1.4887 -0.1568 -0.2854
 5115SOL    HW215727   2.953   4.385   3.375  2.1752 -2.7038 -0.4613
 5116SOL     OW15728   3.906   4.529   2.035 -0.5796 -0.1596 -0.3588
 5116SOL    HW115729   3.848   4.581   1.980 -0.3919  0.2692 -0.1548
 5116SOL    HW215730   3.939   4.591   2.100 -1.9890 -1.0005  1.1730
 5117SOL     OW15731   5.993   6.046   5.938 -0.3248 -0.3193  0.4129
 5117SOL    HW115732   6.000   6.030   6.032 -1.6461  0.8110  0.7084
 5117SOL    HW215733   6.049   6.122   5.922  2.1365 -2.1831 -0.2104
 5118SOL     OW15734   6.065   1.086   0.522  0.2788 -0.9287 -0.3024
 5118SOL    HW115735   5.974   1.057   0.524 -0.2862  0.8059  2.9009
 5118SOL    HW215736   6.115   1.014   0.559 -0.2519 -0.5841  1.1208
 5119SOL     OW15737   5.945   3.846   1.363  0.2271 -0.2154  0.1816
 5119SOL    HW115738   5.887   3.919   1.342 -0.3785 -0.4479  1.0286
 5119SOL    HW215739   6.033   3.884   1.361 -0.0194  0.3365 -0.2349
 5120SOL     OW15740   5.918   4.809   4.735  0.7873  0.5315  0.3895
 5120SOL    HW115741   5.891   4.874   4.669  3.1253  0.1871 -0.9913
 5120SOL    HW215742   5.974   4.749   4.686  1.7849 -0.2954  2.5242
 5121SOL     OW15743   1.485   4.129   2.250  0.4904 -0.6186  0.1938
 5121SOL    HW115744   1.522   4.205   2.295 -1.0321 -0.0259  0.4810
 5121SOL    HW215745   1.555   4.100   2.191  1.2882  0.6825  0.4705
 5122SOL     OW15746   1.346   3.236   1.874 -0.5188  0.7199  0.3938
 5122SOL    HW115747   1.355   3.235   1.779  0.9762  1.6239  0.5120
 5122SOL    HW215748   1.251   3.244   1.889 -0.9473 -1.3984 -0.9738
 5123SOL     OW15749   0.624   2.002   2.358  0.2321 -0.0034  0.1899
 5123SOL    HW115750   0.695   1.967   2.304 -0.1183  1.5947 -1.3488
 5123SOL    HW215751   0.655   2.089   2.384 -1.2119  0.7484 -0.5889
 5124SOL     OW15752   3.156   1.362   1.325  0.3103  0.1683 -0.1321
 5124SOL    HW115753   3.145   1.379   1.418  2.0311 -1.6113  0.4290
 5124SOL    HW215754   3.147   1.267   1.316 -1.3357  0.4701 -2.0048
 5125SOL     OW15755   3.943   2.959   0.155  0.1812  0.1365  0.4487
 5125SOL    HW115756   3.946   3.019   0.081  0.2644  1.4910  1.5349
 5125SOL    HW215757   4.034   2.945   0.179  0.1192  0.2957  0.7735
 5126SOL     OW15758   4.382   4.469   1.147  0.0137  0.1225 -0.3095
 5126SOL    HW115759   4.306   4.426   1.186 -0.0715  0.8532  0.3297
 5126SOL    HW215760   4.353   4.559   1.131  1.2337  0.8385  1.3917
 5127SOL     OW15761   3.542   3.502   5.370  0.0878 -0.2953 -0.6578
 5127SOL    HW115762   3.476   3.460   5.426  0.4580 -1.1561 -0.8631
 5127SOL    HW215763   3.624   3.457   5.392  1.0127  2.1699  1.1029
 5128SOL     OW15764   5.976   1.668   1.095 -0.2062  0.5335 -0.2429
 5128SOL    HW115765   6.043   1.629   1.038  0.8952 -0.6711  1.8315
 5128SOL    HW215766   6.017   1.747   1.130  0.7418 -0.9900  2.2001
 5129SOL     OW15767   0.777   2.457   3.617  0.4372 -0.2029 -0.3917
 5129SOL    HW115768   0.759   2.551   3.628  0.7703 -0.0968 -0.6973
 5129SOL    HW215769   0.706   2.425   3.562 -0.0366 -0.2714  0.2579
 5130SOL     OW15770   3.725   5.819   3.518  0.0128 -0.0776 -0.2195
 5130SOL    HW115771   3.695   5.867   3.441  0.1148 -0.6948 -0.6520
 5130SOL    HW215772   3.681   5.734   3.511 -0.8894  0.2713  1.0239
 5131SOL     OW15773   1.017   4.551   3.398  0.0731 -0.5849  0.0653
 5131SOL    HW115774   1.034   4.624   3.338  0.2505 -2.1883 -1.8720
 5131SOL    HW215775   0.942   4.506   3.361  0.7521 -2.1489  0.5311
 5132SOL     OW15776   5.283   4.410   0.257  0.1198  0.1068 -0.6130
 5132SOL    HW115777   5.345   4.344   0.290  0.2209  0.9257  0.8697
 5132SOL    HW215778   5.199   4.364   0.255  0.2749 -0.2124 -0.0289
 5133SOL     OW15779   2.647   4.418   2.526 -0.2306 -0.3325 -0.3546
 5133SOL    HW115780   2.669   4.428   2.619  1.5340 -3.0679 -0.4284
 5133SOL    HW215781   2.719   4.460   2.480 -1.1465  1.0939 -0.5127
 5134SOL     OW15782   4.980   1.080   2.512  0.8783 -0.1216 -0.1423
 5134SOL    HW115783   4.987   1.052   2.604  0.5639  1.5324  0.4143
 5134SOL    HW215784   4.887   1.074   2.492  0.6169  1.6758  0.3946
 5135SOL     OW15785   2.960   5.890   4.710  0.5023 -0.7357 -0.4745
 5135SOL    HW115786   2.900   5.832   4.757 -2.0740  0.2010 -2.5064
 5135SOL    HW215787   2.973   5.847   4.625  0.2516  0.6001 -1.1964
 5136SOL     OW15788   0.891   3.983   3.882  0.3188 -0.1261  0.6265
 5136SOL    HW115789   0.983   4.001   3.861  0.8479 -0.0020  2.9677
 5136SOL    HW215790   0.888   3.982   3.977 -1.4315 -3.6155  0.6133
 5137SOL     OW15791   0.978   0.797   5.153 -0.0716 -0.4267 -0.6469
 5137SOL    HW115792   0.950   0.886   5.131  0.1512  0.1033  1.1038
 5137SOL    HW215793   0.908   0.763   5.209  1.3881 -0.1164  1.4396
 5138SOL     OW15794   5.499   2.281   2.852  0.0908  0.7611 -0.1604
 5138SOL    HW115795   5.587   2.243   2.847 -0.5557 -0.9306  1.0782
 5138SOL    HW215796   5.506   2.363   2.802  1.8177 -0.3615 -1.8422
 5139SOL     OW15797   4.726   1.609   3.104 -0.3976 -0.5026  0.1518
 5139SOL    HW115798   4.683   1.605   3.189  2.1747  0.5845  1.5372
 5139SOL    HW215799   4.807   1.559   3.115  1.0215  1.4878 -0.9863
 5140SOL     OW15800   3.925   3.805   4.335  0.0609  0.5915 -0.0535
 5140SOL    HW115801   3.934   3.827   4.428 -1.5616  0.3922  0.1728
 5140SOL    HW215802   3.881   3.720   4.335 -0.5037  0.8777 -1.0003
 5141SOL     OW15803   5.721   5.203   5.379 -0.1582  0.3862 -0.0581
 5141SOL    HW115804   5.760   5.212   5.466 -0.5773  0.2392  0.1481
 5141SOL    HW215805   5.635   5.244   5.388  0.0159  0.8730 -0.5580
 5142SOL     OW15806   6.145   0.881   2.961 -0.1404  0.6500 -0.7189
 5142SOL    HW115807   6.184   0.800   2.993  0.2266  0.5796 -1.3428
 5142SOL    HW215808   6.110   0.860   2.875  1.0312  1.4574 -1.4037
 5143SOL     OW15809   5.498   1.566   5.216 -0.1178 -0.0787 -0.3153
 5143SOL    HW115810   5.445   1.534   5.142 -0.4947 -0.4371  0.1056
 5143SOL    HW215811   5.435   1.577   5.287  0.5776 -1.7569  0.5815
 5144SOL     OW15812   1.970   0.981   2.903  0.0122  0.1403  0.1195
 5144SOL    HW115813   1.943   0.890   2.898 -1.2408  0.4314  1.2265
 5144SOL    HW215814   1.953   1.006   2.994 -0.0311  1.5764 -0.2706
 5145SOL     OW15815   1.427   2.750   0.060 -0.3428 -0.1523 -0.1563
 5145SOL    HW115816   1.521   2.765   0.071 -0.2171 -1.2819  0.3211
 5145SOL    HW215817   1.410   2.775  -0.031  0.5294 -0.5052 -0.4248
 5146SOL     OW15818   2.155   0.889   5.461  0.1713 -0.5201  0.2420
 5146SOL    HW115819   2.239   0.924   5.431  0.0793 -0.2827  0.2630
 5146SOL    HW215820   2.102   0.882   5.381 -0.6393  1.6421  0.5516
 5147SOL     OW15821   4.753   0.778   6.201 -0.0286  0.0896  0.4875
 5147SOL    HW115822   4.820   0.791   6.269 -0.3327 -0.3106  0.8598
 5147SOL    HW215823   4.713   0.865   6.190  0.9915  0.4877 -0.1993
 5148SOL     OW15824   6.348   3.797   5.842  0.3794 -0.0452  0.1891
 5148SOL    HW115825   6.359   3.749   5.760  0.8244  2.1603 -1.0799
 5148SOL    HW215826   6.369   3.733   5.910  0.4495 -1.7857 -1.4130
 5149SOL     OW15827   1.648   1.114   3.855  0.0712  0.1430 -0.1228
 5149SOL    HW115828   1.571   1.163   3.826 -0.1846 -0.1816  0.0159
 5149SOL    HW215829   1.688   1.083   3.774 -1.1733 -1.5813 -0.0994
 5150SOL     OW15830   5.421   2.134   0.494  0.0038 -0.2452  0.3272
 5150SOL    HW115831   5.452   2.116   0.582 -1.4854 -1.2799  0.6703
 5150SOL    HW215832   5.350   2.198   0.507 -0.8371 -1.0893 -0.0005
 5151SOL     OW15833   2.510   4.988   1.244  0.3021  0.2493  0.2597
 5151SOL    HW115834   2.502   4.895   1.265 -1.5987 -0.1374 -1.9774
 5151SOL    HW215835   2.601   4.998   1.216  0.6359 -0.8462  0.9203
 5152SOL     OW15836   2.894   5.035   0.483 -0.2824  0.1826  0.2573
 5152SOL    HW115837   2.950   4.958   0.493  0.6216  1.0472  2.1819
 5152SOL    HW215838   2.820   5.005   0.430  1.0447 -1.4784 -0.6852
 5153SOL     OW15839   4.693   5.321   0.405 -0.0352 -0.9764 -0.7611
 5153SOL    HW115840   4.758   5.254   0.384 -0.7719 -2.0294  0.2787
 5153SOL    HW215841   4.687   5.320   0.500 -0.3601  0.2990 -0.7504
 5154SOL     OW15842   2.922   3.066   5.313 -0.6695 -0.3483  0.5392
 5154SOL    HW115843   2.826   3.064   5.312 -0.7785  2.6253  1.0700
 5154SOL    HW215844   2.946   3.098   5.227 -0.1272 -1.0548  0.4213
 5155SOL     OW15845   4.575   4.984   2.950  0.4111  0.0508  0.0373
 5155SOL    HW115846   4.618   4.951   2.870  0.6039 -0.9535  0.5530
 5155SOL    HW215847   4.626   4.946   3.022  0.3121  1.0595  0.6442
 5156SOL     OW15848   2.045   4.405   4.172 -0.4212  0.0519 -0.2749
 5156SOL    HW115849   1.962   4.408   4.219 -0.6210 -0.2716 -0.5986
 5156SOL    HW215850   2.021   4.378   4.083  0.0882 -0.6368 -0.2126
 5157SOL     OW15851   6.077   5.230   4.771  0.2405  0.5057 -0.2416
 5157SOL    HW115852   6.050   5.198   4.685  0.2514  2.3471 -0.9575
 5157SOL    HW215853   6.171   5.211   4.775  0.2532  0.4783 -0.6597
 5158SOL     OW15854   5.276   5.422   1.408 -0.4245 -0.0324  0.1330
 5158SOL    HW115855   5.339   5.393   1.474 -0.0899 -0.4448 -0.3698
 5158SOL    HW215856   5.309   5.387   1.325 -0.4706  1.0771 -0.3559
 5159SOL     OW15857   2.462   3.408   1.215 -0.1427  0.4571 -0.4951
 5159SOL    HW115858   2.536   3.348   1.199  0.0232  0.6607 -0.4997
 5159SOL    HW215859   2.477   3.443   1.302  0.0653  0.9178 -0.7109
 5160SOL     OW15860   6.097   1.045   1.145  0.4942  0.2392 -0.2387
 5160SOL    HW115861   6.101   1.001   1.060  0.0723 -1.2627  0.5023
 5160SOL    HW215862   6.014   1.093   1.144 -0.4866 -1.4084  0.0901
 5161SOL     OW15863   4.891   0.929   5.458  0.0974  0.4627  0.3685
 5161SOL    HW115864   4.978   0.917   5.421  0.7420  2.5686  1.0870
 5161SOL    HW215865   4.884   0.863   5.527  1.0920  0.2345  0.2542
 5162SOL     OW15866   1.711   3.450   3.947  0.1479 -0.5072 -0.8404
 5162SOL    HW115867   1.721   3.386   4.017  0.6782  1.1300  0.6173
 5162SOL    HW215868   1.634   3.501   3.971  0.0224 -0.2726 -1.7166
 5163SOL     OW15869   6.361   1.925   4.945 -0.0402  0.5605  0.3842
 5163SOL    HW115870   6.389   1.989   4.880 -0.2035  0.1711 -0.0686
 5163SOL    HW215871   6.411   1.846   4.925  0.8390  0.8213  1.5042
 5164SOL     OW15872   5.358   2.550   2.234 -0.3318  0.4397  0.1736
 5164SOL    HW115873   5.366   2.591   2.148 -0.1076  1.1660  0.5307
 5164SOL    HW215874   5.407   2.469   2.227 -0.3637  0.4674 -0.4015
 5165SOL     OW15875   1.595   5.529   2.080  0.1074 -0.5423 -0.0964
 5165SOL    HW115876   1.585   5.540   2.174 -0.5621 -2.3935  0.0642
 5165SOL    HW215877   1.679   5.570   2.060 -0.4970  1.2973  1.0351
 5166SOL     OW15878   0.625   0.390   2.150  0.3117 -0.5009 -0.0673
 5166SOL    HW115879   0.709   0.436   2.147 -1.0744  2.0346 -0.9824
 5166SOL    HW215880   0.577   0.431   2.221 -1.2963  0.1447 -1.4765
 5167SOL     OW15881   5.298   4.508   1.384  0.0293  0.3669  0.0468
 5167SOL    HW115882   5.314   4.572   1.314 -0.5588  2.1841  1.5386
 5167SOL    HW215883   5.208   4.479   1.370  0.6758 -1.0637 -1.3364
 5168SOL     OW15884   4.886   1.673   4.292 -0.3297 -0.4819 -0.2946
 5168SOL    HW115885   4.902   1.736   4.222 -0.0013 -0.5897 -0.3176
 5168SOL    HW215886   4.859   1.593   4.246 -0.8663 -0.3197 -0.2599
 5169SOL     OW15887   1.000   3.243   6.296  0.1217 -0.2327  0.4632
 5169SOL    HW115888   1.076   3.251   6.354  1.8557 -1.3729 -1.5841
 5169SOL    HW215889   1.020   3.168   6.241 -2.7176 -0.8044  0.1537
 5170SOL     OW15890   1.793   3.438   5.340  0.2626  0.4480 -0.0883
 5170SOL    HW115891   1.782   3.387   5.420  1.1332 -0.0444 -0.2758
 5170SOL    HW215892   1.708   3.431   5.295  0.4611 -1.0555 -0.2396
 5171SOL     OW15893   0.605   4.791   6.092 -0.6453 -0.0638  0.2506
 5171SOL    HW115894   0.665   4.755   6.157 -0.0233  0.3631 -0.0812
 5171SOL    HW215895   0.595   4.883   6.116  0.8641  0.5128 -1.1713
 5172SOL     OW15896   4.029   3.441   0.255  0.1613  0.3558  0.2819
 5172SOL    HW115897   4.081   3.401   0.185  0.7314  1.8133 -0.1507
 5172SOL    HW215898   4.082   3.432   0.333 -2.1460 -4.9095  1.4906
 5173SOL     OW15899   0.806   5.624   4.050  0.6381 -0.1928  0.0775
 5173SOL    HW115900   0.755   5.693   4.092 -0.9687 -0.3271 -1.5795
 5173SOL    HW215901   0.834   5.662   3.966 -0.1114 -1.4816 -0.7794
 5174SOL     OW15902   0.571   5.025   2.379  0.7718 -0.3612 -0.3785
 5174SOL    HW115903   0.600   5.094   2.319  0.0506 -0.3724 -0.7360
 5174SOL    HW215904   0.635   5.028   2.451  1.7321 -0.4428 -1.2108
 5175SOL     OW15905   2.879   5.932   0.132  0.5315 -0.1308 -0.2735
 5175SOL    HW115906   2.901   5.841   0.113  2.6759  0.3152 -0.0601
 5175SOL    HW215907   2.945   5.960   0.195 -0.6434  1.3181  0.3514
 5176SOL     OW15908   5.772   6.243   4.616 -0.2416  0.1053 -0.0452
 5176SOL    HW115909   5.734   6.156   4.603 -2.2811  0.8120  0.9719
 5176SOL    HW215910   5.810   6.265   4.531  2.4821 -2.7597  0.3274
 5177SOL     OW15911   1.119   2.473   2.429 -0.4341 -0.2621 -0.1251
 5177SOL    HW115912   1.039   2.522   2.449 -0.1008 -0.6651  2.3619
 5177SOL    HW215913   1.180   2.539   2.397 -1.2177  0.3356 -0.4055
 5178SOL     OW15914   2.180   6.334   5.244  0.3779  0.3090 -0.0449
 5178SOL    HW115915   2.255   6.392   5.251  0.2332  0.6109 -0.9971
 5178SOL    HW215916   2.208   6.265   5.184  0.4089 -0.3984  0.7624
 5179SOL     OW15917   3.237   4.447   4.313 -0.2477  0.3328  0.0451
 5179SOL    HW115918   3.230   4.352   4.315  0.1829  0.3218  1.4663
 5179SOL    HW215919   3.326   4.464   4.285 -0.8755  0.3502 -2.0294
 5180SOL     OW15920   2.008   5.475   1.605  0.3409 -0.4720 -0.1417
 5180SOL    HW115921   2.043   5.386   1.601  1.1274 -0.2243  1.0927
 5180SOL    HW215922   2.055   5.517   1.677  1.4311  1.5727 -1.9703
 5181SOL     OW15923   1.857   5.178   2.015 -0.0656  0.3648  0.6712
 5181SOL    HW115924   1.851   5.181   1.919 -0.6566 -0.3421  0.6810
 5181SOL    HW215925   1.930   5.236   2.036 -1.5304  2.5288 -0.0157
 5182SOL     OW15926   1.702   2.723   0.436  0.2209  0.3719 -0.4862
 5182SOL    HW115927   1.737   2.790   0.378 -0.5474  1.0380 -0.2009
 5182SOL    HW215928   1.705   2.763   0.523 -0.0366 -0.0372 -0.2883
 5183SOL     OW15929   1.395   0.956   5.224 -0.1372  0.6858 -0.1921
 5183SOL    HW115930   1.342   1.018   5.274 -0.0365 -0.2402  1.0681
 5183SOL    HW215931   1.442   1.011   5.161 -1.9428  1.6234 -0.7868
 5184SOL     OW15932   3.405   0.467   4.779 -0.1078 -0.3577 -0.0876
 5184SOL    HW115933   3.375   0.518   4.703  0.7876  0.6249  0.2030
 5184SOL    HW215934   3.500   0.460   4.767  0.2591  1.1209  1.7067
 5185SOL     OW15935   3.260   1.545   2.483 -0.0043  0.2958  0.2609
 5185SOL    HW115936   3.308   1.558   2.401  0.2751  0.3920  0.4393
 5185SOL    HW215937   3.248   1.451   2.489  1.1877  0.1706  0.7979
 5186SOL     OW15938   4.711   6.052   1.704  0.1936 -0.2566 -0.1086
 5186SOL    HW115939   4.790   6.088   1.662  0.7086  1.3612  2.1555
 5186SOL    HW215940   4.656   6.023   1.631  0.9244  2.7569 -1.9457
 5187SOL     OW15941   2.938   1.726   4.295  0.1621 -0.0852 -0.4488
 5187SOL    HW115942   2.997   1.697   4.225  0.1617  0.7881 -0.8164
 5187SOL    HW215943   2.956   1.819   4.305  1.0275 -0.4398  1.5546
 5188SOL     OW15944   3.120   4.029   5.128  0.1667 -0.3177 -0.0314
 5188SOL    HW115945   3.178   4.015   5.052  1.2759  0.8819  0.5759
 5188SOL    HW215946   3.033   4.004   5.097  0.7319 -0.5210 -1.4823
 5189SOL     OW15947   3.317   3.758   5.782  0.1728  0.0283 -0.4991
 5189SOL    HW115948   3.374   3.708   5.724  2.4131  2.1512 -0.2298
 5189SOL    HW215949   3.308   3.843   5.738 -3.0889 -0.3681 -0.6986
 5190SOL     OW15950   6.286   0.690   0.317  0.4906  0.7698  0.1746
 5190SOL    HW115951   6.303   0.632   0.242  2.1953  2.0103 -0.4434
 5190SOL    HW215952   6.191   0.701   0.318  0.1955 -1.4823 -0.0979
 5191SOL     OW15953   3.710   4.974   2.725 -0.8673 -0.0558  0.6441
 5191SOL    HW115954   3.806   4.970   2.718 -0.9890 -1.6885 -0.3791
 5191SOL    HW215955   3.688   5.062   2.694  0.4173  0.9700  2.5709
 5192SOL     OW15956   1.861   4.301   4.360  0.0170 -0.3289  0.2092
 5192SOL    HW115957   1.853   4.371   4.425  0.0253 -1.0801  1.0317
 5192SOL    HW215958   1.850   4.220   4.410 -1.3763 -0.8864 -0.9510
 5193SOL     OW15959   2.407   3.111   1.599  0.2274 -0.3489 -0.0141
 5193SOL    HW115960   2.375   3.067   1.519 -3.5124  0.6163  0.8320
 5193SOL    HW215961   2.368   3.060   1.670  1.4112  0.3497  1.1366
 5194SOL     OW15962   5.648   1.462   2.220 -0.1717 -0.4087  0.3195
 5194SOL    HW115963   5.655   1.463   2.315  0.6648  0.0418  0.2590
 5194SOL    HW215964   5.618   1.550   2.197  1.2358  0.0171  0.0623
 5195SOL     OW15965   2.628   4.433   5.574  0.5683 -0.0813 -0.1772
 5195SOL    HW115966   2.647   4.354   5.624  1.5267  0.9306  1.0723
 5195SOL    HW215967   2.679   4.422   5.493  1.1375 -0.4885  0.2297
 5196SOL     OW15968   6.334   5.901   4.297  0.6270 -0.2133  0.6687
 5196SOL    HW115969   6.272   5.866   4.361  0.0084 -0.9952 -0.3416
 5196SOL    HW215970   6.346   5.830   4.234  0.6263  0.8232 -0.5122
 5197SOL     OW15971   4.878   2.682   1.151  0.2781  0.1830 -0.2294
 5197SOL    HW115972   4.890   2.692   1.056  2.5803 -1.0808 -0.0916
 5197SOL    HW215973   4.788   2.650   1.161  0.0835  0.1488 -1.9933
 5198SOL     OW15974   2.144   4.999   4.169 -0.2744  0.0559 -0.2039
 5198SOL    HW115975   2.066   4.944   4.171  0.0043 -0.2892  1.3322
 5198SOL    HW215976   2.178   4.988   4.080 -2.1460  0.4635 -0.9847
 5199SOL     OW15977   0.391   5.835   5.571 -0.0166 -0.2532 -0.2052
 5199SOL    HW115978   0.387   5.778   5.648 -0.9147  0.9028  0.6091
 5199SOL    HW215979   0.301   5.841   5.540  0.4262 -1.2318 -1.7554
 5200SOL     OW15980   3.426   5.406   3.161 -0.4482 -0.1426  0.0517
 5200SOL    HW115981   3.460   5.493   3.141  0.5725 -0.5302  0.0888
 5200SOL    HW215982   3.332   5.413   3.144 -0.0451  0.3170 -2.1318
 5201SOL     OW15983   2.423   5.387   3.063 -0.1960 -0.2457  0.4040
 5201SOL    HW115984   2.504   5.430   3.035 -0.5367  1.2975  1.7249
 5201SOL    HW215985   2.357   5.457   3.061 -1.3006 -1.2898  0.1885
 5202SOL     OW15986   4.574   3.101   3.706 -0.6380 -1.0593  0.2918
 5202SOL    HW115987   4.611   3.158   3.773 -1.7804  0.3383 -0.2268
 5202SOL    HW215988   4.639   3.100   3.636 -0.1393 -1.2462  0.7608
 5203SOL     OW15989   3.669   4.533   2.289 -0.9411 -0.5483 -1.0589
 5203SOL    HW115990   3.586   4.530   2.241 -1.3416  2.5676 -0.6547
 5203SOL    HW215991   3.729   4.577   2.229 -0.1092 -1.0156 -0.5681
 5204SOL     OW15992   4.066   5.425   3.793 -0.6774  0.3524  0.1902
 5204SOL    HW115993   4.138   5.437   3.855  0.8923  0.7627 -1.6736
 5204SOL    HW215994   4.107   5.431   3.707 -3.0548  1.2124 -0.9159
 5205SOL     OW15995   0.935   4.641   1.665  0.1604 -0.3715  0.4147
 5205SOL    HW115996   0.925   4.599   1.580  0.7448 -0.4678  0.3926
 5205SOL    HW215997   0.862   4.704   1.669 -0.3869 -0.9812  0.2202
 5206SOL     OW15998   5.122   4.529   0.521  0.3388  0.4635 -0.0162
 5206SOL    HW115999   5.169   4.508   0.441  0.2329  0.4349 -0.0705
 5206SOL    HW216000   5.035   4.557   0.492  0.2564  0.3284  0.0935
 5207SOL     OW16001   3.790   1.521   4.752 -0.0389  0.4244  0.3466
 5207SOL    HW116002   3.809   1.514   4.846 -1.8295 -0.6974  0.6519
 5207SOL    HW216003   3.796   1.615   4.734  1.1008  0.5748  1.4025
 5208SOL     OW16004   2.910   5.805   5.438  0.3867 -0.2920 -0.2246
 5208SOL    HW116005   2.817   5.783   5.440  0.5164 -0.9249 -1.1641
 5208SOL    HW216006   2.955   5.721   5.440  0.9265 -0.0121 -0.5230
 5209SOL     OW16007   4.194   1.685   3.857 -0.1021  0.4404 -0.0876
 5209SOL    HW116008   4.157   1.692   3.768 -0.6246 -1.9915 -0.0968
 5209SOL    HW216009   4.284   1.714   3.848 -0.3971  1.0514 -1.2311
 5210SOL     OW16010   5.901   3.453   6.174 -0.1567 -0.1135  0.1102
 5210SOL    HW116011   5.816   3.439   6.215 -0.8358 -1.5310 -1.7149
 5210SOL    HW216012   5.942   3.367   6.173  1.3910  0.5768  1.0865
 5211SOL     OW16013   1.209   4.262   1.148  0.5767  0.1857  0.0143
 5211SOL    HW116014   1.289   4.285   1.196  0.3399 -1.1742  1.1079
 5211SOL    HW216015   1.226   4.174   1.114  0.4938  0.8818 -1.9068
 5212SOL     OW16016   5.936   0.861   6.043  0.5645  0.2681  0.1958
 5212SOL    HW116017   5.886   0.819   6.112  1.1675 -0.9276 -0.0770
 5212SOL    HW216018   5.960   0.946   6.079 -1.2362  0.6571  0.5056
 5213SOL     OW16019   2.635   3.361   4.798 -0.1682  0.0282  0.0575
 5213SOL    HW116020   2.554   3.399   4.831 -1.0251 -1.5188 -0.2071
 5213SOL    HW216021   2.704   3.399   4.853 -1.0735  1.2627  0.3533
 5214SOL     OW16022   0.871   0.792   6.034 -0.0078  0.0740 -0.3559
 5214SOL    HW116023   0.777   0.778   6.044  0.2681 -0.0574  2.8147
 5214SOL    HW216024   0.911   0.718   6.082  1.6587  1.5021  0.5198
 5215SOL     OW16025   4.068   4.202   2.383  0.4654 -0.0310  0.2874
 5215SOL    HW116026   3.988   4.178   2.430 -0.5420  0.6602 -1.0386
 5215SOL    HW216027   4.113   4.120   2.367 -1.6434 -0.7943 -1.9161
 5216SOL     OW16028   1.285   0.064   0.415 -0.1585  0.5688 -0.5916
 5216SOL    HW116029   1.336   0.089   0.493 -2.1757  1.5752  0.4582
 5216SOL    HW216030   1.311   0.128   0.349  0.9597  0.2218 -0.4964
 5217SOL     OW16031   4.880   6.036   0.079  0.0406 -0.1161 -0.6672
 5217SOL    HW116032   4.921   6.103   0.025  0.4959  0.3474  0.2339
 5217SOL    HW216033   4.790   6.066   0.090  0.1921  0.2645 -0.4240
 5218SOL     OW16034   2.298   2.283   4.057 -0.0821 -0.2305  0.2116
 5218SOL    HW116035   2.213   2.307   4.095  0.6596 -0.6992  2.2536
 5218SOL    HW216036   2.321   2.201   4.100  0.8604 -0.7324 -1.2172
 5219SOL     OW16037   3.036   5.770   2.718 -0.0533  0.3586 -0.2893
 5219SOL    HW116038   2.974   5.717   2.668 -0.4898  0.0933  0.5156
 5219SOL    HW216039   3.088   5.706   2.768  1.3540  0.5412 -1.5036
 5220SOL     OW16040   4.110   1.969   4.730  0.3195 -0.0726 -0.0285
 5220SOL    HW116041   4.099   1.965   4.635 -1.6854 -1.5704  0.2402
 5220SOL    HW216042   4.175   1.901   4.749 -1.2820 -1.6562 -0.0708
 5221SOL     OW16043   1.729   5.629   4.292 -0.1743  0.5894  0.0382
 5221SOL    HW116044   1.662   5.677   4.244  0.9955  1.1253 -1.0929
 5221SOL    HW216045   1.710   5.537   4.273 -0.2007  0.7670 -0.7998
 5222SOL     OW16046   1.558   5.387   4.692  0.0956  0.1931 -0.0127
 5222SOL    HW116047   1.510   5.331   4.755  0.0425  1.0253  0.6987
 5222SOL    HW216048   1.503   5.388   4.614  0.2397 -0.9893 -0.1348
 5223SOL     OW16049   2.845   5.378   3.641  0.0517  0.1721  0.1496
 5223SOL    HW116050   2.768   5.390   3.697 -0.0726  0.4968 -0.0840
 5223SOL    HW216051   2.810   5.378   3.552  0.3804  0.8845  0.0122
 5224SOL     OW16052   3.196   2.241   5.714  0.2363  0.0420 -0.5209
 5224SOL    HW116053   3.144   2.304   5.662 -1.5674  1.2089  2.5114
 5224SOL    HW216054   3.216   2.289   5.795  0.9886 -2.4704  0.8147
 5225SOL     OW16055   2.828   2.198   3.085 -0.1216  0.3209 -0.1092
 5225SOL    HW116056   2.756   2.144   3.052  0.7333  0.8789 -2.9979
 5225SOL    HW216057   2.785   2.281   3.109 -0.7495 -0.0867  0.2059
 5226SOL     OW16058   5.341   0.210   1.474 -0.1307  0.7140  0.5580
 5226SOL    HW116059   5.415   0.163   1.512  1.2704  3.9206  1.9374
 5226SOL    HW216060   5.333   0.289   1.527 -3.4992  1.2402 -0.6344
 5227SOL     OW16061   0.901   0.440   4.346  0.0471 -0.4105  0.6105
 5227SOL    HW116062   0.950   0.498   4.288 -0.5883 -1.5873 -1.1524
 5227SOL    HW216063   0.826   0.492   4.374  0.4070  0.1992  0.4380
 5228SOL     OW16064   5.424   6.172   1.396  0.3666  0.5973  0.0263
 5228SOL    HW116065   5.490   6.111   1.364  1.1003  1.3300  0.1245
 5228SOL    HW216066   5.340   6.132   1.373  0.8440  1.4441 -3.5011
 5229SOL     OW16067   0.535   4.302   0.453 -0.4097  0.5257 -0.0771
 5229SOL    HW116068   0.559   4.366   0.386 -4.2872  0.9033 -1.2346
 5229SOL    HW216069   0.573   4.219   0.421  1.5400  1.5165 -0.4169
 5230SOL     OW16070   3.849   3.136   2.319  0.2933  0.1206 -0.1296
 5230SOL    HW116071   3.869   3.096   2.234 -0.3706  0.6282 -0.5286
 5230SOL    HW216072   3.907   3.213   2.324  0.2973  0.1181 -0.1368
 5231SOL     OW16073   0.187   4.356   2.441  0.3652  0.2212  0.0095
 5231SOL    HW116074   0.159   4.331   2.529  1.4765 -0.7079  0.1126
 5231SOL    HW216075   0.169   4.279   2.387 -1.6873  1.2930 -0.9127
 5232SOL     OW16076   4.830   3.095   2.718 -0.5432 -0.1103 -0.0775
 5232SOL    HW116077   4.914   3.122   2.681 -1.4994  2.0409 -0.8089
 5232SOL    HW216078   4.846   3.088   2.812  0.2970  0.9544 -0.1326
 5233SOL     OW16079   4.199   1.534   0.369  1.1759  0.4984  0.9081
 5233SOL    HW116080   4.211   1.584   0.289  0.1659  2.5740  2.0343
 5233SOL    HW216081   4.255   1.578   0.434  0.5984 -0.0729  1.8089
 5234SOL     OW16082   2.770   0.410   3.239 -0.1205 -0.3333  0.2651
 5234SOL    HW116083   2.845   0.356   3.214 -0.8029 -1.1418 -0.0357
 5234SOL    HW216084   2.790   0.437   3.329  0.2374 -1.0587  0.4124
 5235SOL     OW16085   1.462   4.460   1.494 -0.5144 -0.3825 -0.4500
 5235SOL    HW116086   1.438   4.401   1.567 -0.2774  1.2910  1.0101
 5235SOL    HW216087   1.412   4.540   1.511  0.1150  0.2870 -1.7381
 5236SOL     OW16088   0.230   4.818   4.927 -0.7490  0.0373 -0.0582
 5236SOL    HW116089   0.318   4.799   4.894 -0.2004  0.9397  0.8580
 5236SOL    HW216090   0.244   4.879   4.999 -2.2407  1.5372 -0.9862
 5237SOL     OW16091   0.998   2.827   1.884  1.0336  0.5466  0.1651
 5237SOL    HW116092   1.080   2.858   1.845  1.8677  0.7126  1.9633
 5237SOL    HW216093   0.966   2.902   1.934 -0.3611  0.5573 -0.7488
 5238SOL     OW16094   2.362   5.442   1.754 -0.0409 -0.3932  0.4809
 5238SOL    HW116095   2.351   5.354   1.791  2.4029 -1.7564 -1.8039
 5238SOL    HW216096   2.457   5.451   1.743 -0.5235  0.9577 -2.9875
 5239SOL     OW16097   0.797   1.953   0.005 -1.0723  0.2838  0.5580
 5239SOL    HW116098   0.826   1.867   0.035 -4.1521 -1.9837 -2.5054
 5239SOL    HW216099   0.719   1.971   0.058 -0.5565  1.1052  1.0399
 5240SOL     OW16100   5.312   1.221   2.572  0.1915 -0.2240  0.2384
 5240SOL    HW116101   5.403   1.246   2.582  0.4630  0.2327 -2.8585
 5240SOL    HW216102   5.299   1.150   2.635  2.9838 -1.0497 -0.0583
 5241SOL     OW16103   4.131   4.832   1.991  0.0162 -0.1263  0.1242
 5241SOL    HW116104   4.069   4.793   2.052  0.6428 -0.4223  0.5789
 5241SOL    HW216105   4.211   4.781   2.002  0.6117  0.8001  0.1808
 5242SOL     OW16106   5.011   0.025   2.296 -0.6092  0.5049  0.1185
 5242SOL    HW116107   5.069  -0.004   2.226 -0.6013  0.8057  0.0017
 5242SOL    HW216108   5.065   0.020   2.375 -0.3977  0.8711 -0.0045
 5243SOL     OW16109   1.817   4.564   4.436 -0.0703 -1.1183  0.1456
 5243SOL    HW116110   1.846   4.592   4.349 -1.0957 -0.2216  0.0785
 5243SOL    HW216111   1.791   4.645   4.480  4.3810 -1.0113  2.8512
 5244SOL     OW16112   2.824   6.358   0.823 -0.8612  0.0634  0.5018
 5244SOL    HW116113   2.820   6.287   0.759 -1.5033  0.9453 -0.4522
 5244SOL    HW216114   2.827   6.314   0.908 -1.4367 -1.0971 -0.0720
 5245SOL     OW16115   0.048   0.194   0.378  0.2216 -0.3577  0.5419
 5245SOL    HW116116   0.048   0.220   0.470 -0.5843  2.8449 -0.2907
 5245SOL    HW216117  -0.034   0.145   0.367 -0.8390  1.2562  1.0442
 5246SOL     OW16118   3.027   4.893   5.517  0.3690  0.0731  0.2445
 5246SOL    HW116119   3.050   4.810   5.560 -0.2809 -0.1024  0.2581
 5246SOL    HW216120   3.008   4.869   5.427  0.8302  0.3097  0.0815
 5247SOL     OW16121   6.274   2.485   1.304 -0.2098  0.4509 -0.7184
 5247SOL    HW116122   6.259   2.565   1.253 -0.4715  1.3018  0.6645
 5247SOL    HW216123   6.219   2.420   1.262 -0.7035  1.2351 -1.3142
 5248SOL     OW16124   1.802   0.306   2.527  0.4263  0.3453  1.0278
 5248SOL    HW116125   1.776   0.213   2.527 -0.8574  0.6774  3.2018
 5248SOL    HW216126   1.896   0.304   2.510 -0.0761 -1.1789 -1.9634
 5249SOL     OW16127   3.533   6.344   0.870 -0.3785 -0.0117  0.5293
 5249SOL    HW116128   3.613   6.385   0.836  0.1186 -0.1577  1.4945
 5249SOL    HW216129   3.465   6.410   0.859 -0.4322 -0.4033 -1.6037
 5250SOL     OW16130   3.130   0.014   1.919 -0.0844  0.0563  0.4293
 5250SOL    HW116131   3.151   0.017   2.012 -0.9031  0.9990  0.5807
 5250SOL    HW216132   3.147   0.102   1.887  1.3439 -0.5513 -0.5809
 5251SOL     OW16133   0.483   2.417   1.620 -0.1603  1.3333 -0.5305
 5251SOL    HW116134   0.516   2.418   1.530 -1.3351  0.8765 -0.9701
 5251SOL    HW216135   0.500   2.327   1.649  1.5976  1.8820  0.2383
 5252SOL     OW16136   5.740   4.234   3.001  0.2989 -0.4184 -0.0409
 5252SOL    HW116137   5.797   4.173   2.954 -1.4663 -1.1956 -1.2734
 5252SOL    HW216138   5.674   4.259   2.936 -2.3138 -1.6357  2.0647
 5253SOL     OW16139   5.269   5.249   6.079 -0.0555 -0.5047  0.3434
 5253SOL    HW116140   5.359   5.218   6.087  0.3112  0.0504 -1.4122
 5253SOL    HW216141   5.268   5.333   6.125 -0.1294 -1.3604  1.9122
 5254SOL     OW16142   3.922   1.817   2.753  0.4793 -0.3116 -0.7628
 5254SOL    HW116143   3.888   1.740   2.799  1.2731  1.7964  3.6115
 5254SOL    HW216144   3.850   1.880   2.755  0.9109  0.2120 -1.4567
 5255SOL     OW16145   2.589   4.502   1.219  0.2656  0.3448  0.2472
 5255SOL    HW116146   2.659   4.442   1.246  0.9048  1.1051  0.2953
 5255SOL    HW216147   2.509   4.459   1.249  0.7790 -0.0710  1.0603
 5256SOL     OW16148   0.116   3.606   2.018  0.0532  0.3279 -0.1176
 5256SOL    HW116149   0.110   3.611   2.113  1.0480  0.0020 -0.0273
 5256SOL    HW216150   0.179   3.536   2.002 -0.0823  0.4054 -1.0137
 5257SOL     OW16151   0.277   2.903   5.333 -0.6467  0.1184  0.3257
 5257SOL    HW116152   0.246   2.991   5.315 -1.6200 -0.1518  0.6231
 5257SOL    HW216153   0.341   2.913   5.403 -1.4400  0.4845  1.0032
 5258SOL     OW16154   1.935   5.191   4.895  0.2632 -0.3454  0.4312
 5258SOL    HW116155   1.904   5.265   4.843  1.5103 -1.0858 -1.3964
 5258SOL    HW216156   1.882   5.194   4.975 -2.7671 -0.0793 -1.5086
 5259SOL     OW16157   3.343   2.478   2.907  0.2310  0.0936  0.0878
 5259SOL    HW116158   3.305   2.390   2.907 -0.0742  0.2219  1.4738
 5259SOL    HW216159   3.267   2.537   2.907  0.4211  0.3497  1.6483
 5260SOL     OW16160   1.338   3.960   4.276  0.7357  0.3665 -0.6833
 5260SOL    HW116161   1.294   4.034   4.318  1.4192 -0.3222  1.2578
 5260SOL    HW216162   1.356   3.991   4.187  0.2494  2.2318 -0.1519
 5261SOL     OW16163   0.691   5.788   5.561  0.3064  0.2336 -0.1747
 5261SOL    HW116164   0.596   5.795   5.570  0.5017 -1.0396  4.0582
 5261SOL    HW216165   0.721   5.878   5.552 -1.2854  0.6288 -1.7902
 5262SOL     OW16166   0.874   3.923   3.412 -0.5625  0.3383  0.3571
 5262SOL    HW116167   0.894   3.838   3.450  1.9068  1.2072  1.1475
 5262SOL    HW216168   0.784   3.915   3.380 -0.7140 -2.2249  1.2937
 5263SOL     OW16169   2.288   4.214   0.513  0.1197 -0.3426 -0.1427
 5263SOL    HW116170   2.374   4.209   0.556 -0.9123  2.3535  2.3999
 5263SOL    HW216171   2.296   4.289   0.454 -0.5921  0.1369  0.3696
 5264SOL     OW16172   3.506   0.298   1.565  0.0864  0.2685 -0.2157
 5264SOL    HW116173   3.587   0.250   1.548 -0.4145 -0.6630 -0.0243
 5264SOL    HW216174   3.441   0.255   1.510 -0.9251 -0.9220  1.8315
 5265SOL     OW16175   2.528   4.524   3.233  0.6158 -0.0296 -0.1054
 5265SOL    HW116176   2.518   4.452   3.171 -1.3534 -0.6091  0.8276
 5265SOL    HW216177   2.566   4.483   3.311 -0.1852 -0.0263  0.3001
 5266SOL     OW16178   1.282   5.371   2.585  0.2995  0.1057 -0.1060
 5266SOL    HW116179   1.357   5.316   2.564  0.3622  0.6067 -1.2312
 5266SOL    HW216180   1.318   5.460   2.592 -0.1831  0.3486 -0.6493
 5267SOL     OW16181   0.901   5.745   3.825 -0.3857 -0.2837  0.6395
 5267SOL    HW116182   0.944   5.823   3.789 -0.4744 -0.1855  0.7465
 5267SOL    HW216183   0.969   5.678   3.823  0.2826  0.3139  2.3392
 5268SOL     OW16184   2.265   0.828   1.156  0.0648  0.1064  0.0358
 5268SOL    HW116185   2.183   0.877   1.153  0.1611  0.1920 -1.4100
 5268SOL    HW216186   2.239   0.740   1.182 -0.6314 -0.1337 -1.4035
 5269SOL     OW16187   2.659   4.746   1.328  0.0887  0.2926  0.3809
 5269SOL    HW116188   2.645   4.665   1.280 -0.0440  0.8635 -0.5593
 5269SOL    HW216189   2.590   4.748   1.394 -0.7583  0.3193 -0.5036
 5270SOL     OW16190   6.084   2.251   5.574 -0.0939 -0.4238 -0.5616
 5270SOL    HW116191   6.048   2.326   5.622 -3.1892 -1.9689 -0.3404
 5270SOL    HW216192   6.073   2.273   5.482 -0.7456 -0.4826 -0.4982
 5271SOL     OW16193   2.600   1.301   3.630  0.3308  0.1779 -0.0433
 5271SOL    HW116194   2.621   1.390   3.657  0.7982  0.1223 -0.2097
 5271SOL    HW216195   2.685   1.261   3.612  0.0836 -0.0548 -0.7285
 5272SOL     OW16196   2.557   5.136   4.125  0.2369 -0.4980  0.4456
 5272SOL    HW116197   2.504   5.189   4.066  1.6284  0.3193 -0.0883
 5272SOL    HW216198   2.627   5.101   4.069  1.6129  0.3379  1.6203
 5273SOL     OW16199   0.637   6.278   2.047  0.3708  0.2288 -0.6054
 5273SOL    HW116200   0.694   6.239   1.981  0.3759  1.2607 -1.2050
 5273SOL    HW216201   0.694   6.290   2.123  1.3824  2.6745 -1.6914
 5274SOL     OW16202   0.548   0.175   4.883  0.1263  0.1047  0.0821
 5274SOL    HW116203   0.637   0.195   4.857  0.5465  1.1061  2.1770
 5274SOL    HW216204   0.513   0.258   4.916 -2.3244  0.2441 -2.6876
 5275SOL     OW16205   3.804   1.784   4.705  0.2260  0.1465  0.5476
 5275SOL    HW116206   3.858   1.847   4.752  0.1862 -0.0925  0.9142
 5275SOL    HW216207   3.793   1.822   4.618 -0.3867  0.9769  0.9915
 5276SOL     OW16208   2.190   6.165   0.274 -0.5318  0.1970  0.0817
 5276SOL    HW116209   2.282   6.192   0.269 -0.5889  0.4859  0.6805
 5276SOL    HW216210   2.191   6.089   0.332 -0.2805 -1.4932 -2.0569
 5277SOL     OW16211   3.161   6.140   5.459 -0.0581  0.3165  0.3246
 5277SOL    HW116212   3.235   6.168   5.406  1.5998 -0.4386  2.1650
 5277SOL    HW216213   3.127   6.221   5.496  0.4927  0.5817  0.2631
 5278SOL     OW16214   4.037   2.766   4.855 -0.0003  0.2709 -0.0953
 5278SOL    HW116215   4.041   2.857   4.886  0.3775  0.3141 -0.2674
 5278SOL    HW216216   4.106   2.721   4.904 -1.3009 -0.3114  1.2397
 5279SOL     OW16217   4.881   6.294   5.931  0.0551  0.2776 -0.9361
 5279SOL    HW116218   4.869   6.200   5.939 -1.1630  0.4243 -0.8566
 5279SOL    HW216219   4.842   6.316   5.847 -0.8861  0.8852 -0.3584
 5280SOL     OW16220   1.918   4.096   0.050 -0.3433  0.0564 -0.7480
 5280SOL    HW116221   1.834   4.087   0.003 -0.6132  0.0134 -0.2567
 5280SOL    HW216222   1.952   4.006   0.055 -0.5794 -0.0141 -0.3772
 5281SOL     OW16223   0.280   6.043   4.050  0.5740 -0.0148 -0.4734
 5281SOL    HW116224   0.251   5.994   4.127  0.6003 -0.2836 -0.6327
 5281SOL    HW216225   0.329   5.979   3.998 -0.4592 -0.1509 -1.2997
 5282SOL     OW16226   5.991   1.578   0.475 -0.0102 -0.0949  0.1888
 5282SOL    HW116227   6.061   1.629   0.516 -0.0836 -0.2781  0.5502
 5282SOL    HW216228   5.972   1.624   0.394 -0.2012  0.5569  0.5953
 5283SOL     OW16229   1.289   0.702   2.544  1.3010  0.2821 -0.5899
 5283SOL    HW116230   1.286   0.741   2.632  0.5121  0.1401 -0.5525
 5283SOL    HW216231   1.260   0.772   2.486 -1.7532 -0.7376 -0.3500
 5284SOL     OW16232   3.615   2.712   1.326 -0.6120 -0.5735  0.5772
 5284SOL    HW116233   3.647   2.692   1.414 -1.2248  0.1111  0.9598
 5284SOL    HW216234   3.551   2.644   1.308 -0.0528 -1.0589  0.4225
 5285SOL     OW16235   4.572   5.608   2.402  0.7289 -0.1598  0.2905
 5285SOL    HW116236   4.602   5.688   2.359 -1.1685 -0.0811 -0.9076
 5285SOL    HW216237   4.582   5.540   2.335 -0.1758 -0.4317  0.4303
 5286SOL     OW16238   3.507   3.926   5.553 -0.0822 -0.6131 -0.4572
 5286SOL    HW116239   3.571   3.995   5.537  0.6252 -1.4285 -1.1925
 5286SOL    HW216240   3.440   3.967   5.607 -0.1787  0.9301 -1.7242
 5287SOL     OW16241   4.028   3.490   1.041  0.5106  0.1846 -0.4606
 5287SOL    HW116242   3.990   3.403   1.029 -1.1320  1.1950 -3.0229
 5287SOL    HW216243   3.954   3.550   1.037  1.5909  1.7052  1.5773
 5288SOL     OW16244   4.211   0.139   3.219 -0.1871 -0.9273 -0.3417
 5288SOL    HW116245   4.171   0.121   3.134 -1.7646 -0.1486  0.2209
 5288SOL    HW216246   4.215   0.234   3.225 -0.8662 -0.9473  0.7817
 5289SOL     OW16247   4.032   6.296   0.760  0.2195 -0.5738  0.1633
 5289SOL    HW116248   4.122   6.277   0.787  0.3909 -1.4178 -0.9746
 5289SOL    HW216249   4.003   6.216   0.716 -0.2304  0.5842 -1.6814
 5290SOL     OW16250   4.217   0.216   0.212  0.4486  0.3612  0.1941
 5290SOL    HW116251   4.274   0.200   0.136  0.3097  2.0230 -0.2736
 5290SOL    HW216252   4.256   0.292   0.255  0.9850 -1.0365  2.2546
 5291SOL     OW16253   2.495   3.483   5.596  0.2330 -0.2442 -0.1462
 5291SOL    HW116254   2.552   3.434   5.656 -0.8358  0.5121  1.5131
 5291SOL    HW216255   2.535   3.570   5.591 -1.3569  0.6197  1.8754
 5292SOL     OW16256   0.718   4.335   6.028  0.3687 -0.3689 -1.1478
 5292SOL    HW116257   0.693   4.264   6.088  0.0522  0.7852  0.0943
 5292SOL    HW216258   0.655   4.404   6.044  0.4036  0.0408 -2.6845
 5293SOL     OW16259   5.789   1.851   4.286  0.1821  0.2888 -0.0761
 5293SOL    HW116260   5.772   1.940   4.317 -0.5241  0.4863 -1.0050
 5293SOL    HW216261   5.866   1.859   4.230  0.6978  0.1483  0.6123
 5294SOL     OW16262   4.452   0.105   0.097 -0.3901  0.2147 -0.8170
 5294SOL    HW116263   4.539   0.069   0.080  0.5430  2.0441 -0.0680
 5294SOL    HW216264   4.393   0.051   0.044  1.0948 -1.4980 -0.7914
 5295SOL     OW16265   5.991   4.003   4.997 -0.2395 -0.4194 -0.1973
 5295SOL    HW116266   5.975   4.030   4.906 -2.0191 -0.1289  0.1805
 5295SOL    HW216267   5.969   4.080   5.049  0.3617 -0.7203  0.5052
 5296SOL     OW16268   5.808   0.333   1.864 -0.4622  0.0613  0.5632
 5296SOL    HW116269   5.794   0.243   1.834 -1.6161  0.9486 -1.6851
 5296SOL    HW216270   5.903   0.343   1.866 -0.3160 -1.3931  1.4306
 5297SOL     OW16271   4.252   3.872   5.391  0.0338 -0.6356  0.0097
 5297SOL    HW116272   4.195   3.913   5.456 -1.4497 -1.1434 -0.9534
 5297SOL    HW216273   4.329   3.844   5.441 -1.1619 -1.1991  1.5717
 5298SOL     OW16274   1.723   2.679   5.534  0.1703 -0.9002  0.1599
 5298SOL    HW116275   1.803   2.705   5.488  0.7589 -1.7986  0.6595
 5298SOL    HW216276   1.743   2.592   5.569 -0.8669 -0.9341  0.6788
 5299SOL     OW16277   3.620   5.284   3.443 -0.5135 -0.1052 -0.0548
 5299SOL    HW116278   3.690   5.289   3.377 -1.3081  0.3339 -0.8636
 5299SOL    HW216279   3.644   5.208   3.496  0.7356  0.1992 -0.1549
 5300SOL     OW16280   3.797   4.237   2.454 -0.4290  0.1538  0.1062
 5300SOL    HW116281   3.760   4.264   2.538  1.3193  2.9079  0.0458
 5300SOL    HW216282   3.736   4.270   2.388 -0.8521 -0.4284  0.1956
 5301SOL     OW16283   1.364   4.425   5.085  0.4512  0.0109  0.0687
 5301SOL    HW116284   1.298   4.357   5.074  0.8363 -0.4706  0.7057
 5301SOL    HW216285   1.447   4.383   5.063  0.7727  0.0712  1.1134
 5302SOL     OW16286   2.093   5.566   1.356 -0.1699  0.0123 -0.1042
 5302SOL    HW116287   2.186   5.577   1.372 -0.1346  0.8657 -0.8435
 5302SOL    HW216288   2.059   5.527   1.437  0.9470 -1.0130 -0.1274
 5303SOL     OW16289   5.092   1.302   2.401 -0.0314 -0.6052 -0.2006
 5303SOL    HW116290   5.039   1.231   2.437 -1.7294  1.1435  0.8891
 5303SOL    HW216291   5.164   1.312   2.463  0.2138 -1.3714 -0.3602
 5304SOL     OW16292   1.255   1.734   2.607 -0.1906  0.6477 -0.3561
 5304SOL    HW116293   1.272   1.737   2.513 -0.9392  0.2409 -0.5150
 5304SOL    HW216294   1.159   1.734   2.614 -0.1407  0.7640  0.4093
 5305SOL     OW16295   5.386   5.181   6.372  0.4359 -0.0879  0.1068
 5305SOL    HW116296   5.371   5.275   6.367  1.2450  0.1149  1.1660
 5305SOL    HW216297   5.448   5.171   6.445  0.1474 -1.4550  0.1748
 5306SOL     OW16298   5.726   2.480   0.049 -0.6667 -0.5600  0.2884
 5306SOL    HW116299   5.706   2.387   0.034 -2.3644 -0.1643  0.0769
 5306SOL    HW216300   5.669   2.527  -0.011  0.2366  0.6386  0.3607
 5307SOL     OW16301   3.889   5.927   5.533 -0.1518 -0.0325  0.0432
 5307SOL    HW116302   3.934   5.843   5.541  2.3547  1.2692  0.0147
 5307SOL    HW216303   3.958   5.992   5.543 -2.0984  2.0419  0.3009
 5308SOL     OW16304   2.142   5.467   2.597  0.0025 -0.0940 -0.6539
 5308SOL    HW116305   2.072   5.418   2.640  0.2351  2.1813  2.5280
 5308SOL    HW216306   2.218   5.455   2.653  0.3943  2.7866 -0.4627
 5309SOL     OW16307   2.934   5.672   0.102  0.2087 -0.1335  0.4708
 5309SOL    HW116308   2.909   5.624   0.180 -1.1511  0.8069  0.6165
 5309SOL    HW216309   2.893   5.624   0.030 -0.5793  0.4276  0.5527
 5310SOL     OW16310   5.420   1.571   0.247 -0.0713  0.3082  0.4745
 5310SOL    HW116311   5.423   1.501   0.182  1.3863  0.0349  0.8365
 5310SOL    HW216312   5.344   1.624   0.221  0.6402  0.3494 -1.5773
 5311SOL     OW16313   2.857   4.888   6.143  0.3443  0.6929  0.0513
 5311SOL    HW116314   2.816   4.968   6.108 -1.0313  0.0963  0.2438
 5311SOL    HW216315   2.915   4.859   6.073 -0.4298  0.9410 -0.7135
 5312SOL     OW16316   5.558   5.405   0.143  0.0167  0.1183 -0.1594
 5312SOL    HW116317   5.554   5.382   0.236  0.2301 -2.1167 -0.6662
 5312SOL    HW216318   5.501   5.481   0.134 -0.5141 -0.0372  1.6856
 5313SOL     OW16319   2.237   3.104   5.758 -0.3754 -0.1882 -1.1861
 5313SOL    HW116320   2.216   3.079   5.668 -0.5584 -0.1395 -1.1577
 5313SOL    HW216321   2.315   3.054   5.779 -0.4820 -0.3967 -1.2816
 5314SOL     OW16322   2.681   0.738   4.328  0.0129  0.3940  0.4442
 5314SOL    HW116323   2.636   0.753   4.411 -0.6836 -0.1913  0.1726
 5314SOL    HW216324   2.750   0.674   4.350 -0.3997 -0.0338  0.4964
 5315SOL     OW16325   2.460   5.799   6.269 -0.5157  0.7062 -0.6067
 5315SOL    HW116326   2.401   5.741   6.318  1.3431 -0.8834 -0.2204
 5315SOL    HW216327   2.434   5.786   6.178 -3.4684  3.1009 -0.2130
 5316SOL     OW16328   2.993   0.048   0.279 -0.0979 -0.4073  0.0624
 5316SOL    HW116329   3.038   0.132   0.285  0.1908 -0.6251  1.1362
 5316SOL    HW216330   3.058  -0.011   0.242 -0.3718 -0.1119 -0.9013
 5317SOL     OW16331   2.632   2.159   4.719 -0.2220 -0.6352  0.2205
 5317SOL    HW116332   2.716   2.131   4.755 -0.4160 -0.2711  0.9630
 5317SOL    HW216333   2.646   2.159   4.624  0.3588 -1.3814  0.3003
 5318SOL     OW16334   1.780   4.943   3.307 -0.0815 -0.1643  0.0710
 5318SOL    HW116335   1.794   4.872   3.244  0.6129  0.3126 -0.3112
 5318SOL    HW216336   1.866   4.959   3.346 -0.3103  0.2117  0.4356
 5319SOL     OW16337   6.249   0.026   5.511  0.1114  0.0204 -0.1725
 5319SOL    HW116338   6.337   0.023   5.550 -0.1993 -2.0895  0.4355
 5319SOL    HW216339   6.196   0.070   5.576  0.1269 -1.2815  0.7432
 5320SOL     OW16340   4.398   0.351   5.614  0.2959 -0.0696  0.0452
 5320SOL    HW116341   4.465   0.320   5.674  1.3781  0.4711 -0.8509
 5320SOL    HW216342   4.361   0.271   5.576 -0.5092 -0.4136  1.5286
 5321SOL     OW16343   1.363   3.205   1.598 -0.2911  0.2054 -0.1420
 5321SOL    HW116344   1.300   3.187   1.528 -1.7654 -1.6352  1.5677
 5321SOL    HW216345   1.438   3.149   1.578 -0.1770  0.6274 -0.9131
 5322SOL     OW16346   0.002   1.664   3.136 -0.2942 -0.0260  0.6649
 5322SOL    HW116347  -0.062   1.692   3.071 -0.9917 -2.9347  0.0140
 5322SOL    HW216348  -0.051   1.622   3.205  0.6957 -0.0366  1.4228
 5323SOL     OW16349   4.838   2.567   2.928  0.2903 -0.4154  0.1168
 5323SOL    HW116350   4.786   2.518   2.864  0.8723  1.6244 -1.9737
 5323SOL    HW216351   4.799   2.654   2.930  2.8899  0.8393 -0.7030
 5324SOL     OW16352   6.281   1.268   0.548 -0.5018  0.2710 -0.1908
 5324SOL    HW116353   6.220   1.198   0.525  0.7242 -0.3398 -1.6304
 5324SOL    HW216354   6.351   1.261   0.484 -0.0793  2.4681 -0.0004
 5325SOL     OW16355   1.079   1.680   6.379 -0.4408 -0.4974 -0.3173
 5325SOL    HW116356   1.037   1.698   6.295 -0.6398 -0.2029 -0.1530
 5325SOL    HW216357   1.112   1.590   6.370  0.8980  0.0800 -1.2700
 5326SOL     OW16358   1.636   1.338   1.947 -0.1259 -0.0839 -0.5840
 5326SOL    HW116359   1.587   1.294   2.016 -0.7835 -0.6126 -1.3871
 5326SOL    HW216360   1.718   1.364   1.989 -0.3117 -0.8414  0.2610
 5327SOL     OW16361   1.639   2.480   1.932  0.2694 -0.8552 -0.3340
 5327SOL    HW116362   1.582   2.556   1.932  2.0217  0.5047 -2.3944
 5327SOL    HW216363   1.696   2.492   1.857  2.3968 -2.8427  0.8805
 5328SOL     OW16364   4.427   4.829   6.286  0.4464  0.0427  0.2106
 5328SOL    HW116365   4.385   4.787   6.211 -1.2390  0.3395  0.9886
 5328SOL    HW216366   4.510   4.863   6.250 -0.2128 -0.0413 -1.4501
 5329SOL     OW16367   5.415   0.342   5.486 -0.2735  1.3184  0.8612
 5329SOL    HW116368   5.379   0.399   5.554 -0.3505  3.5757 -0.9988
 5329SOL    HW216369   5.354   0.268   5.482 -2.1682  2.8217  0.9497
 5330SOL     OW16370   2.532   0.220   4.216  0.0957  0.6960 -0.3476
 5330SOL    HW116371   2.624   0.228   4.241  0.7081  0.0726 -2.3135
 5330SOL    HW216372   2.528   0.253   4.126 -1.5008  0.2457 -0.4615
 5331SOL     OW16373   0.272   4.536   0.123  0.3950  0.4717  0.2884
 5331SOL    HW116374   0.350   4.592   0.120  1.8880 -1.5869 -0.4195
 5331SOL    HW216375   0.199   4.598   0.118  1.9789  2.3938 -0.0823
 5332SOL     OW16376   3.358   1.353   0.006 -0.5325  0.0052 -0.3202
 5332SOL    HW116377   3.321   1.398   0.082 -0.5085  0.7255 -0.7268
 5332SOL    HW216378   3.354   1.418  -0.064 -0.7437 -0.7167 -0.9882
 5333SOL     OW16379   5.474   2.588   5.687 -0.0395  0.0916 -0.2844
 5333SOL    HW116380   5.441   2.662   5.738  0.0407 -0.2088  0.2013
 5333SOL    HW216381   5.488   2.624   5.599 -0.3886  0.5495 -0.1517
 5334SOL     OW16382   2.769   5.192   5.691  0.4219 -0.3604 -0.0555
 5334SOL    HW116383   2.790   5.151   5.775 -0.1945  0.3652  0.4550
 5334SOL    HW216384   2.701   5.256   5.712  1.9587  1.5340 -0.7056
 5335SOL     OW16385   5.681   4.526   5.654  0.0032 -0.0559 -0.1919
 5335SOL    HW116386   5.616   4.486   5.712 -0.0128  1.3142  0.7566
 5335SOL    HW216387   5.673   4.476   5.572 -0.2882 -1.7110  0.8155
 5336SOL     OW16388   0.803   3.189   5.806  0.2136  0.4238 -0.6189
 5336SOL    HW116389   0.801   3.260   5.742  0.5329  0.5989 -0.4315
 5336SOL    HW216390   0.886   3.200   5.852  0.1659  0.0579 -0.4449
 5337SOL     OW16391   3.410   5.475   4.670  0.2916 -0.1997 -0.2421
 5337SOL    HW116392   3.486   5.520   4.633 -0.3127  1.4384  0.4495
 5337SOL    HW216393   3.440   5.446   4.756  1.5025 -3.4689 -1.6954
 5338SOL     OW16394   3.948   1.242   3.766  0.1553  0.5636  0.0196
 5338SOL    HW116395   3.878   1.216   3.825 -0.9340  0.9996 -1.0529
 5338SOL    HW216396   3.952   1.172   3.701  0.5478  0.6623 -0.0650
 5339SOL     OW16397   3.309   0.368   4.479 -0.2175  0.0318  0.0657
 5339SOL    HW116398   3.340   0.398   4.393 -0.1430 -1.0036 -0.2755
 5339SOL    HW216399   3.374   0.304   4.507 -0.9073 -0.5585  0.3220
 5340SOL     OW16400   1.188   2.574   4.932  0.2998  0.0837 -0.0481
 5340SOL    HW116401   1.163   2.560   5.023 -1.6291  2.0253 -0.2246
 5340SOL    HW216402   1.151   2.500   4.885 -1.6782  0.8319  0.2913
 5341SOL     OW16403   5.762   4.134   0.317  0.1077 -0.1864 -0.3007
 5341SOL    HW116404   5.847   4.179   0.315 -0.0905  0.1359 -1.3914
 5341SOL    HW216405   5.776   4.053   0.269  0.6927 -1.7324  2.3840
 5342SOL     OW16406   2.864   2.439   2.188  0.2340 -0.0440 -0.4794
 5342SOL    HW116407   2.825   2.488   2.260  0.8873  0.2450 -0.3202
 5342SOL    HW216408   2.947   2.406   2.223  0.4586 -0.0731 -1.0279
 5343SOL     OW16409   3.643   5.158   1.999 -0.0822  0.0911 -0.2302
 5343SOL    HW116410   3.663   5.162   2.093  0.6738 -2.0265 -0.2842
 5343SOL    HW216411   3.729   5.152   1.957 -0.5313 -1.7989 -0.8867
 5344SOL     OW16412   1.863   5.384   4.679 -0.9637 -0.1709 -0.2543
 5344SOL    HW116413   1.901   5.346   4.600 -0.4655 -0.9161  0.3402
 5344SOL    HW216414   1.768   5.384   4.662 -0.7597  1.2599 -1.5448
 5345SOL     OW16415   0.278   5.511   1.383 -0.0352 -0.7708  0.3152
 5345SOL    HW116416   0.263   5.558   1.464  0.9599 -0.5432  0.3848
 5345SOL    HW216417   0.373   5.496   1.381 -0.2704 -2.3872  0.0815
 5346SOL     OW16418   2.967   1.600   1.490  0.1826  0.0736  0.4461
 5346SOL    HW116419   3.005   1.678   1.532 -3.0481  1.5285  0.8743
 5346SOL    HW216420   2.970   1.533   1.558 -0.5994  1.0237  1.4523
 5347SOL     OW16421   4.930   4.090   2.791 -0.4076 -0.0935 -0.1789
 5347SOL    HW116422   4.965   4.012   2.835  0.9765  0.0177 -1.0764
 5347SOL    HW216423   4.928   4.066   2.698 -0.7299  0.6607 -0.3698
 5348SOL     OW16424   4.582   0.621   0.016  0.2579 -0.9549  0.3240
 5348SOL    HW116425   4.670   0.587   0.001  1.7364  2.4076  0.8397
 5348SOL    HW216426   4.550   0.646  -0.071 -0.1681 -2.1156  0.1446
 5349SOL     OW16427   5.037   5.237   4.749 -0.2870 -0.8132 -0.4871
 5349SOL    HW116428   4.991   5.321   4.753  1.7994  0.3804 -0.7982
 5349SOL    HW216429   4.972   5.173   4.775 -1.4530  1.0952  1.5034
 5350SOL     OW16430   6.236   6.298   0.155  0.5348  0.2580  0.0096
 5350SOL    HW116431   6.236   6.394   0.156  1.3535  0.2474  1.4131
 5350SOL    HW216432   6.320   6.275   0.116  1.1660  0.1011  1.4506
 5351SOL     OW16433   5.378   4.998   2.110 -0.4097  0.3160 -0.4465
 5351SOL    HW116434   5.299   4.954   2.080  0.0285  0.4171 -1.7593
 5351SOL    HW216435   5.380   5.081   2.062  0.0081  0.7257  0.2626
 5352SOL     OW16436   3.813   1.446   3.086  0.4833 -0.1248  0.6221
 5352SOL    HW116437   3.721   1.425   3.104  0.1826  1.8702  1.6000
 5352SOL    HW216438   3.813   1.474   2.994 -0.1978  1.3686  1.0530
 5353SOL     OW16439   3.162   5.422   3.113 -0.1511 -0.4223 -0.1994
 5353SOL    HW116440   3.131   5.511   3.121 -1.4196 -0.7927 -0.9736
 5353SOL    HW216441   3.094   5.368   3.153  0.0690 -1.1330 -0.7552
 5354SOL     OW16442   0.729   6.371   6.125 -0.2241 -0.2292  0.2866
 5354SOL    HW116443   0.781   6.446   6.153  0.4413 -1.2727  1.9040
 5354SOL    HW216444   0.738   6.369   6.030  1.2858  0.6270  0.3998
 5355SOL     OW16445   5.153   5.057   6.238 -0.1654 -0.7540 -0.3625
 5355SOL    HW116446   5.226   5.064   6.299 -1.0096 -0.1995  0.6151
 5355SOL    HW216447   5.180   5.109   6.163  0.8524 -1.3670 -0.4226
 5356SOL     OW16448   6.140   1.125   5.890  0.5529  0.0881 -0.3671
 5356SOL    HW116449   6.137   1.079   5.974 -0.7109  1.0940  0.1432
 5356SOL    HW216450   6.052   1.114   5.853  0.4648  1.4383 -0.5871
 5357SOL     OW16451   2.458   2.597   4.694 -0.3409  0.7230  0.1314
 5357SOL    HW116452   2.528   2.591   4.629 -0.1558  1.4240  0.2582
 5357SOL    HW216453   2.392   2.534   4.665  1.4162 -1.7793  1.3458
 5358SOL     OW16454   0.411   5.669   0.785  0.1666  0.0543  0.0429
 5358SOL    HW116455   0.404   5.662   0.880 -1.3968 -0.2159 -0.0697
 5358SOL    HW216456   0.320   5.667   0.755  0.7061 -1.2473 -1.5498
 5359SOL     OW16457   4.894   4.110   1.598  0.4861 -0.1057  0.7889
 5359SOL    HW116458   4.986   4.135   1.589  1.0186 -2.0928  0.3939
 5359SOL    HW216459   4.847   4.193   1.603  2.2390  0.9453  0.3902
 5360SOL     OW16460   5.187   5.786   5.523 -0.6413 -0.5254 -0.4370
 5360SOL    HW116461   5.233   5.706   5.550 -1.0641 -0.5254  0.3010
 5360SOL    HW216462   5.257   5.849   5.507 -0.4395  0.4364  3.7196
 5361SOL     OW16463   6.072   5.890   2.898  0.0005  0.6131 -0.1973
 5361SOL    HW116464   6.091   5.984   2.898 -0.4368  0.7145 -1.5634
 5361SOL    HW216465   6.156   5.849   2.919  0.5111  1.2663 -0.8831
 5362SOL     OW16466   2.368   3.626   0.053  0.9828  0.1530 -0.1835
 5362SOL    HW116467   2.280   3.595   0.033  0.5888  1.4875 -0.6056
 5362SOL    HW216468   2.401   3.565   0.118 -1.0606  0.8525  1.5789
 5363SOL     OW16469   6.279   4.602   4.265  0.4133 -0.3575 -0.0321
 5363SOL    HW116470   6.328   4.577   4.344 -1.8770  1.0853  1.8944
 5363SOL    HW216471   6.295   4.696   4.256  0.8650 -0.5631 -1.4604
 5364SOL     OW16472   1.394   4.723   1.486 -0.2495  0.2590  0.0039
 5364SOL    HW116473   1.472   4.779   1.485  0.5581 -0.8412  0.0423
 5364SOL    HW216474   1.330   4.769   1.433  0.7959  0.6707 -0.9192
 5365SOL     OW16475   1.934   1.863   3.272 -0.3287 -0.0139 -0.1836
 5365SOL    HW116476   1.895   1.838   3.355 -0.9338  1.4882  0.0045
 5365SOL    HW216477   2.020   1.821   3.271 -0.8189 -1.0272  0.6523
 5366SOL     OW16478   5.079   0.007   4.802  0.1248  0.0135 -0.1388
 5366SOL    HW116479   5.057  -0.085   4.820  0.0624  0.0456 -0.0551
 5366SOL    HW216480   5.121   0.005   4.716 -0.1674 -0.0495 -0.2781
 5367SOL     OW16481   4.352   4.237   0.613 -0.0851  0.3868  0.0852
 5367SOL    HW116482   4.301   4.182   0.673  0.7684 -3.1333 -2.2470
 5367SOL    HW216483   4.287   4.277   0.556 -0.6056  0.2207  0.5579
 5368SOL     OW16484   3.094   4.953   0.885  0.1147 -0.9360  0.4083
 5368SOL    HW116485   3.028   4.902   0.840  1.6434 -1.7309 -0.9823
 5368SOL    HW216486   3.113   4.904   0.965 -0.4175 -1.0976  0.4332
 5369SOL     OW16487   4.126   5.904   2.576 -0.1678 -0.7319 -0.1133
 5369SOL    HW116488   4.172   5.874   2.655 -1.6494  0.1080  1.0858
 5369SOL    HW216489   4.063   5.835   2.557  2.0920 -2.3036 -2.2715
 5370SOL     OW16490   2.405   0.170   3.795  0.4712 -0.4155 -0.1130
 5370SOL    HW116491   2.412   0.140   3.704  1.4979 -0.9499  0.1303
 5370SOL    HW216492   2.428   0.094   3.848  2.1953  0.5099  0.5300
 5371SOL     OW16493   3.543   1.223   0.456  0.2867  0.0667 -0.4713
 5371SOL    HW116494   3.562   1.181   0.372  1.5806 -0.0169 -0.1409
 5371SOL    HW216495   3.615   1.197   0.513 -1.3666 -1.1495  1.1367
 5372SOL     OW16496   2.727   6.120   1.628  0.4402 -0.1138  0.4087
 5372SOL    HW116497   2.653   6.071   1.663  0.0515  0.0100 -0.2283
 5372SOL    HW216498   2.756   6.174   1.702 -1.5280  1.5045  0.0571
 5373SOL     OW16499   3.407   5.850   0.439 -0.0721 -0.1891 -0.3762
 5373SOL    HW116500   3.355   5.923   0.473 -1.3380 -1.0043 -0.5341
 5373SOL    HW216501   3.356   5.815   0.366  1.5463  0.0957 -1.6801
 5374SOL     OW16502   4.325   0.687   0.452 -0.7284 -0.6616 -0.2082
 5374SOL    HW116503   4.355   0.678   0.361 -0.7177  1.5892 -0.4467
 5374SOL    HW216504   4.404   0.674   0.504 -0.9502 -3.1635 -0.4359
 5375SOL     OW16505   4.438   0.467   1.730  0.1628 -0.1150  0.4953
 5375SOL    HW116506   4.466   0.400   1.792  1.9695  2.2917  2.3958
 5375SOL    HW216507   4.503   0.464   1.660  0.5500  0.0372  0.8512
 5376SOL     OW16508   3.463   2.297   0.448  1.0299 -0.1162 -0.4449
 5376SOL    HW116509   3.482   2.304   0.355 -0.8618  1.2652 -0.7614
 5376SOL    HW216510   3.396   2.364   0.464 -0.4647 -1.9813  1.3949
 5377SOL     OW16511   3.928   2.816   1.656  0.1132  0.2052 -0.3333
 5377SOL    HW116512   3.892   2.727   1.651 -1.4514  0.8066  0.1229
 5377SOL    HW216513   3.862   2.867   1.702  2.0411  1.1009  1.5304
 5378SOL     OW16514   1.662   0.846   6.185  0.0041 -0.0313  0.2748
 5378SOL    HW116515   1.669   0.798   6.102 -1.1106 -1.4479  0.9689
 5378SOL    HW216516   1.751   0.850   6.219  0.6355  1.4933 -1.4957
 5379SOL     OW16517   5.030   3.433   4.318  0.1398  0.2548  0.4044
 5379SOL    HW116518   5.014   3.342   4.342  0.5848  0.8279  3.0430
 5379SOL    HW216519   5.123   3.438   4.299  0.1955  0.2500  0.6785
 5380SOL     OW16520   2.260   1.808   5.450  0.4477 -0.1394  0.1692
 5380SOL    HW116521   2.314   1.843   5.522  1.2121 -1.4362  0.2510
 5380SOL    HW216522   2.181   1.777   5.494  0.3566  0.2479  0.2805
 5381SOL     OW16523   5.180   1.827   1.396  0.3451 -0.2509 -0.6256
 5381SOL    HW116524   5.262   1.779   1.412  1.5971  2.0936  0.2037
 5381SOL    HW216525   5.206   1.919   1.393 -1.9432  0.3902 -2.6101
 5382SOL     OW16526   1.732   4.993   0.903 -0.1737 -0.4318  0.4431
 5382SOL    HW116527   1.726   4.916   0.959 -0.0991 -0.0853  0.9271
 5382SOL    HW216528   1.825   5.011   0.895 -0.2554  0.5497  1.6228
 5383SOL     OW16529   4.951   1.223   3.481 -0.2328  0.1868  0.1510
 5383SOL    HW116530   4.912   1.138   3.499  2.2380 -0.9257  0.4213
 5383SOL    HW216531   5.032   1.203   3.434  0.0823  2.4235 -0.3234
 5384SOL     OW16532   3.991   3.585   0.043  0.0975 -0.3909 -0.0788
 5384SOL    HW116533   3.995   3.536   0.125  1.4297 -1.5443 -0.8130
 5384SOL    HW216534   3.897   3.598   0.028 -0.1288  1.0494  2.3026
 5385SOL     OW16535   6.253   0.141   1.231  0.2775 -0.0436 -0.2259
 5385SOL    HW116536   6.160   0.127   1.217  0.0752  0.6699  0.4025
 5385SOL    HW216537   6.296   0.092   1.160 -0.6685  2.2939 -2.4680
 5386SOL     OW16538   4.974   1.975   2.649 -0.6065  0.1804  0.5255
 5386SOL    HW116539   5.013   2.049   2.602 -1.9642  1.0209  0.6977
 5386SOL    HW216540   4.928   2.015   2.723 -0.9760 -0.8778  0.8803
 5387SOL     OW16541   3.887   5.245   5.002 -0.0926 -0.2604 -0.1427
 5387SOL    HW116542   3.859   5.207   5.085  2.3740  1.2345  1.4227
 5387SOL    HW216543   3.855   5.183   4.936 -2.7056 -1.1232  1.8201
 5388SOL     OW16544   4.674   0.960   1.661 -0.8239 -0.2420 -0.1726
 5388SOL    HW116545   4.622   1.012   1.601  1.5309  1.1531 -1.0813
 5388SOL    HW216546   4.619   0.952   1.739 -1.9667  2.1034 -0.6791
 5389SOL     OW16547   1.507   5.240   2.022 -0.0896  0.7451 -0.1304
 5389SOL    HW116548   1.553   5.233   2.105 -1.0744  1.7788  0.5141
 5389SOL    HW216549   1.491   5.334   2.010 -1.5864  0.4634 -0.5691
 5390SOL     OW16550   2.491   6.249   5.452  0.0069 -0.1103 -0.1273
 5390SOL    HW116551   2.464   6.329   5.497 -1.7704  0.0524 -1.3970
 5390SOL    HW216552   2.448   6.178   5.500 -0.6627 -0.0643 -0.6555
 5391SOL     OW16553   3.904   1.307   2.398  0.4009  0.3747 -0.0402
 5391SOL    HW116554   3.970   1.301   2.329 -0.9124 -0.6177 -1.2728
 5391SOL    HW216555   3.883   1.216   2.418 -0.0479  0.6741  0.8599
 5392SOL     OW16556   1.851   2.613   5.267  0.1326 -0.3182  0.1082
 5392SOL    HW116557   1.794   2.661   5.206 -0.2869 -1.2021 -0.2120
 5392SOL    HW216558   1.796   2.541   5.298  0.9706 -0.9799  0.0578
 5393SOL     OW16559   3.346   2.381   2.044  0.0202 -0.0610 -0.3286
 5393SOL    HW116560   3.263   2.424   2.068 -0.5713 -0.6965 -1.1967
 5393SOL    HW216561   3.360   2.317   2.114 -1.0012 -0.9746 -0.9453
 5394SOL     OW16562   4.259   2.148   6.058 -0.3367 -0.1976 -0.4092
 5394SOL    HW116563   4.257   2.215   6.125 -0.2886  0.2004 -0.8064
 5394SOL    HW216564   4.201   2.181   5.989  0.2546 -0.2356 -0.9227
 5395SOL     OW16565   1.520   0.556   2.687 -0.1810 -0.6859  0.3020
 5395SOL    HW116566   1.486   0.627   2.632  0.5153  0.8649  1.8460
 5395SOL    HW216567   1.441   0.510   2.717 -0.7043  0.1917  0.2917
 5396SOL     OW16568   6.112   0.932   0.869  0.0201  0.1086 -0.4174
 5396SOL    HW116569   6.102   1.022   0.837  0.5465  0.3283  0.0232
 5396SOL    HW216570   6.125   0.879   0.790  1.1535  0.6195 -0.5867
 5397SOL     OW16571   2.248   3.592   2.661 -0.1299  0.6155 -0.1094
 5397SOL    HW116572   2.222   3.592   2.753 -1.8306 -0.4130 -0.5902
 5397SOL    HW216573   2.227   3.680   2.631 -0.4813  0.6478  0.2247
 5398SOL     OW16574   3.757   4.811   2.060 -0.0813  0.2692  0.1142
 5398SOL    HW116575   3.818   4.865   2.110  0.6318 -0.7459  0.3499
 5398SOL    HW216576   3.671   4.830   2.098  0.0924  1.5610 -0.0958
 5399SOL     OW16577   5.631   5.171   0.613  0.1097 -0.3546  0.3618
 5399SOL    HW116578   5.712   5.141   0.572  0.0168  0.2583 -0.2737
 5399SOL    HW216579   5.602   5.245   0.559 -2.6696 -2.6630 -1.4180
 5400SOL     OW16580   5.877   2.601   5.052 -0.1843  0.6512  0.0631
 5400SOL    HW116581   5.924   2.525   5.087  0.4353  1.2302  0.5112
 5400SOL    HW216582   5.791   2.598   5.094 -1.2380 -1.4372 -2.1290
 5401SOL     OW16583   3.089   3.189   1.978 -0.6573 -0.1269 -0.0052
 5401SOL    HW116584   3.059   3.117   1.922 -0.5379 -0.2655  0.1063
 5401SOL    HW216585   3.068   3.159   2.067 -1.9797  0.6302 -0.0617
 5402SOL     OW16586   5.492   3.589   6.102  0.0569 -0.5556 -0.0109
 5402SOL    HW116587   5.512   3.674   6.064 -0.2781 -0.7637 -0.6563
 5402SOL    HW216588   5.436   3.546   6.037 -0.9016 -0.7283  0.9174
 5403SOL     OW16589   3.561   3.130   0.871 -0.3692  0.6149 -0.3127
 5403SOL    HW116590   3.547   3.058   0.809  0.2470 -0.7104  1.0676
 5403SOL    HW216591   3.647   3.164   0.847 -0.1551  0.1421 -0.2289
 5404SOL     OW16592   3.904   4.640   5.542  0.1320  0.2070 -0.1446
 5404SOL    HW116593   3.940   4.711   5.594  0.8958  0.0728 -0.4863
 5404SOL    HW216594   3.977   4.609   5.489 -0.3289 -0.4737 -0.3961
 5405SOL     OW16595   0.095   0.101   4.412  0.2775 -0.4178  0.0364
 5405SOL    HW116596   0.120   0.078   4.322 -0.0260  0.4320 -0.2733
 5405SOL    HW216597   0.165   0.065   4.466 -0.4175 -2.4654 -0.3781
 5406SOL     OW16598   2.489   6.312   3.943 -0.2606 -0.0990  0.3861
 5406SOL    HW116599   2.454   6.230   3.978 -2.4203  0.7978  0.4176
 5406SOL    HW216600   2.581   6.313   3.970  0.1636 -3.1379 -0.7767
 5407SOL     OW16601   4.038   4.665   2.203  0.5344 -0.0191  0.0767
 5407SOL    HW116602   4.124   4.684   2.242  0.1077 -2.7397  2.5395
 5407SOL    HW216603   3.978   4.724   2.249  0.5875 -0.6368  0.9622
 5408SOL     OW16604   0.993   1.679   6.103 -0.0534  0.8275 -0.2944
 5408SOL    HW116605   0.901   1.650   6.096 -0.0201  0.9598 -1.3939
 5408SOL    HW216606   1.031   1.655   6.018  0.7817  1.2823 -0.0439
 5409SOL     OW16607   4.549   1.909   2.822 -0.1605  0.1049 -0.7390
 5409SOL    HW116608   4.470   1.862   2.849  2.3757 -2.0248  3.4427
 5409SOL    HW216609   4.602   1.843   2.779  0.7578  0.6942 -0.5182
 5410SOL     OW16610   3.142   0.426   1.645  0.2585 -0.3111 -0.2322
 5410SOL    HW116611   3.136   0.390   1.734  0.9607 -0.0380 -0.0700
 5410SOL    HW216612   3.140   0.521   1.657  0.5510 -0.2720 -0.4934
 5411SOL     OW16613   2.158   2.515   0.279  0.6637  0.1882  0.1760
 5411SOL    HW116614   2.127   2.479   0.196  0.0161 -0.0419  0.5138
 5411SOL    HW216615   2.184   2.439   0.331  0.8792  0.3157  0.2566
 5412SOL     OW16616   0.186   1.110   0.220  0.0228 -0.5943 -0.0421
 5412SOL    HW116617   0.176   1.206   0.222 -1.8306 -0.7543 -0.8294
 5412SOL    HW216618   0.172   1.083   0.311 -0.4721 -0.1983  0.0079
 5413SOL     OW16619   1.672   4.353   0.912 -0.1121 -0.6278  0.1115
 5413SOL    HW116620   1.594   4.391   0.951  0.8873  0.8940  0.6892
 5413SOL    HW216621   1.652   4.345   0.819 -0.5963  0.6769  0.0977
 5414SOL     OW16622   3.247   5.865   2.539 -0.0762 -0.1031 -0.1434
 5414SOL    HW116623   3.235   5.792   2.479 -0.5652 -0.4268  0.3414
 5414SOL    HW216624   3.168   5.865   2.593  0.3600  0.1760  0.5048
 5415SOL     OW16625   3.246   3.399   2.532  0.6337 -0.7972  0.5137
 5415SOL    HW116626   3.156   3.396   2.499  0.5854  0.7945  0.4630
 5415SOL    HW216627   3.243   3.462   2.605  1.7120 -0.7156  0.4977
 5416SOL     OW16628   4.261   5.199   5.886 -0.1345  0.4702  0.0233
 5416SOL    HW116629   4.280   5.264   5.954 -2.6770  0.6702  0.6045
 5416SOL    HW216630   4.237   5.252   5.810 -1.1468  0.2446  0.1756
 5417SOL     OW16631   6.337   1.481   6.176  0.0891 -0.6601  0.2992
 5417SOL    HW116632   6.250   1.448   6.201 -0.1936 -0.5827 -0.5482
 5417SOL    HW216633   6.344   1.459   6.083  0.9461 -0.5817  0.3493
 5418SOL     OW16634   1.495   5.722   4.512  0.2470 -0.0770 -0.5788
 5418SOL    HW116635   1.465   5.705   4.601 -0.0708 -1.7898 -0.9844
 5418SOL    HW216636   1.590   5.709   4.515  0.1607 -0.7360 -0.6088
 5419SOL     OW16637   3.558   4.203   5.120  0.0892  0.8428 -0.8650
 5419SOL    HW116638   3.521   4.284   5.082 -0.8486  0.3022 -1.1244
 5419SOL    HW216639   3.500   4.183   5.193  0.0589  0.1634 -1.0721
 5420SOL     OW16640   3.792   0.497   4.412  0.0328  0.0605  0.3112
 5420SOL    HW116641   3.883   0.506   4.386 -0.0309 -1.4310 -0.4469
 5420SOL    HW216642   3.745   0.481   4.331 -1.0676  1.8725  0.5613
 5421SOL     OW16643   5.330   3.226   3.925 -0.3622  0.1385 -0.3852
 5421SOL    HW116644   5.313   3.320   3.931  0.9306  0.2280  2.8336
 5421SOL    HW216645   5.272   3.187   3.991 -0.1321 -1.2394 -0.9771
 5422SOL     OW16646   1.062   3.560   3.980 -0.4138  0.4171 -0.1843
 5422SOL    HW116647   0.989   3.587   4.034 -1.7338  0.2021 -1.8190
 5422SOL    HW216648   1.125   3.632   3.987 -0.3879  0.2224  1.8869
 5423SOL     OW16649   0.294   5.084   0.343  0.5034 -0.2601  0.0733
 5423SOL    HW116650   0.321   5.059   0.255 -0.8477 -0.4228 -0.3085
 5423SOL    HW216651   0.375   5.089   0.393  1.4946  1.7169 -1.6545
 5424SOL     OW16652   5.753   4.000   2.611 -0.2854 -0.0053  0.2558
 5424SOL    HW116653   5.781   4.075   2.663  1.5137 -0.6293  0.2505
 5424SOL    HW216654   5.713   4.037   2.533 -0.2361  0.9460  0.6826
 5425SOL     OW16655   5.342   1.116   1.689 -0.6760 -0.4577 -0.1921
 5425SOL    HW116656   5.293   1.196   1.708 -1.0740 -0.7182 -0.1022
 5425SOL    HW216657   5.332   1.062   1.767  0.3948 -0.2069  0.1283
 5426SOL     OW16658   0.744   2.645   6.179 -1.4082 -0.5287 -0.0441
 5426SOL    HW116659   0.706   2.562   6.208 -1.4279 -0.0018  1.4733
 5426SOL    HW216660   0.833   2.644   6.212 -1.2102 -0.2227 -0.5644
 5427SOL     OW16661   4.696   1.689   0.589 -0.2376 -0.1798 -0.3146
 5427SOL    HW116662   4.749   1.763   0.558 -0.3310 -0.3811 -0.9579
 5427SOL    HW216663   4.661   1.718   0.673  0.1868  0.2907 -0.2981
 5428SOL     OW16664   5.029   5.255   3.224 -0.1630 -0.5928  0.3602
 5428SOL    HW116665   4.995   5.180   3.176  0.1658  0.7186 -1.9810
 5428SOL    HW216666   4.961   5.322   3.216  0.3819  0.0168  0.7345
 5429SOL     OW16667   6.308   2.006   3.777  0.9178  0.1587  0.0201
 5429SOL    HW116668   6.260   2.077   3.734 -0.5310  0.9412  2.7894
 5429SOL    HW216669   6.252   1.930   3.767  0.8783  0.1955 -0.0377
 5430SOL     OW16670   4.192   5.029   2.644  0.0609 -0.6506  0.2945
 5430SOL    HW116671   4.162   5.095   2.708 -0.4729  0.3190 -0.9450
 5430SOL    HW216672   4.277   5.062   2.615 -0.4245 -0.2548 -0.6823
 5431SOL     OW16673   3.112   2.766   0.187  0.3099  0.2795  0.1841
 5431SOL    HW116674   3.088   2.806   0.271 -0.5365 -0.1838  0.1781
 5431SOL    HW216675   3.182   2.821   0.153  0.1563  0.9020  0.8536
 5432SOL     OW16676   1.670   5.401   4.182  0.5395  0.0247 -1.1589
 5432SOL    HW116677   1.677   5.315   4.222 -3.2850  0.9969  1.8482
 5432SOL    HW216678   1.588   5.400   4.133  0.3466  1.9735 -0.9474
 5433SOL     OW16679   5.116   4.112   2.225  0.1936  0.3991 -0.0454
 5433SOL    HW116680   5.200   4.080   2.259 -0.0696 -1.0360 -0.7001
 5433SOL    HW216681   5.115   4.205   2.247  2.2827  0.5894 -0.6966
 5434SOL     OW16682   3.510   1.685   0.135 -0.5874  0.2654  0.1212
 5434SOL    HW116683   3.574   1.614   0.137  0.2944  1.0030 -1.2544
 5434SOL    HW216684   3.457   1.667   0.058 -1.6198  0.0267  0.8814
 5435SOL     OW16685   4.072   2.351   5.470 -0.5583  0.1682 -0.0938
 5435SOL    HW116686   4.032   2.297   5.538 -2.1025 -0.0481 -1.1400
 5435SOL    HW216687   3.997   2.386   5.421  0.5222  0.5067 -1.5221
 5436SOL     OW16688   1.158   0.372   0.687  0.3537  0.4509  0.0496
 5436SOL    HW116689   1.137   0.284   0.718 -0.8337  0.7181  0.0155
 5436SOL    HW216690   1.074   0.409   0.660  0.8534  1.5736 -0.0024
 5437SOL     OW16691   4.030   0.625   5.271  0.4629 -0.3484 -0.2046
 5437SOL    HW116692   4.103   0.662   5.222  0.5912 -0.0147  0.2270
 5437SOL    HW216693   4.056   0.534   5.287  0.7149 -0.2746 -0.1884
 5438SOL     OW16694   3.225   2.524   3.574 -0.3682 -0.0847 -0.1644
 5438SOL    HW116695   3.312   2.491   3.598 -0.3198  0.5213  0.5174
 5438SOL    HW216696   3.235   2.555   3.484  0.1414  0.0659 -0.0557
 5439SOL     OW16697   4.661   4.978   6.185  0.6399  0.0326  0.3725
 5439SOL    HW116698   4.747   4.964   6.224  0.6523 -0.0368  0.3204
 5439SOL    HW216699   4.653   5.074   6.179  0.9833  0.0273 -0.2142
 5440SOL     OW16700   4.575   4.381   0.553 -0.5233 -0.5174  0.1943
 5440SOL    HW116701   4.637   4.309   0.543 -0.5464 -0.6159  0.7113
 5440SOL    HW216702   4.489   4.339   0.548 -0.5621 -0.2667 -1.3431
 5441SOL     OW16703   1.503   0.945   0.723  0.1740 -0.2471 -0.3327
 5441SOL    HW116704   1.555   0.984   0.793 -0.9052  1.6005 -0.5275
 5441SOL    HW216705   1.567   0.898   0.669  1.1041 -1.0992  1.4789
 5442SOL     OW16706   5.195   0.862   2.954 -0.0757 -0.1110  0.0681
 5442SOL    HW116707   5.177   0.769   2.962  2.3791 -0.6945 -0.9226
 5442SOL    HW216708   5.252   0.869   2.877  0.7770  2.0697  0.8701
 5443SOL     OW16709   0.826   3.181   0.824 -0.5031  0.2268 -0.0868
 5443SOL    HW116710   0.915   3.209   0.804 -1.5340  3.1457 -0.8147
 5443SOL    HW216711   0.781   3.184   0.740 -1.5865 -0.1521  0.4768
 5444SOL     OW16712   3.352   5.477   6.238 -0.1338  0.1749  1.1041
 5444SOL    HW116713   3.384   5.387   6.234  0.1889  0.3282  0.1650
 5444SOL    HW216714   3.405   5.524   6.174 -1.0977  0.7880  0.7549
 5445SOL     OW16715   0.708   0.022   0.344  0.2981 -0.4959  0.1535
 5445SOL    HW116716   0.647   0.010   0.272 -3.4403 -0.1753  3.1235
 5445SOL    HW216717   0.730  -0.066   0.373 -0.1243 -0.5930  0.1724
 5446SOL     OW16718   3.700   5.824   1.114 -0.0476 -0.9254  0.0461
 5446SOL    HW116719   3.671   5.902   1.068 -1.1567 -0.4441  1.5264
 5446SOL    HW216720   3.778   5.795   1.066  1.0488  1.7182  0.1479
 5447SOL     OW16721   5.591   0.285   1.633 -0.3319  0.3841 -0.0837
 5447SOL    HW116722   5.507   0.319   1.662 -0.9784 -0.5522 -0.8382
 5447SOL    HW216723   5.603   0.204   1.682  0.7757  1.2079  1.0312
 5448SOL     OW16724   5.507   3.892   0.393 -0.3085  0.5634  0.4139
 5448SOL    HW116725   5.529   3.974   0.350 -0.4573  0.2659 -0.2413
 5448SOL    HW216726   5.467   3.918   0.476  0.5339  1.1310  0.6406
 5449SOL     OW16727   2.560   4.201   3.907  0.2806  0.1464 -0.6451
 5449SOL    HW116728   2.478   4.250   3.900  1.0010  1.2482 -1.4300
 5449SOL    HW216729   2.577   4.198   4.001 -1.0613 -0.7823 -0.4130
 5450SOL     OW16730   4.320   0.214   3.602 -0.0364  1.0086  0.0910
 5450SOL    HW116731   4.305   0.119   3.609  0.6525  1.0348  2.3670
 5450SOL    HW216732   4.232   0.251   3.592 -0.3634  0.1851 -0.1265
 5451SOL     OW16733   4.609   3.412   5.012  0.0814 -0.0372  0.8342
 5451SOL    HW116734   4.629   3.339   4.953  2.1296  0.9628  0.2178
 5451SOL    HW216735   4.672   3.480   4.986 -1.4547  1.7493  1.7293
 5452SOL     OW16736   3.542   2.360   2.745 -0.3215  0.5511 -0.2554
 5452SOL    HW116737   3.626   2.393   2.777  0.3578 -0.8890 -0.5240
 5452SOL    HW216738   3.476   2.407   2.796  0.6921  0.1531  1.4364
 5453SOL     OW16739   2.572   3.494   2.151 -0.0176 -0.6953 -0.3196
 5453SOL    HW116740   2.528   3.459   2.073 -0.6142  1.0302 -0.7880
 5453SOL    HW216741   2.650   3.538   2.117 -0.3666  0.2098  0.0214
 5454SOL     OW16742   1.776   2.163   5.137 -0.2541 -0.1126  0.3823
 5454SOL    HW116743   1.773   2.225   5.210 -0.9032 -2.1322  2.1171
 5454SOL    HW216744   1.870   2.146   5.125 -0.0860  1.0520  0.0344
 5455SOL     OW16745   6.312   6.225   4.774  0.1099  0.0666 -0.1582
 5455SOL    HW116746   6.391   6.270   4.805  0.4353 -0.1534 -0.6541
 5455SOL    HW216747   6.301   6.152   4.836 -1.2737  1.6564  1.5390
 5456SOL     OW16748   5.032   4.375   5.365  0.2536 -0.4408  0.5065
 5456SOL    HW116749   5.007   4.460   5.329 -0.0005 -1.3144 -1.4599
 5456SOL    HW216750   4.972   4.362   5.439  0.0983  0.9397  0.6424
 5457SOL     OW16751   4.163   2.268   3.518 -0.2462 -0.5029  0.2499
 5457SOL    HW116752   4.202   2.186   3.488  3.3571  0.7104  1.3670
 5457SOL    HW216753   4.223   2.336   3.488 -0.8565  1.3590  3.0702
 5458SOL     OW16754   1.422   1.610   1.463 -0.0577 -0.1558  0.0093
 5458SOL    HW116755   1.339   1.564   1.479 -0.2006  0.2311  0.3903
 5458SOL    HW216756   1.396   1.698   1.437  0.2637  0.3542  1.4053
 5459SOL     OW16757   5.289   5.723   4.207 -0.0752 -0.0034 -0.1981
 5459SOL    HW116758   5.342   5.717   4.287 -0.1616 -0.9985 -0.2056
 5459SOL    HW216759   5.353   5.715   4.136 -0.2583 -1.6130 -0.2056
 5460SOL     OW16760   1.296   4.996   4.721  0.1951  0.0433  0.3006
 5460SOL    HW116761   1.322   5.042   4.641 -0.4764 -0.0018  0.0520
 5460SOL    HW216762   1.295   4.903   4.697 -0.5734  0.0731  0.1927
 5461SOL     OW16763   1.422   5.012   6.085 -0.4241 -0.2694  0.2169
 5461SOL    HW116764   1.406   4.959   6.163 -0.5030 -0.3646  0.1360
 5461SOL    HW216765   1.440   5.100   6.120 -2.0204  0.0409  0.2703
 5462SOL     OW16766   2.997   4.714   1.551  0.1992  0.3435  0.2349
 5462SOL    HW116767   2.956   4.746   1.471  1.8249  1.4343 -0.1820
 5462SOL    HW216768   3.065   4.653   1.520  0.5618  0.4644  0.7824
 5463SOL     OW16769   1.679   2.734   6.358  0.6560 -0.0514 -0.5862
 5463SOL    HW116770   1.653   2.721   6.267 -1.8733 -0.0023  0.0796
 5463SOL    HW216771   1.766   2.773   6.353 -0.3193  1.9515 -3.0441
 5464SOL     OW16772   1.334   0.392   1.195 -0.3412 -0.0559  0.0746
 5464SOL    HW116773   1.395   0.422   1.127 -0.5293 -3.0993 -1.5375
 5464SOL    HW216774   1.249   0.393   1.153 -0.7120 -0.3927  0.8100
 5465SOL     OW16775   3.876   0.773   2.345 -0.5171  0.0284  0.3246
 5465SOL    HW116776   3.846   0.731   2.265  0.5013 -2.8275  1.3768
 5465SOL    HW216777   3.971   0.784   2.333 -0.8372  2.6735 -0.1793
 5466SOL     OW16778   4.935   5.067   1.992  0.0356 -0.3323  0.3814
 5466SOL    HW116779   5.001   5.017   1.944 -1.0308 -1.0740 -0.3231
 5466SOL    HW216780   4.984   5.109   2.063  1.2156 -1.0754  0.0190
 5467SOL     OW16781   6.075   6.360   3.053  0.5257 -0.5312 -0.5552
 5467SOL    HW116782   6.138   6.430   3.069  0.2809  0.1176 -2.3961
 5467SOL    HW216783   6.114   6.308   2.983  0.0477 -1.4288 -0.1676
 5468SOL     OW16784   1.727   4.992   0.625 -0.7107  0.0096 -0.5760
 5468SOL    HW116785   1.719   4.987   0.721 -1.5945  1.1168 -0.5796
 5468SOL    HW216786   1.728   5.086   0.607 -2.6190 -0.1846 -1.8232
 5469SOL     OW16787   4.324   0.867   0.096 -0.2253 -0.0931  0.0578
 5469SOL    HW116788   4.317   0.900   0.007 -2.6489  1.1205  0.6520
 5469SOL    HW216789   4.380   0.929   0.141 -0.4090  0.2481 -0.1836
 5470SOL     OW16790   0.716   4.418   3.922  0.3702  0.1074 -0.6397
 5470SOL    HW116791   0.719   4.376   3.836  1.7825  0.3987 -0.7579
 5470SOL    HW216792   0.807   4.419   3.951 -0.1023 -0.0375  0.8948
 5471SOL     OW16793   1.722   3.739   3.845 -0.2089 -0.0710  0.2296
 5471SOL    HW116794   1.705   3.768   3.756 -0.1807  1.4315  0.7055
 5471SOL    HW216795   1.739   3.819   3.894 -1.5140 -0.7566  1.8647
 5472SOL     OW16796   5.227   2.337   0.478 -0.0865  0.3518 -0.1279
 5472SOL    HW116797   5.186   2.367   0.558 -1.4264 -1.0043 -0.2854
 5472SOL    HW216798   5.189   2.392   0.409 -1.1000 -0.3915 -0.1774
 5473SOL     OW16799   2.711   3.742   1.126  0.2419  0.2594  0.2879
 5473SOL    HW116800   2.756   3.666   1.090  1.0350  0.2051  1.3774
 5473SOL    HW216801   2.634   3.754   1.069  1.9982  0.8149 -2.0343
 5474SOL     OW16802   1.984   3.770   1.447 -0.7717 -0.4680 -0.2746
 5474SOL    HW116803   1.905   3.716   1.455  1.3931 -3.6831  0.7350
 5474SOL    HW216804   1.983   3.800   1.356 -4.3058  1.5628  0.3176
 5475SOL     OW16805   3.594   4.466   1.478 -0.6415  0.0623 -0.4222
 5475SOL    HW116806   3.585   4.552   1.521 -1.5048 -0.7030  0.9524
 5475SOL    HW216807   3.519   4.461   1.418 -2.1003 -0.8293  1.4443
 5476SOL     OW16808   1.068   4.696   4.403 -0.4414 -0.1163  0.2534
 5476SOL    HW116809   1.115   4.612   4.398  0.9776  0.7115 -0.5852
 5476SOL    HW216810   1.019   4.701   4.321  0.9460  0.7020 -0.5571
 5477SOL     OW16811   2.725   5.192   2.950 -0.3408 -0.0340 -0.3638
 5477SOL    HW116812   2.755   5.271   2.905  1.2950  0.2255  1.1249
 5477SOL    HW216813   2.732   5.122   2.885  2.8079  0.1736 -0.3230
 5478SOL     OW16814   0.420   0.221   1.271  0.4964 -0.5922  0.0635
 5478SOL    HW116815   0.494   0.202   1.213  0.1846 -0.2605 -0.4476
 5478SOL    HW216816   0.343   0.210   1.215  0.1636 -0.7976  0.5569
 5479SOL     OW16817   3.813   4.498   4.859 -0.1395  0.2003 -0.5944
 5479SOL    HW116818   3.767   4.536   4.934  1.6861  1.1129  0.0804
 5479SOL    HW216819   3.746   4.492   4.791 -1.5635  0.3401  0.7698
 5480SOL     OW16820   2.782   4.030   3.828  0.3583 -0.2350  0.1352
 5480SOL    HW116821   2.710   4.089   3.850  1.1876  1.0598 -0.5305
 5480SOL    HW216822   2.774   3.958   3.891 -0.1630  1.0288  1.5563
 5481SOL     OW16823   3.377   1.908   4.433 -0.5662 -0.2903  0.5642
 5481SOL    HW116824   3.318   1.954   4.374  0.0036  0.2678  0.4205
 5481SOL    HW216825   3.349   1.936   4.521 -1.0795 -0.7185  0.5401
 5482SOL     OW16826   6.207   5.709   1.440  0.3811 -0.3498  0.0500
 5482SOL    HW116827   6.258   5.632   1.417  2.0531  0.7234  0.0636
 5482SOL    HW216828   6.233   5.728   1.531  2.3824  2.0502 -0.9749
 5483SOL     OW16829   2.742   1.310   5.138  0.1534 -0.1798  0.0252
 5483SOL    HW116830   2.758   1.366   5.061  1.5115 -0.8427 -0.1977
 5483SOL    HW216831   2.721   1.225   5.101  2.5846 -0.9694  0.3679
 5484SOL     OW16832   2.061   4.274   6.041 -0.4749  0.3209 -0.1148
 5484SOL    HW116833   2.122   4.262   6.114 -0.0064  2.9638 -0.0271
 5484SOL    HW216834   2.096   4.218   5.972  0.7490  0.0281  0.7201
 5485SOL     OW16835   2.543   0.698   3.972 -0.5697 -0.2508  0.2723
 5485SOL    HW116836   2.601   0.771   3.993 -1.4269  0.5721 -0.1915
 5485SOL    HW216837   2.562   0.677   3.881  0.9795 -1.8316  0.9169
 5486SOL     OW16838   1.906   3.231   4.587  0.1697 -0.0175  0.1243
 5486SOL    HW116839   1.929   3.160   4.646  1.9368 -0.1695 -0.7097
 5486SOL    HW216840   1.906   3.310   4.642  1.0850 -0.2589  0.4820
 5487SOL     OW16841   1.144   5.446   5.298 -0.0583 -0.4651  0.0276
 5487SOL    HW116842   1.194   5.512   5.250 -1.8298  1.1319  0.3419
 5487SOL    HW216843   1.151   5.367   5.244  2.0474 -0.0348 -0.3662
 5488SOL     OW16844   5.099   4.342   5.976 -0.0836  0.1300 -0.1906
 5488SOL    HW116845   5.128   4.292   5.900  1.4182  0.0565  0.4221
 5488SOL    HW216846   5.028   4.397   5.943 -0.4972 -1.0439 -1.2843
 5489SOL     OW16847   0.872   6.246   3.556 -0.0762 -0.0773  0.1480
 5489SOL    HW116848   0.795   6.197   3.584 -0.6048  0.8954  0.4013
 5489SOL    HW216849   0.841   6.301   3.484  0.5767 -0.2993 -0.3123
 5490SOL     OW16850   0.649   3.885   2.980  0.3228 -0.3889  0.0667
 5490SOL    HW116851   0.574   3.858   2.927  1.2591 -1.7273 -0.6040
 5490SOL    HW216852   0.719   3.825   2.955  1.8860  1.3954  0.0358
 5491SOL     OW16853   3.900   5.850   4.139  0.5901  0.1856 -0.2090
 5491SOL    HW116854   3.855   5.832   4.222 -0.8486  0.2824 -0.9621
 5491SOL    HW216855   3.854   5.796   4.075 -0.6167  2.7530 -1.5976
 5492SOL     OW16856   2.613   3.900   3.169 -0.5035 -0.1912 -0.8507
 5492SOL    HW116857   2.638   3.992   3.178  0.5046 -0.6718  1.5309
 5492SOL    HW216858   2.517   3.901   3.170 -0.5020  0.6650  1.4359
 5493SOL     OW16859   3.021   5.764   4.490  0.0810  0.0199  0.2456
 5493SOL    HW116860   2.959   5.746   4.420 -0.9210  1.9320  0.5991
 5493SOL    HW216861   3.057   5.679   4.513  0.2687 -0.6766 -2.4227
 5494SOL     OW16862   1.495   5.249   6.235 -0.0986  0.6700 -0.0117
 5494SOL    HW116863   1.500   5.309   6.160 -0.5895  0.5343 -0.1604
 5494SOL    HW216864   1.585   5.238   6.264 -0.1250  2.6118  0.9195
 5495SOL     OW16865   1.030   3.722   0.154  0.0775 -0.3428  0.9554
 5495SOL    HW116866   1.079   3.746   0.232  0.6713 -0.6875  0.6894
 5495SOL    HW216867   0.976   3.647   0.180 -0.7292  0.3760  1.3977
 5496SOL     OW16868   0.823   5.966   1.505 -0.0086  0.7205  0.3358
 5496SOL    HW116869   0.836   5.871   1.501 -0.5754  0.5859  1.6482
 5496SOL    HW216870   0.824   5.993   1.413  0.8988 -0.4465 -0.0235
 5497SOL     OW16871   2.146   0.031   3.672 -0.1618  0.4636  0.0564
 5497SOL    HW116872   2.158   0.122   3.701 -0.0513  1.0511 -1.7608
 5497SOL    HW216873   2.055   0.027   3.643  0.0224  0.1806 -0.4834
 5498SOL     OW16874   2.379   4.279   4.691  0.0028  0.3125 -0.6219
 5498SOL    HW116875   2.376   4.364   4.647 -1.0806  0.0285 -1.0992
 5498SOL    HW216876   2.312   4.227   4.648  1.0380 -0.9737 -0.7092
 5499SOL     OW16877   5.272   2.794   1.215 -0.2458 -0.4894  0.0639
 5499SOL    HW116878   5.268   2.700   1.233 -0.5569 -0.7236 -1.2055
 5499SOL    HW216879   5.358   2.807   1.175 -0.3580 -0.2880 -0.1131
 5500SOL     OW16880   2.975   0.591   4.973 -0.3146  0.4738 -0.5958
 5500SOL    HW116881   3.068   0.580   4.954 -0.3584  1.1793 -1.2255
 5500SOL    HW216882   2.965   0.561   5.064  0.4173 -0.1466 -0.7163
 5501SOL     OW16883   2.334   1.690   3.880  0.0985 -0.0128  0.1063
 5501SOL    HW116884   2.369   1.724   3.798 -0.1759  3.2614  1.2852
 5501SOL    HW216885   2.241   1.713   3.878 -0.3870 -1.8697  0.3897
 5502SOL     OW16886   5.702   0.014   1.353 -0.9751 -0.7151 -0.5275
 5502SOL    HW116887   5.781   0.059   1.384 -0.6791 -0.7576 -1.1958
 5502SOL    HW216888   5.630   0.056   1.399 -0.6215 -0.1624 -0.4738
 5503SOL     OW16889   2.225   4.588   2.687 -0.2190  0.2088  0.0625
 5503SOL    HW116890   2.233   4.583   2.592 -3.4957  1.2768 -0.3293
 5503SOL    HW216891   2.238   4.681   2.707 -0.5684  0.1610  0.5214
 5504SOL     OW16892   1.726   2.747   1.732 -0.8391 -0.1472  0.1585
 5504SOL    HW116893   1.733   2.652   1.721  0.4695 -0.1946  1.2527
 5504SOL    HW216894   1.634   2.761   1.757 -1.2272 -1.0368 -0.7095
 5505SOL     OW16895   4.358   5.656   0.989 -0.2731  0.1649 -0.1183
 5505SOL    HW116896   4.343   5.732   0.933  2.9608 -0.0331 -1.3454
 5505SOL    HW216897   4.371   5.584   0.928  1.4027 -0.4201  0.9178
 5506SOL     OW16898   1.187   2.067   1.430  0.3513  0.0967  0.1556
 5506SOL    HW116899   1.145   2.058   1.516  0.5351  1.2665  0.3818
 5506SOL    HW216900   1.116   2.090   1.371  0.3240 -0.1005  0.1110
 5507SOL     OW16901   3.043   2.534   2.984  0.3511  0.3475 -1.0254
 5507SOL    HW116902   3.034   2.593   2.910 -0.8769  0.5509 -0.7341
 5507SOL    HW216903   2.985   2.571   3.051  2.8537  1.2030  0.7156
 5508SOL     OW16904   1.852   2.652   3.685 -0.4493  0.3071  0.5491
 5508SOL    HW116905   1.859   2.674   3.592 -0.6447 -0.1870  0.4153
 5508SOL    HW216906   1.886   2.729   3.730 -1.0096  0.8416  0.0832
 5509SOL     OW16907   5.961   4.665   1.586  0.3106 -0.1924  0.2346
 5509SOL    HW116908   6.007   4.738   1.546  1.4863 -1.4231 -0.6972
 5509SOL    HW216909   5.873   4.669   1.549  1.2365 -1.0294 -2.1671
 5510SOL     OW16910   4.476   1.915   1.938  0.1857 -0.6710 -0.1284
 5510SOL    HW116911   4.467   2.005   1.908  0.0515 -1.1770 -1.6498
 5510SOL    HW216912   4.564   1.911   1.977  0.2776  0.0474 -0.2539
 5511SOL     OW16913   1.031   0.536   0.305  0.2088 -0.4304  0.7836
 5511SOL    HW116914   0.942   0.540   0.339  1.0831  0.2785  3.0692
 5511SOL    HW216915   1.075   0.471   0.360  1.6606  0.7714  1.0668
 5512SOL     OW16916   1.174   4.445   4.390 -0.1933 -0.1010 -0.2324
 5512SOL    HW116917   1.215   4.400   4.464 -0.8781  1.2168  0.9692
 5512SOL    HW216918   1.245   4.458   4.327  0.3332 -1.4844  0.0652
 5513SOL     OW16919   1.637   0.633   0.180  0.0903  0.8279  0.2223
 5513SOL    HW116920   1.606   0.673   0.098 -0.1336 -0.9467 -0.5701
 5513SOL    HW216921   1.732   0.631   0.171  0.1777  2.2356  0.7635
 5514SOL     OW16922   0.198   5.175   3.450 -0.2063  0.1528 -0.2747
 5514SOL    HW116923   0.232   5.120   3.379 -0.4957 -0.8959  0.3941
 5514SOL    HW216924   0.105   5.186   3.430 -0.3032 -0.2041 -0.0102
 5515SOL     OW16925   5.668   5.723   4.786 -0.2069  0.8641 -0.0063
 5515SOL    HW116926   5.709   5.723   4.872  2.7893  0.6242 -1.3819
 5515SOL    HW216927   5.662   5.630   4.763  1.4515  1.0188 -1.1460
 5516SOL     OW16928   4.147   0.833   1.704 -0.2667  0.4997 -0.3809
 5516SOL    HW116929   4.062   0.800   1.733  0.0324  0.7477  0.8012
 5516SOL    HW216930   4.189   0.757   1.663  0.9383 -1.0627  3.4374
 5517SOL     OW16931   0.464   1.855   5.063 -0.1875 -0.4129  0.1533
 5517SOL    HW116932   0.423   1.934   5.028  1.3103 -0.8130 -2.7204
 5517SOL    HW216933   0.477   1.872   5.156 -0.7876  2.3207 -0.2486
 5518SOL     OW16934   5.248   2.129   2.287  0.5747  0.0383  0.3019
 5518SOL    HW116935   5.276   2.159   2.373 -0.5332  1.0688  0.3211
 5518SOL    HW216936   5.155   2.152   2.283 -0.2543 -3.1017  0.1761
 5519SOL     OW16937   3.359   4.318   6.323 -0.4129 -0.0302 -0.0964
 5519SOL    HW116938   3.303   4.269   6.262 -1.0691  0.5493  0.0268
 5519SOL    HW216939   3.414   4.251   6.364 -1.0221 -0.6196 -0.2177
 5520SOL     OW16940   1.485   5.756   6.346 -0.3552  0.1071 -0.4823
 5520SOL    HW116941   1.561   5.722   6.392 -0.3246 -0.7908 -1.1822
 5520SOL    HW216942   1.415   5.757   6.411  0.1489  0.5561  0.0525
 5521SOL     OW16943   0.459   5.484   5.057 -0.5518 -0.5062 -0.6498
 5521SOL    HW116944   0.524   5.512   5.122 -0.5957  0.0287 -0.8303
 5521SOL    HW216945   0.421   5.404   5.094  0.2429 -0.8441 -0.5706
 5522SOL     OW16946   1.810   6.168   4.882 -0.0158 -0.1636  0.0707
 5522SOL    HW116947   1.840   6.103   4.945 -0.9054 -0.3902  0.2651
 5522SOL    HW216948   1.855   6.147   4.801  1.4627  0.3791  0.7279
 5523SOL     OW16949   4.569   5.224   5.891 -0.5229  0.0844  0.2667
 5523SOL    HW116950   4.562   5.158   5.822 -1.4135 -0.8514  1.2238
 5523SOL    HW216951   4.647   5.200   5.941 -1.4255 -0.8777  1.2420
 5524SOL     OW16952   4.713   3.924   0.790  0.3713 -0.0063  0.6124
 5524SOL    HW116953   4.661   3.906   0.711  0.1198 -0.2907  0.8388
 5524SOL    HW216954   4.803   3.930   0.759  0.1202  1.2593  0.0971
 5525SOL     OW16955   0.728   1.161   0.713 -0.1764  0.3296  0.1689
 5525SOL    HW116956   0.810   1.169   0.760  0.2066  1.4352 -0.6609
 5525SOL    HW216957   0.724   1.068   0.687  2.5189  0.9320 -2.7850
 5526SOL     OW16958   1.418   3.846   3.870 -0.3704 -0.2794 -0.3609
 5526SOL    HW116959   1.460   3.828   3.786 -1.5583  0.6961 -1.1774
 5526SOL    HW216960   1.399   3.940   3.868 -0.9084 -0.3512  0.7704
 5527SOL     OW16961   4.575   1.010   3.681 -0.0907  0.3767  0.0641
 5527SOL    HW116962   4.626   0.969   3.750  0.1679  1.1920  0.3581
 5527SOL    HW216963   4.486   0.975   3.693 -0.1437  0.8357  1.0753
 5528SOL     OW16964   5.391   2.871   4.977  0.2304 -0.3087  0.0954
 5528SOL    HW116965   5.340   2.797   5.010  0.0577 -0.0448  0.4351
 5528SOL    HW216966   5.478   2.835   4.960 -0.4020 -1.0402 -1.6481
 5529SOL     OW16967   3.944   6.100   5.813 -0.5321 -0.0080 -0.2051
 5529SOL    HW116968   3.873   6.127   5.754  0.0270  0.2266 -0.7749
 5529SOL    HW216969   4.020   6.150   5.784  0.1728 -1.1649 -0.3676
 5530SOL     OW16970   4.670   1.066   6.075  0.2983  0.1370  0.0268
 5530SOL    HW116971   4.711   1.136   6.127 -0.9213  1.5116 -0.8170
 5530SOL    HW216972   4.584   1.054   6.115 -0.2110  0.4196 -0.9719
 5531SOL     OW16973   1.928   0.418   4.746 -0.4332  0.1006  0.1156
 5531SOL    HW116974   1.886   0.504   4.755 -2.0116 -0.7702  1.0911
 5531SOL    HW216975   1.858   0.355   4.759  1.1177 -1.3745  1.5085
 5532SOL     OW16976   0.465   4.087   2.669  0.4595  0.4650  0.5772
 5532SOL    HW116977   0.555   4.061   2.691  0.4349  0.1645  0.3268
 5532SOL    HW216978   0.442   4.032   2.594 -0.6160 -0.8407  1.8449
 5533SOL     OW16979   0.462   4.046   5.948 -0.9363  0.1667 -0.0727
 5533SOL    HW116980   0.485   4.007   5.864  0.7076  0.8235  0.0621
 5533SOL    HW216981   0.393   3.989   5.983 -2.9405  0.8811 -2.6664
 5534SOL     OW16982   4.159   4.644   5.016  0.5408  0.2983 -0.1593
 5534SOL    HW116983   4.176   4.645   4.922 -0.0632 -2.0958 -0.3442
 5534SOL    HW216984   4.210   4.569   5.049 -0.2979  0.2986  1.1973
 5535SOL     OW16985   2.579   6.179   1.125 -0.0090  0.5861 -0.3914
 5535SOL    HW116986   2.513   6.229   1.173  0.6543 -1.0786  2.3128
 5535SOL    HW216987   2.529   6.125   1.064 -1.2319 -1.0209  1.9641
 5536SOL     OW16988   4.158   0.951   6.191 -0.0137  0.0911 -0.0697
 5536SOL    HW116989   4.139   0.858   6.202  0.4432 -0.2097 -1.6925
 5536SOL    HW216990   4.090   0.983   6.132  0.5626  0.4948 -0.5284
 5537SOL     OW16991   6.324   4.876   0.921  0.1353  0.0443  0.2086
 5537SOL    HW116992   6.335   4.953   0.978  0.3187 -0.6331  1.1003
 5537SOL    HW216993   6.359   4.803   0.972 -1.1800 -0.8385 -0.1220
 5538SOL     OW16994   2.952   3.016   1.787  0.5675  0.3926 -0.0407
 5538SOL    HW116995   2.922   3.057   1.706 -1.5934  1.0622  1.0497
 5538SOL    HW216996   2.882   2.954   1.809  2.6159 -2.0876 -0.3449
 5539SOL     OW16997   5.160   3.193   3.557  0.3002  0.2145 -0.2177
 5539SOL    HW116998   5.080   3.144   3.539  1.2867 -1.5272  0.0481
 5539SOL    HW216999   5.156   3.212   3.651  2.1841 -3.6329  0.7518
 5540SOL     OW17000   4.372   2.540   1.590  0.2841 -0.1851 -0.6913
 5540SOL    HW117001   4.369   2.611   1.654  0.5420 -1.7936  1.1855
 5540SOL    HW217002   4.281   2.531   1.560  0.0317  0.1645 -0.0519
 5541SOL     OW17003   2.949   2.111   3.735  0.3259 -0.2614  0.7390
 5541SOL    HW117004   2.959   2.185   3.675  0.2787 -1.1087 -0.3182
 5541SOL    HW217005   3.018   2.124   3.801  0.6318  0.4555  0.2779
 5542SOL     OW17006   1.788   4.706   1.983  0.0334 -0.8918 -0.3309
 5542SOL    HW117007   1.769   4.613   1.996 -2.6214 -0.4734 -0.8423
 5542SOL    HW217008   1.757   4.725   1.894 -1.6970  0.9994  0.6237
 5543SOL     OW17009   3.323   5.705   5.086 -0.1662  0.4101 -0.1922
 5543SOL    HW117010   3.391   5.771   5.096 -0.3709  0.9261 -2.0438
 5543SOL    HW217011   3.292   5.688   5.175  1.7259  0.8560  0.5627
 5544SOL     OW17012   6.289   4.377   4.116 -0.2745  0.1320 -0.3542
 5544SOL    HW117013   6.279   4.457   4.168  1.0732 -0.1950  0.4373
 5544SOL    HW217014   6.204   4.365   4.075 -1.3669  0.4565  1.7230
 5545SOL     OW17015   4.610   0.559   2.499 -0.3367 -0.3635 -0.3053
 5545SOL    HW117016   4.693   0.600   2.474 -0.6831  0.1152 -0.6787
 5545SOL    HW217017   4.631   0.466   2.510  0.4096 -0.1268  0.3396
 5546SOL     OW17018   5.818   4.600   0.726  0.2112 -0.2162 -0.3044
 5546SOL    HW117019   5.819   4.533   0.657 -1.4711 -0.2775 -0.2878
 5546SOL    HW217020   5.750   4.661   0.699  0.9359  0.8620  0.2886
 5547SOL     OW17021   5.378   4.546   2.911  0.1012  0.2851  0.4584
 5547SOL    HW117022   5.397   4.615   2.975 -0.0860 -0.6193  1.4933
 5547SOL    HW217023   5.286   4.524   2.926 -0.5400  1.4464 -1.4718
 5548SOL     OW17024   2.131   5.506   3.512  0.0768  0.1728 -0.2136
 5548SOL    HW117025   2.171   5.451   3.579 -1.1057 -2.1044 -1.3007
 5548SOL    HW217026   2.191   5.499   3.437  0.1813  0.7897 -0.1897
 5549SOL     OW17027   6.092   0.409   2.408  0.2984 -0.5677  0.5678
 5549SOL    HW117028   6.033   0.407   2.333  0.1694 -1.5971  0.6838
 5549SOL    HW217029   6.136   0.324   2.406  2.0090  0.3052  0.3058
 5550SOL     OW17030   4.367   3.118   5.335  0.1107  0.1024 -0.1026
 5550SOL    HW117031   4.392   3.117   5.428  0.6777  1.2101 -0.2405
 5550SOL    HW217032   4.376   3.027   5.307 -1.6888 -0.5720  1.3583
 5551SOL     OW17033   3.902   6.057   2.645  0.3145 -0.1959 -0.1622
 5551SOL    HW117034   3.968   6.013   2.591  0.2554 -0.5387  0.0386
 5551SOL    HW217035   3.822   6.008   2.628 -0.3586  1.4954 -1.9989
 5552SOL     OW17036   6.319   0.543   0.060  0.4505 -0.2374 -0.5360
 5552SOL    HW117037   6.374   0.499  -0.004 -0.5172 -1.0800 -0.7965
 5552SOL    HW217038   6.231   0.539   0.024  0.2709  1.5480 -0.3626
 5553SOL     OW17039   3.003   3.380   2.752  0.1561 -0.1793 -0.1840
 5553SOL    HW117040   2.954   3.460   2.769 -1.5275 -1.5074  1.3738
 5553SOL    HW217041   3.087   3.394   2.794 -0.1381  0.7570  0.1082
 5554SOL     OW17042   0.693   5.996   3.972  0.3300  0.0311 -0.2009
 5554SOL    HW117043   0.648   6.062   4.025 -0.4318 -0.1303 -0.6328
 5554SOL    HW217044   0.689   5.916   4.026 -0.8756 -0.2563 -0.6926
 5555SOL     OW17045   1.744   1.371   0.166  0.4837 -0.0968 -0.6551
 5555SOL    HW117046   1.835   1.357   0.190  1.2366  1.1604 -2.5975
 5555SOL    HW217047   1.721   1.455   0.205 -0.7398 -1.6396  2.1178
 5556SOL     OW17048   2.560   3.106   2.337 -0.2191 -0.5864  0.0486
 5556SOL    HW117049   2.550   3.036   2.400  0.3470 -1.9424 -1.3282
 5556SOL    HW217050   2.493   3.090   2.271  0.8004 -0.6818 -1.0030
 5557SOL     OW17051   2.588   1.487   1.038 -0.7129  0.2326  0.6180
 5557SOL    HW117052   2.614   1.498   1.130  0.3377 -0.8166  0.4619
 5557SOL    HW217053   2.569   1.575   1.007  0.0624  0.7177  1.5219
 5558SOL     OW17054   1.550   2.490   5.779 -0.1208 -0.2239 -0.3477
 5558SOL    HW117055   1.600   2.548   5.836  1.0290 -0.8431 -0.7105
 5558SOL    HW217056   1.527   2.545   5.704  0.6663 -0.1345 -0.5300
 5559SOL     OW17057   0.213   0.290   2.135 -0.8685 -0.3647 -0.3681
 5559SOL    HW117058   0.264   0.268   2.058  1.3418 -0.6107  1.1115
 5559SOL    HW217059   0.231   0.219   2.197 -3.5637 -0.8055 -0.0483
 5560SOL     OW17060   3.263   4.934   5.397  0.2486  0.1146  0.7016
 5560SOL    HW117061   3.275   5.020   5.356  1.0491 -0.4033 -0.1505
 5560SOL    HW217062   3.178   4.941   5.441 -0.5923  0.7009 -0.9617
 5561SOL     OW17063   3.786   1.277   1.414  0.2420  0.5264  0.6354
 5561SOL    HW117064   3.732   1.348   1.379 -0.0736  0.3932  0.8527
 5561SOL    HW217065   3.741   1.197   1.387  1.2475  0.3717 -0.6675
 5562SOL     OW17066   3.203   3.317   1.221  0.3211 -0.3047 -0.3955
 5562SOL    HW117067   3.217   3.314   1.316  2.6857 -0.0076 -0.7013
 5562SOL    HW217068   3.184   3.226   1.197  1.2769 -0.6670  0.1661
 5563SOL     OW17069   6.085   0.432   5.823 -0.1597  0.5256 -0.2618
 5563SOL    HW117070   6.074   0.413   5.916 -0.2990  0.1880 -0.3481
 5563SOL    HW217071   6.074   0.527   5.817 -2.3459  0.2947 -0.2412
 5564SOL     OW17072   5.697   3.253   1.899  0.2129 -0.0737 -0.3703
 5564SOL    HW117073   5.690   3.256   1.804  1.1237 -2.1631 -0.5462
 5564SOL    HW217074   5.611   3.222   1.928  0.2974 -0.5445 -0.6123
 5565SOL     OW17075   1.263   4.936   5.824 -0.3230 -0.1625 -0.0744
 5565SOL    HW117076   1.226   5.021   5.800 -1.2517 -0.0069  1.7985
 5565SOL    HW217077   1.313   4.954   5.904 -1.7827 -1.6541  1.2052
 5566SOL     OW17078   2.089   3.932   1.722 -0.8657  0.5091 -0.0435
 5566SOL    HW117079   2.045   3.997   1.668 -1.5346 -0.3013 -0.4746
 5566SOL    HW217080   2.128   3.871   1.660 -0.2363  0.4916  0.3603
 5567SOL     OW17081   2.655   3.382   5.804 -0.2909  0.2522  0.8170
 5567SOL    HW117082   2.746   3.361   5.826 -0.0022  0.9738  0.2911
 5567SOL    HW217083   2.607   3.361   5.884  0.1830 -1.1462  0.7577
 5568SOL     OW17084   5.500   3.617   5.274  0.1795  0.0401 -0.2646
 5568SOL    HW117085   5.499   3.683   5.204 -1.3414 -2.0025 -2.2326
 5568SOL    HW217086   5.575   3.561   5.253  0.1855 -0.1104  0.1667
 5569SOL     OW17087   1.878   1.770   4.957 -0.5996  0.7125  0.6038
 5569SOL    HW117088   1.810   1.819   4.912  0.0136  1.9914  1.0533
 5569SOL    HW217089   1.838   1.742   5.039 -1.5682 -1.2224 -0.4944
 5570SOL     OW17090   2.739   3.539   0.870 -0.5047  0.3500  0.6088
 5570SOL    HW117091   2.742   3.483   0.792 -1.1614  0.5697  0.4222
 5570SOL    HW217092   2.742   3.628   0.836  1.3971  0.4433  0.9466
 5571SOL     OW17093   4.247   5.590   5.292  0.3480  0.0452  0.2655
 5571SOL    HW117094   4.198   5.512   5.266  0.9450 -0.2765  0.0961
 5571SOL    HW217095   4.330   5.556   5.327  0.9145  0.6357 -0.4955
 5572SOL     OW17096   1.169   3.523   0.970  0.1106 -0.1986 -0.3689
 5572SOL    HW117097   1.114   3.467   1.024  0.3330  0.3371  0.4328
 5572SOL    HW217098   1.129   3.610   0.977  3.6877  1.2998  4.1942
 5573SOL     OW17099   5.524   2.398   0.694 -0.3571 -0.3171 -0.3249
 5573SOL    HW117100   5.477   2.337   0.749  0.3012  0.7151  1.4261
 5573SOL    HW217101   5.505   2.484   0.731  0.2755  0.3905 -1.5765
 5574SOL     OW17102   1.468   1.060   4.825 -0.8245  0.1516  0.1092
 5574SOL    HW117103   1.472   1.138   4.880 -0.0220  1.6314 -1.9373
 5574SOL    HW217104   1.465   1.095   4.735 -2.5057 -2.1519 -0.7673
 5575SOL     OW17105   5.001   2.693   5.109  0.6564 -0.3236  1.4704
 5575SOL    HW117106   4.958   2.753   5.169 -2.7268 -0.3556 -0.7939
 5575SOL    HW217107   4.973   2.606   5.137  0.7198 -0.4732  1.0753
 5576SOL     OW17108   2.516   0.522   3.201 -0.2422 -0.3025 -0.1673
 5576SOL    HW117109   2.557   0.597   3.242 -0.3713 -1.0320  1.3357
 5576SOL    HW217110   2.551   0.446   3.248 -0.1889 -1.1779 -1.5796
 5577SOL     OW17111   1.381   4.297   0.764 -0.1083  0.2018  0.2821
 5577SOL    HW117112   1.326   4.219   0.763  0.4754 -0.2166  0.4238
 5577SOL    HW217113   1.345   4.351   0.835  1.1817 -1.1854  2.0313
 5578SOL     OW17114   2.905   3.089   3.898 -0.2469  0.6621  0.0009
 5578SOL    HW117115   2.983   3.078   3.953 -0.5536  0.7212  0.4487
 5578SOL    HW217116   2.935   3.143   3.825 -0.2093  1.9063  0.9165
 5579SOL     OW17117   4.754   2.218   2.128 -0.4913 -0.1594  0.3046
 5579SOL    HW117118   4.731   2.200   2.036  1.9956 -0.7243 -0.2269
 5579SOL    HW217119   4.734   2.311   2.139  0.9110  0.3752 -1.3690
 5580SOL     OW17120   4.137   0.811   4.687 -0.1780  0.1243  0.8438
 5580SOL    HW117121   4.169   0.859   4.764  0.3130  0.0891  0.6589
 5580SOL    HW217122   4.042   0.819   4.693 -0.1374  0.2639  1.3681
 5581SOL     OW17123   5.418   5.301   2.265  0.2685 -0.6421  0.0375
 5581SOL    HW117124   5.395   5.327   2.354 -0.1504  0.9069 -0.5074
 5581SOL    HW217125   5.333   5.283   2.223  0.3019  0.9773 -0.7440
 5582SOL     OW17126   5.341   3.296   0.843  0.4516 -0.0550  0.3385
 5582SOL    HW117127   5.291   3.278   0.923  2.7081 -0.9235  1.6047
 5582SOL    HW217128   5.317   3.386   0.820 -2.1963 -0.6654  0.4744
 5583SOL     OW17129   5.342   1.028   1.972 -0.0107  0.1286 -0.2122
 5583SOL    HW117130   5.384   1.112   1.992 -0.7707  1.1135 -2.4640
 5583SOL    HW217131   5.282   1.013   2.044  2.8556 -0.4044  2.1405
 5584SOL     OW17132   1.647   1.796   3.572  0.0877  0.5312  0.5449
 5584SOL    HW117133   1.604   1.775   3.655  1.7520  0.3724  1.3784
 5584SOL    HW217134   1.634   1.890   3.562 -1.4490  0.3052  0.1997
 5585SOL     OW17135   4.562   4.487   3.923  0.2051  0.3968 -0.1781
 5585SOL    HW117136   4.639   4.543   3.922  1.6193 -1.5063 -0.0803
 5585SOL    HW217137   4.572   4.430   3.847 -0.6994 -0.3837  0.2670
 5586SOL     OW17138   4.210   4.110   3.751 -0.0990  0.5794  0.4653
 5586SOL    HW117139   4.117   4.090   3.747  0.0683 -0.1765  0.2692
 5586SOL    HW217140   4.237   4.080   3.838  0.3516 -0.9718 -0.1782
 5587SOL     OW17141   4.789   3.786   4.111  0.5644  0.3171  0.3707
 5587SOL    HW117142   4.726   3.855   4.091 -0.3134 -0.1549  1.4568
 5587SOL    HW217143   4.850   3.826   4.173  0.5902  0.3823  0.3037
 5588SOL     OW17144   4.754   4.850   4.368 -0.3704  0.3385  0.7080
 5588SOL    HW117145   4.802   4.875   4.289 -1.2622 -0.8813 -0.2321
 5588SOL    HW217146   4.820   4.856   4.438 -0.1086  3.5645  0.2954
 5589SOL     OW17147   0.207   0.521   6.028 -0.0431  0.2196 -0.2358
 5589SOL    HW117148   0.133   0.510   5.969 -0.7272  0.1447  0.6404
 5589SOL    HW217149   0.277   0.469   5.988  0.2789  2.1489 -2.3220
 5590SOL     OW17150   5.336   3.432   2.662 -0.3291  0.1934 -0.0263
 5590SOL    HW117151   5.271   3.417   2.594 -1.5556 -0.4638  1.2872
 5590SOL    HW217152   5.351   3.527   2.659  0.6104  0.0273 -2.0652
 5591SOL     OW17153   2.778   3.788   0.798 -0.1599 -0.3498 -0.4464
 5591SOL    HW117154   2.799   3.834   0.717 -0.5088 -1.2709 -1.0650
 5591SOL    HW217155   2.769   3.858   0.863  1.9403  0.2737 -0.7760
 5592SOL     OW17156   3.166   5.275   4.768  0.2304 -0.2759  0.0116
 5592SOL    HW117157   3.105   5.342   4.739  0.7573  0.4150  0.4999
 5592SOL    HW217158   3.194   5.303   4.855 -0.2496 -1.6035  0.5995
 5593SOL     OW17159   5.514   4.330   2.843 -0.1200  0.4692 -0.5102
 5593SOL    HW117160   5.529   4.351   2.751  0.6041  0.5230 -0.3864
 5593SOL    HW217161   5.482   4.412   2.881 -4.3635 -0.5681 -1.5288
 5594SOL     OW17162   4.485   3.471   1.589  1.0207  0.2011  0.3886
 5594SOL    HW117163   4.490   3.377   1.571 -1.0417  0.3129 -0.9349
 5594SOL    HW217164   4.439   3.477   1.673  1.2763  0.0254  0.5415
 5595SOL     OW17165   5.753   3.804   4.479  0.3155 -0.1970  0.2482
 5595SOL    HW117166   5.759   3.733   4.542 -0.0401 -0.8303 -0.4259
 5595SOL    HW217167   5.748   3.761   4.394  1.8300  0.6596 -0.2978
 5596SOL     OW17168   6.313   1.514   0.667  0.0503 -0.0408 -0.4128
 5596SOL    HW117169   6.294   1.589   0.610 -2.3120 -0.5449 -0.3483
 5596SOL    HW217170   6.280   1.438   0.618  0.0632 -0.7420  0.6506
 5597SOL     OW17171   4.813   5.437   4.756 -0.0733 -0.1355  0.3722
 5597SOL    HW117172   4.737   5.443   4.814 -0.9244 -3.2907 -0.3179
 5597SOL    HW217173   4.776   5.427   4.668  1.1427 -1.0412 -0.0469
 5598SOL     OW17174   1.312   1.714   3.071 -0.0169 -0.3308 -0.2308
 5598SOL    HW117175   1.281   1.798   3.039 -0.4633 -0.6881 -0.7436
 5598SOL    HW217176   1.340   1.667   2.993  1.2401 -0.2599  0.1579
 5599SOL     OW17177   2.375   4.706   5.542  0.1856  0.8263 -0.5243
 5599SOL    HW117178   2.425   4.651   5.602 -0.0953  1.2446  0.0931
 5599SOL    HW217179   2.286   4.706   5.577 -0.3223 -0.1087 -1.7511
 5600SOL     OW17180   3.178   4.269   2.268  0.3059  0.4044 -0.3192
 5600SOL    HW117181   3.128   4.269   2.186  0.9319 -0.1578 -0.7097
 5600SOL    HW217182   3.187   4.361   2.291  0.1162  0.5633 -0.8838
 5601SOL     OW17183   3.020   2.232   2.681 -0.3408 -0.3400 -0.0163
 5601SOL    HW117184   2.964   2.186   2.619  1.0730 -0.8172 -0.9637
 5601SOL    HW217185   2.960   2.290   2.729 -1.4283  0.1967 -1.9561
 5602SOL     OW17186   2.740   2.217   1.690 -0.4917 -0.0063 -0.0680
 5602SOL    HW117187   2.694   2.243   1.770 -2.2953  0.2588 -1.1654
 5602SOL    HW217188   2.699   2.135   1.664  0.6972 -0.5568 -0.2476
 5603SOL     OW17189   5.323   3.461   1.981  0.2434  0.3598  0.0261
 5603SOL    HW117190   5.276   3.544   1.974 -0.4509 -0.0550 -0.2322
 5603SOL    HW217191   5.409   3.486   2.015 -0.3207  1.0673  0.9701
 5604SOL     OW17192   4.720   5.269   2.397  0.0150  0.3991  0.2537
 5604SOL    HW117193   4.761   5.243   2.480  0.1248 -0.2690 -0.0041
 5604SOL    HW217194   4.743   5.361   2.386 -0.8543  0.7772  1.4769
 5605SOL     OW17195   0.806   0.950   0.368 -0.4539 -0.0495 -0.2162
 5605SOL    HW117196   0.736   0.918   0.311 -1.8123  1.7439  0.3943
 5605SOL    HW217197   0.760   0.979   0.447  0.9690  1.2491  0.1451
 5606SOL     OW17198   0.537   5.623   6.175  0.0405 -0.4675 -0.6248
 5606SOL    HW117199   0.444   5.602   6.176 -0.2382  0.7410 -0.9527
 5606SOL    HW217200   0.572   5.582   6.255 -0.7339 -1.0397 -0.5781
 5607SOL     OW17201   0.244   0.328   3.689 -0.0362  0.0364 -0.1578
 5607SOL    HW117202   0.230   0.313   3.782 -1.3756 -0.5199 -0.4422
 5607SOL    HW217203   0.336   0.308   3.675 -0.5856 -3.0955  0.4255
 5608SOL     OW17204   0.792   3.538   2.710 -0.2955 -0.1441  0.1856
 5608SOL    HW117205   0.882   3.570   2.720 -0.9121  1.8372 -0.2520
 5608SOL    HW217206   0.795   3.447   2.736  1.7641  0.0282  0.5971
 5609SOL     OW17207   2.800   2.889   2.648  0.1477 -0.5952 -0.2454
 5609SOL    HW117208   2.758   2.811   2.613 -0.2717 -0.3260 -0.3556
 5609SOL    HW217209   2.843   2.860   2.728  1.6399 -1.3453 -1.3049
 5610SOL     OW17210   4.865   1.333   5.529 -0.5847 -0.2276 -0.5627
 5610SOL    HW117211   4.803   1.263   5.548 -2.0169  1.3653  0.7681
 5610SOL    HW217212   4.867   1.386   5.609  0.4382  1.2773 -1.5493
 5611SOL     OW17213   1.296   3.895   2.223  0.0001  0.5895 -0.2315
 5611SOL    HW117214   1.387   3.886   2.194  0.2032 -1.0386  0.8557
 5611SOL    HW217215   1.280   3.989   2.222  1.5088  0.8515 -1.0268
 5612SOL     OW17216   0.702   5.861   2.984  0.0827 -0.9257  0.6729
 5612SOL    HW117217   0.650   5.924   2.935 -1.1593 -1.8958  0.7114
 5612SOL    HW217218   0.669   5.867   3.074 -1.6067 -3.1859  0.2493
 5613SOL     OW17219   5.518   3.951   3.942 -0.8494  0.4341 -0.1402
 5613SOL    HW117220   5.530   3.903   4.024  1.9741  0.4691 -0.4829
 5613SOL    HW217221   5.517   3.883   3.875 -1.5354  0.5358 -0.2411
 5614SOL     OW17222   2.857   1.914   5.799 -0.1318  0.4663  0.2430
 5614SOL    HW117223   2.836   1.934   5.890 -1.4250  1.7312 -0.2944
 5614SOL    HW217224   2.886   1.998   5.763 -2.3831  0.6723 -1.2096
 5615SOL     OW17225   3.224   2.939   1.826 -0.3130 -0.1991  0.3358
 5615SOL    HW117226   3.220   2.902   1.914 -0.7299 -0.3342  0.2637
 5615SOL    HW217227   3.146   2.904   1.782 -0.8926  1.0167  0.3718
 5616SOL     OW17228   2.629   2.114   4.430 -0.1855 -0.6127  0.3606
 5616SOL    HW117229   2.668   2.157   4.354 -1.2523  1.7148  1.0675
 5616SOL    HW217230   2.561   2.058   4.394 -0.0709 -0.2232 -0.4770
 5617SOL     OW17231   2.586   4.844   3.805 -0.1603 -0.4146  0.6662
 5617SOL    HW117232   2.504   4.893   3.814 -0.3560 -0.8639  1.3865
 5617SOL    HW217233   2.652   4.901   3.846 -0.3519 -0.6578  1.3192
 5618SOL     OW17234   3.079   5.210   5.631  0.0901 -0.0055  0.9718
 5618SOL    HW117235   3.099   5.292   5.585  0.3239 -0.3191  0.5101
 5618SOL    HW217236   3.163   5.183   5.668  0.1506 -0.3862  0.5561
 5619SOL     OW17237   5.790   3.462   2.511  0.0468 -0.1446  0.6901
 5619SOL    HW117238   5.735   3.461   2.589  0.1553  2.1444  0.8338
 5619SOL    HW217239   5.732   3.432   2.441 -1.0138  0.8940  1.0920
 5620SOL     OW17240   0.010   2.536   3.415 -0.1031  0.2922 -0.7189
 5620SOL    HW117241  -0.021   2.512   3.328 -1.2057 -0.0912 -0.2347
 5620SOL    HW217242  -0.021   2.465   3.472  2.0580 -0.3413 -0.2731
 5621SOL     OW17243   4.824   1.000   4.585  0.3986  0.0451  0.3639
 5621SOL    HW117244   4.784   1.082   4.556 -0.7303 -0.0367  1.6668
 5621SOL    HW217245   4.917   1.010   4.564 -0.1042  0.6938 -1.6382
 5622SOL     OW17246   2.678   4.990   4.388 -0.0719  0.0939 -0.5547
 5622SOL    HW117247   2.757   4.952   4.351 -0.1832 -0.9645  0.2852
 5622SOL    HW217248   2.616   4.917   4.393 -1.4099  1.0919 -2.0313
 5623SOL     OW17249   4.868   5.980   4.865  0.0879 -0.2237 -0.0174
 5623SOL    HW117250   4.929   5.940   4.927  0.2726  0.1267  0.0309
 5623SOL    HW217251   4.876   6.074   4.881 -0.3354 -0.1632 -0.1312
 5624SOL     OW17252   6.202   5.470   2.301  0.2516  0.3249 -0.3503
 5624SOL    HW117253   6.153   5.399   2.342  1.9698 -0.3395  0.6293
 5624SOL    HW217254   6.285   5.471   2.349  0.0017  3.4338  0.0932
 5625SOL     OW17255   1.074   5.790   5.238 -0.0129 -0.4021  0.4981
 5625SOL    HW117256   1.056   5.815   5.329 -0.4714 -0.5075  0.4421
 5625SOL    HW217257   1.029   5.707   5.227 -3.4865  1.5481 -0.9965
 5626SOL     OW17258   0.613   3.929   0.031 -0.0345  0.1206 -0.3121
 5626SOL    HW117259   0.682   3.875  -0.008  0.6865  0.9557 -0.2077
 5626SOL    HW217260   0.532   3.898  -0.010  0.2962 -1.4453  0.1910
 5627SOL     OW17261   0.038   0.381   3.228 -0.0126  0.3222 -0.6853
 5627SOL    HW117262   0.071   0.364   3.316 -1.4719  1.6869  0.1583
 5627SOL    HW217263   0.113   0.415   3.180  0.8061 -0.4725  0.0220
 5628SOL     OW17264   5.088   0.776   0.579  0.6433  0.3710 -0.0524
 5628SOL    HW117265   5.117   0.740   0.663  1.0147  2.6240  0.8427
 5628SOL    HW217266   5.069   0.868   0.599 -1.6823  0.3197 -1.8942
 5629SOL     OW17267   3.345   2.198   2.868 -0.1449  0.2976  0.0880
 5629SOL    HW117268   3.413   2.215   2.802 -0.8160  1.4394 -0.3160
 5629SOL    HW217269   3.286   2.136   2.826  1.6857 -2.2256  1.1448
 5630SOL     OW17270   1.560   4.639   3.516  0.6341  0.3037  0.1112
 5630SOL    HW117271   1.526   4.565   3.565  0.4279 -0.9542 -1.9047
 5630SOL    HW217272   1.653   4.643   3.539  0.6302 -0.5438  0.2617
 5631SOL     OW17273   6.362   3.079   3.404  0.0065  0.2967  0.3285
 5631SOL    HW117274   6.366   2.992   3.364  1.1081 -0.0787  1.2393
 5631SOL    HW217275   6.413   3.134   3.344 -2.5512  0.8048 -1.4358
 5632SOL     OW17276   3.924   2.599   1.920 -0.0843  0.8111 -0.2321
 5632SOL    HW117277   3.835   2.590   1.953 -0.3688  1.1009 -0.9110
 5632SOL    HW217278   3.960   2.511   1.922 -0.3553  0.7090  0.1345
 5633SOL     OW17279   6.266   0.947   1.336  0.2503  0.0565 -0.1906
 5633SOL    HW117280   6.224   0.869   1.372 -0.1035 -0.2988 -1.3549
 5633SOL    HW217281   6.214   0.969   1.258  1.0765  0.7435 -0.5608
 5634SOL     OW17282   4.122   3.222   3.758 -0.6285 -0.3770  0.2705
 5634SOL    HW117283   4.164   3.218   3.672 -1.5220 -2.4886 -0.1017
 5634SOL    HW217284   4.039   3.175   3.746 -1.3586  0.4394  1.9625
 5635SOL     OW17285   5.391   2.947   6.003 -0.2675 -0.4525  0.1738
 5635SOL    HW117286   5.359   3.026   6.048 -0.3579 -0.0893 -0.5141
 5635SOL    HW217287   5.486   2.957   6.001 -0.1835 -0.9904  1.2299
 5636SOL     OW17288   3.382   6.276   1.131 -0.0202  0.1650  0.0103
 5636SOL    HW117289   3.379   6.370   1.114  0.4308  0.1352 -0.2371
 5636SOL    HW217290   3.471   6.260   1.163 -0.1919 -0.1270  0.3457
 5637SOL     OW17291   5.887   1.268   1.670  0.0562 -0.1366  0.4278
 5637SOL    HW117292   5.956   1.204   1.651 -0.3837 -0.8168  1.0913
 5637SOL    HW217293   5.836   1.274   1.589  2.3441  2.2054 -0.8955
 5638SOL     OW17294   2.192   3.667   1.144  0.0589 -0.3439  0.4531
 5638SOL    HW117295   2.169   3.596   1.203  1.2083 -1.2763 -0.2119
 5638SOL    HW217296   2.140   3.742   1.175 -1.1813 -1.4741  1.1157
 5639SOL     OW17297   5.869   6.017   1.930  0.0127  0.6626  0.2238
 5639SOL    HW117298   5.914   5.932   1.928  0.7086  1.0188  0.5489
 5639SOL    HW217299   5.796   6.006   1.869 -0.5868 -0.5494  1.1222
 5640SOL     OW17300   4.611   0.385   4.502 -0.2500 -0.0593 -1.0246
 5640SOL    HW117301   4.680   0.442   4.468  1.4709 -1.5185 -0.0740
 5640SOL    HW217302   4.604   0.315   4.437 -0.2228 -0.3583 -0.7106
 5641SOL     OW17303   5.085   2.583   1.333 -0.2162  0.1443  0.2125
 5641SOL    HW117304   5.013   2.617   1.280  0.1098  1.1388  0.4060
 5641SOL    HW217305   5.047   2.570   1.420 -1.1063 -2.7265 -0.5321
 5642SOL     OW17306   3.510   4.483   6.168  0.0745  0.3070  0.2358
 5642SOL    HW117307   3.457   4.515   6.095 -2.0667  0.4303  1.7840
 5642SOL    HW217308   3.445   4.458   6.234  1.9514 -0.5531  1.7760
 5643SOL     OW17309   2.808   2.681   4.683  0.5106  0.3295  0.1824
 5643SOL    HW117310   2.806   2.776   4.690  2.6307  0.2969  1.8960
 5643SOL    HW217311   2.760   2.650   4.760 -1.7446 -0.0081 -1.3262
 5644SOL     OW17312   5.678   2.409   5.593  0.0866 -0.0763  0.6042
 5644SOL    HW117313   5.612   2.463   5.637 -1.5109  1.0667 -3.0568
 5644SOL    HW217314   5.639   2.322   5.588 -0.4384  0.1899 -0.0085
 5645SOL     OW17315   5.833   5.199   0.311 -0.7309 -0.2127  0.5019
 5645SOL    HW117316   5.761   5.259   0.326  0.1440  0.2080  3.2431
 5645SOL    HW217317   5.890   5.244   0.248 -1.5538  0.5212  0.2806
 5646SOL     OW17318   2.118   3.292   6.233 -0.1940 -0.7026  0.0324
 5646SOL    HW117319   2.051   3.226   6.248 -0.2059 -1.5769 -3.3275
 5646SOL    HW217320   2.182   3.249   6.176  0.7331  1.5850 -0.7318
 5647SOL     OW17321   3.599   4.991   0.756 -0.5074  0.2225  0.2989
 5647SOL    HW117322   3.571   5.018   0.668  2.7815 -1.3463 -1.3227
 5647SOL    HW217323   3.549   4.911   0.773 -0.4955  0.0257 -0.5452
 5648SOL     OW17324   2.609   5.597   5.262 -0.2038  0.4937  0.0859
 5648SOL    HW117325   2.676   5.562   5.320 -1.0661 -0.8600  0.2874
 5648SOL    HW217326   2.604   5.690   5.283  1.1949  0.4819  0.4705
 5649SOL     OW17327   2.559   1.093   1.034  0.0128 -0.0318 -0.3362
 5649SOL    HW117328   2.525   1.162   1.091  1.7670 -0.1430  0.8991
 5649SOL    HW217329   2.490   1.079   0.970 -1.8508  0.4039  1.5082
 5650SOL     OW17330   3.781   2.651   4.211  0.2533 -0.1972  0.2941
 5650SOL    HW117331   3.748   2.737   4.187  1.2001  0.0997  0.0343
 5650SOL    HW217332   3.876   2.662   4.215  0.5137 -1.6202 -1.3328
 5651SOL     OW17333   1.542   5.898   4.256  0.3855  0.2890 -0.2407
 5651SOL    HW117334   1.554   5.989   4.283 -0.2323  0.2529  0.1602
 5651SOL    HW217335   1.480   5.862   4.319 -1.0990  0.2011 -1.7041
 5652SOL     OW17336   3.308   1.273   2.529 -0.2607 -0.7535  0.4441
 5652SOL    HW117337   3.336   1.285   2.438  0.5783  0.9560  0.9094
 5652SOL    HW217338   3.353   1.194   2.558  0.2440 -0.7501 -0.3189
 5653SOL     OW17339   2.654   5.505   2.405 -0.5683  0.2564 -0.1224
 5653SOL    HW117340   2.559   5.499   2.390 -0.6317 -1.5120  0.9021
 5653SOL    HW217341   2.666   5.472   2.494  1.3343 -2.2259 -1.2667
 5654SOL     OW17342   1.289   6.234   1.634 -0.2756 -0.1206  0.3161
 5654SOL    HW117343   1.363   6.213   1.691  0.7376 -0.2282 -1.0170
 5654SOL    HW217344   1.325   6.297   1.571 -1.3201 -0.1711 -0.3334
 5655SOL     OW17345   0.695   2.884   4.637 -0.5972 -0.5994 -0.4636
 5655SOL    HW117346   0.635   2.862   4.565  0.8366  0.3741 -1.9882
 5655SOL    HW217347   0.766   2.932   4.595  1.0295 -1.3257  1.4065
 5656SOL     OW17348   3.254   1.530   5.862  0.7547 -0.3510  0.2816
 5656SOL    HW117349   3.190   1.585   5.817  1.6450  0.3155 -0.1793
 5656SOL    HW217350   3.277   1.580   5.940 -0.2602 -1.1888  1.1529
 5657SOL     OW17351   2.818   5.741   2.984 -0.0776 -0.1975 -0.4952
 5657SOL    HW117352   2.902   5.750   3.031 -0.1921 -0.1057 -0.3079
 5657SOL    HW217353   2.752   5.764   3.049 -0.2138  0.3079 -0.8091
 5658SOL     OW17354   4.291   2.173   0.349  0.3962 -0.8029 -0.2145
 5658SOL    HW117355   4.264   2.160   0.258 -0.0887  1.8077 -0.4709
 5658SOL    HW217356   4.212   2.202   0.394  1.3402  0.9771  0.3421
 5659SOL     OW17357   3.135   0.387   5.114  0.0992 -0.5334  0.1312
 5659SOL    HW117358   3.094   0.419   5.195 -0.6196 -2.3581  0.5182
 5659SOL    HW217359   3.181   0.463   5.079 -0.2839  0.5125  1.8149
 5660SOL     OW17360   1.199   0.113   4.123  0.0737 -0.7229 -0.1061
 5660SOL    HW117361   1.247   0.173   4.180  0.5766 -1.2476  0.0172
 5660SOL    HW217362   1.254   0.105   4.045 -1.5781  1.6831 -1.6393
 5661SOL     OW17363   4.382   1.957   4.478 -0.6622 -0.1275  0.1516
 5661SOL    HW117364   4.418   2.046   4.479  1.3685 -0.9196 -1.0237
 5661SOL    HW217365   4.459   1.900   4.479 -1.9531 -1.9002  1.5567
 5662SOL     OW17366   4.344   5.201   5.078 -0.0612  0.5105  0.3526
 5662SOL    HW117367   4.289   5.139   5.125 -1.0246  0.9821 -0.1306
 5662SOL    HW217368   4.422   5.150   5.054  0.3442  0.2000  2.2130
 5663SOL     OW17369   0.888   5.473   6.259 -0.0513 -0.7486  0.1075
 5663SOL    HW117370   0.870   5.558   6.219 -3.3324 -0.8625  1.1462
 5663SOL    HW217371   0.983   5.470   6.268  0.1859  2.4485 -0.6952
 5664SOL     OW17372   2.348   5.758   0.316  0.3836 -0.1189  0.1366
 5664SOL    HW117373   2.332   5.753   0.410 -1.2836  0.0667 -0.1191
 5664SOL    HW217374   2.264   5.787   0.279  0.5828 -1.6439 -1.5488
 5665SOL     OW17375   3.215   6.018   5.822  0.2191 -0.6352  0.2399
 5665SOL    HW117376   3.138   6.000   5.768  0.9514 -2.1059 -0.3145
 5665SOL    HW217377   3.233   5.936   5.868  1.1928 -0.1654  0.7268
 5666SOL     OW17378   4.316   4.598   6.354  0.3061 -0.5876  0.1993
 5666SOL    HW117379   4.354   4.675   6.396 -2.3029 -0.5798  2.7064
 5666SOL    HW217380   4.368   4.525   6.387 -0.5125 -0.3862  1.9710
 5667SOL     OW17381   1.579   6.352   3.174  0.0016  0.8858  0.1431
 5667SOL    HW117382   1.499   6.336   3.223 -0.4589 -0.8076 -1.1011
 5667SOL    HW217383   1.618   6.430   3.215 -1.6563  1.0181  1.5068
 5668SOL     OW17384   3.572   3.745   4.386 -0.4000 -0.1559 -0.1233
 5668SOL    HW117385   3.661   3.720   4.362 -1.0553 -1.5000 -1.2340
 5668SOL    HW217386   3.565   3.836   4.357 -0.4645 -1.0882 -3.1850
 5669SOL     OW17387   2.038   5.108   3.327 -0.1129  0.1821  0.1690
 5669SOL    HW117388   2.020   5.066   3.243  1.0167 -0.5084  0.2639
 5669SOL    HW217389   2.128   5.140   3.319 -0.4474  1.2760  0.6444
 5670SOL     OW17390   3.662   0.193   5.174 -0.4590  0.1727 -0.4059
 5670SOL    HW117391   3.655   0.107   5.214  0.4087  0.3706  0.1793
 5670SOL    HW217392   3.756   0.210   5.170 -0.6573  1.4945  0.3346
 5671SOL     OW17393   4.891   3.389   0.288  0.1550 -0.2010 -0.0914
 5671SOL    HW117394   4.945   3.337   0.347 -0.4880 -0.7211  0.0454
 5671SOL    HW217395   4.825   3.328   0.256 -0.7720  0.6034  0.2801
 5672SOL     OW17396   0.551   3.914   1.910  0.1086 -0.0789 -0.3162
 5672SOL    HW117397   0.476   3.962   1.944  2.1116  2.3572  0.7940
 5672SOL    HW217398   0.560   3.839   1.968 -1.5624 -0.5138 -0.5902
 5673SOL     OW17399   6.004   5.140   4.532 -0.8529 -0.8200 -0.3292
 5673SOL    HW117400   5.921   5.099   4.507 -0.8117 -1.3440  0.3714
 5673SOL    HW217401   6.060   5.129   4.456 -1.5005 -0.2526 -0.8987
 5674SOL     OW17402   2.093   5.577   5.243  0.7012  0.2095 -0.6646
 5674SOL    HW117403   2.137   5.503   5.285 -2.1553 -1.0700  0.2155
 5674SOL    HW217404   2.084   5.550   5.152 -0.2454 -0.5122 -0.3688
 5675SOL     OW17405   2.619   1.718   1.907 -0.1672 -0.2968  0.2918
 5675SOL    HW117406   2.559   1.785   1.941  0.0871 -0.1626  0.4774
 5675SOL    HW217407   2.675   1.766   1.846  0.4843 -0.1879  0.9616
 5676SOL     OW17408   3.820   0.306   0.974  0.0209 -0.2252  0.3772
 5676SOL    HW117409   3.803   0.282   1.065 -1.6225 -0.7199 -0.0531
 5676SOL    HW217410   3.889   0.245   0.946  1.1240  0.4807  1.5350
 5677SOL     OW17411   2.482   1.598   4.912 -0.1646 -0.0653 -0.4129
 5677SOL    HW117412   2.488   1.630   4.822  1.6215  0.5566 -0.0780
 5677SOL    HW217413   2.499   1.675   4.967 -0.2394 -0.6484  0.4464
 5678SOL     OW17414   5.872   2.494   4.023 -0.9290 -0.3502  0.2421
 5678SOL    HW117415   5.829   2.504   4.108 -1.7605 -1.0932 -0.0770
 5678SOL    HW217416   5.950   2.442   4.042 -0.0755  1.1063  0.8436
 5679SOL     OW17417   2.808   6.099   2.913 -0.0596  0.3174  0.1955
 5679SOL    HW117418   2.853   6.074   2.993 -0.5769  0.1228  0.4264
 5679SOL    HW217419   2.868   6.075   2.843  0.4365  0.5836  0.5274
 5680SOL     OW17420   3.429   3.630   0.880 -0.1309  0.2465 -0.0434
 5680SOL    HW117421   3.347   3.678   0.875 -0.4629 -0.2556  0.4982
 5680SOL    HW217422   3.446   3.621   0.973 -0.6046 -1.5706 -0.1082
 5681SOL     OW17423   3.036   3.323   4.671 -0.4165 -0.1203 -0.1326
 5681SOL    HW117424   3.077   3.238   4.689 -1.2337 -0.0699  2.1388
 5681SOL    HW217425   2.954   3.301   4.626 -0.3925 -0.5041  0.0059
 5682SOL     OW17426   0.759   3.515   6.286 -0.0947  0.0224 -0.4824
 5682SOL    HW117427   0.745   3.517   6.192  0.0638 -1.1627 -0.5338
 5682SOL    HW217428   0.768   3.422   6.308 -0.7764  0.2465  0.7975
 5683SOL     OW17429   2.539   5.841   5.426 -0.6181 -0.6043 -0.3359
 5683SOL    HW117430   2.580   5.876   5.506 -1.0215 -0.5043 -0.1733
 5683SOL    HW217431   2.460   5.797   5.457  0.7489 -3.1968 -0.3215
 5684SOL     OW17432   5.626   4.637   4.115 -0.0580 -0.1949 -0.2765
 5684SOL    HW117433   5.619   4.557   4.062 -3.1766  0.1589 -0.4732
 5684SOL    HW217434   5.537   4.655   4.143  0.4299  3.8718 -1.1463
 5685SOL     OW17435   0.810   0.772   2.776 -0.4539  0.0812  0.1234
 5685SOL    HW117436   0.869   0.768   2.701 -1.6156 -0.4894 -0.7900
 5685SOL    HW217437   0.798   0.866   2.793 -0.0617  0.2096 -0.3150
 5686SOL     OW17438   0.042   0.235   0.099  0.1474  0.2341 -0.2175
 5686SOL    HW117439   0.054   0.228   0.194 -1.0531 -2.0839 -0.2120
 5686SOL    HW217440  -0.052   0.226   0.086  0.3138  0.5377 -1.6417
 5687SOL     OW17441   5.793   2.528   4.298  0.1290  0.2970 -0.1050
 5687SOL    HW117442   5.794   2.621   4.320 -0.1049  0.7957 -2.1334
 5687SOL    HW217443   5.701   2.504   4.297  0.1606  0.1761 -0.1449
 5688SOL     OW17444   3.304   3.719   2.954 -0.0148  0.2307  0.3866
 5688SOL    HW117445   3.295   3.728   3.049  1.9744 -0.7932  0.7039
 5688SOL    HW217446   3.399   3.726   2.939 -0.2813 -0.0955 -1.4754
 5689SOL     OW17447   4.444   3.760   3.502 -0.4533 -0.6803 -0.6490
 5689SOL    HW117448   4.455   3.720   3.416  1.0571  0.6209 -1.0970
 5689SOL    HW217449   4.420   3.851   3.484 -0.7503 -0.5565  0.3036
 5690SOL     OW17450   5.553   4.139   5.130 -0.1539  0.1966  0.2261
 5690SOL    HW117451   5.597   4.059   5.102 -0.9826 -0.2461  0.1668
 5690SOL    HW217452   5.484   4.108   5.189  0.0901  0.9375  0.9012
 5691SOL     OW17453   5.503   3.869   1.773 -0.0684 -0.2466 -0.1507
 5691SOL    HW117454   5.510   3.776   1.795 -0.6323 -0.7745 -2.1402
 5691SOL    HW217455   5.409   3.886   1.771  0.0351  0.3908  0.2882
 5692SOL     OW17456   1.065   3.651   3.283  0.4370  0.4414 -0.2008
 5692SOL    HW117457   1.007   3.612   3.217  0.8621  0.0059 -0.3217
 5692SOL    HW217458   1.008   3.670   3.357  0.1126  0.1368 -0.3697
 5693SOL     OW17459   1.489   4.697   0.845  0.2399 -0.1789 -0.4798
 5693SOL    HW117460   1.548   4.747   0.901 -0.1517  0.5989 -0.7419
 5693SOL    HW217461   1.461   4.623   0.898 -1.1341  1.2451  0.8278
 5694SOL     OW17462   3.104   1.364   6.044 -0.1976  0.0752  0.4048
 5694SOL    HW117463   3.161   1.409   5.982 -2.3739  0.3278 -1.4869
 5694SOL    HW217464   3.082   1.430   6.109 -0.2834  0.6805 -0.2320
 5695SOL     OW17465   1.344   3.969   0.135 -0.5124  0.0293  0.1614
 5695SOL    HW117466   1.439   3.970   0.124 -0.2833 -0.6342  1.8681
 5695SOL    HW217467   1.316   3.886   0.097 -0.6274  0.9586 -1.8322
 5696SOL     OW17468   4.837   4.795   5.011  0.0605 -0.3604 -0.4366
 5696SOL    HW117469   4.809   4.753   4.930 -0.3246  0.9225 -0.9715
 5696SOL    HW217470   4.919   4.838   4.989 -0.6293  0.9592 -0.4493
 5697SOL     OW17471   3.359   6.005   1.130  0.2977 -0.3692  0.3861
 5697SOL    HW117472   3.333   6.092   1.160 -0.9397 -1.0898  1.4487
 5697SOL    HW217473   3.408   6.021   1.050 -0.7138  1.2551  0.0693
 5698SOL     OW17474   5.919   1.104   5.638 -0.2969 -0.3946  0.1091
 5698SOL    HW117475   5.873   1.095   5.554 -1.9615 -1.1052  1.0795
 5698SOL    HW217476   5.908   1.196   5.661  0.0273 -0.2323 -0.3657
 5699SOL     OW17477   4.513   2.911   4.358  0.5718  0.2687 -0.3113
 5699SOL    HW117478   4.465   2.933   4.278 -0.3681 -0.3313  0.0783
 5699SOL    HW217479   4.536   2.819   4.348 -1.7321 -0.5112  1.1838
 5700SOL     OW17480   4.738   3.847   5.688 -0.4250 -0.5756 -0.3745
 5700SOL    HW117481   4.680   3.921   5.670  0.8949  0.2798 -1.2494
 5700SOL    HW217482   4.753   3.808   5.601 -0.4714 -1.3783 -0.0227
 5701SOL     OW17483   0.277   1.994   5.805  0.6499  0.5007  0.1132
 5701SOL    HW117484   0.368   2.018   5.789  0.5358  1.9953  1.5538
 5701SOL    HW217485   0.226   2.064   5.765  0.0262 -1.5425 -2.7864
 5702SOL     OW17486   3.420   5.186   1.849 -0.3393 -0.3102 -0.2214
 5702SOL    HW117487   3.507   5.177   1.888  0.2181  2.2578 -0.8090
 5702SOL    HW217488   3.363   5.206   1.923 -0.4167 -1.7310  0.1261
 5703SOL     OW17489   3.503   6.345   6.219  0.5575  0.5041 -0.0290
 5703SOL    HW117490   3.453   6.291   6.157 -0.0553  0.3786  0.5636
 5703SOL    HW217491   3.436   6.380   6.279  1.3233 -0.6995  1.5631
 5704SOL     OW17492   0.361   2.810   1.446 -0.1267  0.1896 -0.0369
 5704SOL    HW117493   0.319   2.791   1.363  0.3581 -0.1831 -0.1986
 5704SOL    HW217494   0.319   2.890   1.477  0.1659  0.7101 -0.9728
 5705SOL     OW17495   1.349   3.975   5.231 -0.1865  0.3575  0.4303
 5705SOL    HW117496   1.419   4.030   5.265 -0.4329  0.7422  0.3177
 5705SOL    HW217497   1.378   3.951   5.143 -0.4685  1.0090  0.1558
 5706SOL     OW17498   1.895   4.933   2.147 -0.4976 -1.1446  0.3812
 5706SOL    HW117499   1.906   5.009   2.089  2.2701 -1.8610 -0.1086
 5706SOL    HW217500   1.873   4.861   2.088  0.7125 -1.5291  0.3918
 5707SOL     OW17501   1.199   6.207   0.630  0.0169  0.1880  0.4423
 5707SOL    HW117502   1.230   6.269   0.696  0.1095  0.5772  0.0293
 5707SOL    HW217503   1.178   6.260   0.554  0.7455 -0.3539 -0.1500
 5708SOL     OW17504   2.918   4.040   0.066  0.5446 -0.7047 -0.3237
 5708SOL    HW117505   2.877   4.078   0.143 -1.1491  0.6207 -1.8379
 5708SOL    HW217506   3.011   4.058   0.077  0.1765  0.5649  0.8054
 5709SOL     OW17507   0.341   4.683   2.044 -0.0756  0.2108 -0.9783
 5709SOL    HW117508   0.261   4.631   2.055  0.7468 -1.4301 -2.5656
 5709SOL    HW217509   0.369   4.701   2.134 -1.1004 -0.9689 -0.3951
 5710SOL     OW17510   0.369   3.819   2.876 -0.3359 -0.2623 -0.3102
 5710SOL    HW117511   0.347   3.801   2.785 -1.4762  0.5517 -0.2042
 5710SOL    HW217512   0.319   3.755   2.926 -1.0845  0.4239 -0.1680
 5711SOL     OW17513   1.892   5.844   0.628 -0.0942 -0.1324  0.0754
 5711SOL    HW117514   1.825   5.908   0.652 -0.2357 -0.4504  0.5441
 5711SOL    HW217515   1.955   5.893   0.576 -1.1702 -0.0470 -1.1497
 5712SOL     OW17516   3.941   3.835   4.620 -0.0080 -0.3112  0.1666
 5712SOL    HW117517   3.987   3.752   4.630  0.7618  0.1723  0.6539
 5712SOL    HW217518   4.003   3.901   4.649 -0.0996  0.5635 -1.5711
 5713SOL     OW17519   5.971   2.326   3.154 -0.3999 -0.4342  0.5660
 5713SOL    HW117520   5.969   2.421   3.141  1.1960 -0.6541 -1.8473
 5713SOL    HW217521   5.885   2.304   3.189 -2.4028  1.4250 -2.8798
 5714SOL     OW17522   4.783   4.273   0.718 -0.0345 -0.4186 -0.7816
 5714SOL    HW117523   4.750   4.184   0.735  0.0656 -0.4877 -0.9480
 5714SOL    HW217524   4.877   4.261   0.707  0.0732 -0.1965 -0.1295
 5715SOL     OW17525   5.312   4.574   2.248 -0.2205 -0.1168  0.3640
 5715SOL    HW117526   5.293   4.644   2.185  3.1676 -0.7041 -1.4278
 5715SOL    HW217527   5.361   4.616   2.317  1.6309 -0.6224 -0.6074
 5716SOL     OW17528   5.562   2.421   2.109  0.5302 -0.6192  0.1518
 5716SOL    HW117529   5.512   2.434   2.028  1.4008 -1.2948 -0.4920
 5716SOL    HW217530   5.585   2.328   2.109 -2.5105 -1.4968  2.9283
 5717SOL     OW17531   4.749   2.669   0.691 -0.4399  0.5259 -0.3226
 5717SOL    HW117532   4.655   2.656   0.684 -0.3625  0.0875 -0.5237
 5717SOL    HW217533   4.781   2.667   0.601 -0.2397  0.7092 -0.2586
 5718SOL     OW17534   5.456   2.447   1.852  0.3438  0.1815 -0.0475
 5718SOL    HW117535   5.382   2.488   1.805  0.7112  0.9623  0.0504
 5718SOL    HW217536   5.516   2.420   1.782 -0.2134 -0.8282 -0.1521
 5719SOL     OW17537   2.078   1.692   0.443  0.2687  0.7643 -0.1433
 5719SOL    HW117538   2.159   1.739   0.424  0.9245 -1.3457 -2.9695
 5719SOL    HW217539   2.106   1.613   0.489 -0.1636  0.1105 -0.9816
 5720SOL     OW17540   4.274   0.952   1.950  0.5530 -0.0335 -0.3146
 5720SOL    HW117541   4.282   1.031   1.897  0.1428 -0.0043 -0.3298
 5720SOL    HW217542   4.333   0.889   1.908  1.9760  0.7022  0.5135
 5721SOL     OW17543   1.926   2.444   3.827 -0.1222 -0.2317 -0.3500
 5721SOL    HW117544   1.934   2.365   3.774 -0.0458  0.0150 -0.7058
 5721SOL    HW217545   1.891   2.510   3.768  1.4440  0.4813 -0.5259
 5722SOL     OW17546   4.170   5.480   0.282  0.1576  0.2896  0.4473
 5722SOL    HW117547   4.179   5.568   0.246  0.7144  0.1285  0.1938
 5722SOL    HW217548   4.259   5.446   0.286 -0.0214 -0.1379  0.8589
 5723SOL     OW17549   3.625   2.217   5.004 -0.0249  0.3640  0.0959
 5723SOL    HW117550   3.533   2.215   4.980 -0.8869  0.2632  3.2326
 5723SOL    HW217551   3.655   2.127   4.988 -0.4790  0.3716 -0.8387
 5724SOL     OW17552   4.856   4.992   0.564 -0.2075  0.0192 -0.1261
 5724SOL    HW117553   4.817   4.912   0.529  1.1875 -1.4573  1.5615
 5724SOL    HW217554   4.813   5.004   0.649  2.7884 -1.5541  1.6984
 5725SOL     OW17555   4.144   5.062   6.153 -0.0726 -0.4725  0.3918
 5725SOL    HW117556   4.206   5.112   6.100 -1.0836  0.0312 -0.3385
 5725SOL    HW217557   4.174   4.971   6.146  1.0959 -0.1298  0.7819
 5726SOL     OW17558   2.049   0.294   4.030  0.0581 -0.0444 -0.2382
 5726SOL    HW117559   2.092   0.377   4.049  1.2699 -1.0002  1.3296
 5726SOL    HW217560   2.067   0.239   4.107 -0.2321 -1.9419 -1.4903
 5727SOL     OW17561   3.367   5.661   0.657  0.1818 -0.1560 -0.6525
 5727SOL    HW117562   3.396   5.710   0.579 -1.9063 -0.6258 -1.7649
 5727SOL    HW217563   3.368   5.726   0.727  2.4347  0.1974 -0.9541
 5728SOL     OW17564   0.565   0.475   2.679  0.1875 -0.8727  0.3803
 5728SOL    HW117565   0.541   0.400   2.625  0.2975 -0.9804  0.4817
 5728SOL    HW217566   0.628   0.523   2.626 -0.4663 -0.4325 -0.0096
 5729SOL     OW17567   1.922   0.061   5.174 -0.8048  0.0160 -0.5296
 5729SOL    HW117568   1.988   0.006   5.216 -1.4930  1.7265  2.9614
 5729SOL    HW217569   1.972   0.125   5.123  0.3771  1.8320  2.7614
 5730SOL     OW17570   1.592   0.407   1.329  0.0846  0.4419 -0.2816
 5730SOL    HW117571   1.628   0.333   1.280 -1.6157 -1.0117  0.6109
 5730SOL    HW217572   1.499   0.408   1.306 -0.3312  0.9785  1.3551
 5731SOL     OW17573   1.969   0.719   0.848  0.1233 -0.1988 -0.7380
 5731SOL    HW117574   1.897   0.661   0.873  0.4504  0.0648  0.8529
 5731SOL    HW217575   1.925   0.798   0.816 -0.3088 -0.1267  0.0130
 5732SOL     OW17576   1.439   5.887   5.361  0.1665 -0.2322  0.1930
 5732SOL    HW117577   1.463   5.978   5.346  0.5530 -0.3087  0.3446
 5732SOL    HW217578   1.451   5.874   5.455 -0.0515 -0.3930  0.1996
 5733SOL     OW17579   1.085   3.225   0.806  0.1266  0.0763 -0.3948
 5733SOL    HW117580   1.069   3.298   0.866  2.1503 -0.2194  0.5284
 5733SOL    HW217581   1.098   3.150   0.863  1.4655 -0.3343 -1.2348
 5734SOL     OW17582   3.544   2.823   5.384 -0.0589  0.0770  0.2646
 5734SOL    HW117583   3.484   2.845   5.313  0.0165  1.4009  0.6102
 5734SOL    HW217584   3.612   2.770   5.342 -0.6841 -0.2107 -0.3982
 5735SOL     OW17585   2.463   4.783   4.085  0.6374 -0.4127 -0.3631
 5735SOL    HW117586   2.484   4.778   4.178  0.0038 -1.4888 -0.2745
 5735SOL    HW217587   2.543   4.816   4.044  1.2759 -0.9821  0.4174
 5736SOL     OW17588   3.921   2.006   1.145 -0.4037 -0.1107  0.2968
 5736SOL    HW117589   3.877   1.978   1.225 -0.6410  0.9934  0.5673
 5736SOL    HW217590   3.979   2.077   1.174  0.5663 -0.6641 -0.2763
 5737SOL     OW17591   3.535   2.399   1.037  0.3573  0.1837 -0.2995
 5737SOL    HW117592   3.528   2.470   0.973  1.6955  2.2167  1.7478
 5737SOL    HW217593   3.544   2.443   1.121  0.0541 -2.4393  1.1544
 5738SOL     OW17594   0.656   3.289   4.358  0.0915 -0.1655  0.4560
 5738SOL    HW117595   0.601   3.358   4.396  2.2187  1.2940  0.9814
 5738SOL    HW217596   0.607   3.259   4.281 -0.4738  2.5788 -0.3270
 5739SOL     OW17597   3.235   1.307   3.883 -0.2728  0.1361 -0.0971
 5739SOL    HW117598   3.197   1.383   3.927 -1.4933 -0.3985 -0.1870
 5739SOL    HW217599   3.321   1.295   3.923  0.1788  1.9297 -0.5128
 5740SOL     OW17600   3.249   3.819   6.056  0.5702 -0.2533 -0.0746
 5740SOL    HW117601   3.222   3.779   5.974 -0.4923 -1.1298  0.6753
 5740SOL    HW217602   3.269   3.745   6.114  1.8846  0.3606  0.2618
 5741SOL     OW17603   2.733   2.325   5.559  0.2265  0.2719  0.3338
 5741SOL    HW117604   2.760   2.243   5.601  0.6036  0.1285 -0.1783
 5741SOL    HW217605   2.810   2.381   5.565  0.0879  0.4581  0.3633
 5742SOL     OW17606   1.626   5.851   1.196 -0.1213  0.1795 -0.0177
 5742SOL    HW117607   1.599   5.879   1.283 -0.1185 -1.5818  0.5615
 5742SOL    HW217608   1.680   5.773   1.211 -0.3171 -0.2780 -1.6076
 5743SOL     OW17609   0.704   4.345   1.518 -0.2798 -0.0787 -0.3298
 5743SOL    HW117610   0.730   4.294   1.442 -2.3128 -0.8764 -0.5435
 5743SOL    HW217611   0.725   4.436   1.496 -1.8220 -0.1757 -2.3035
 5744SOL     OW17612   5.570   4.291   1.797 -0.4663 -0.0493 -0.0081
 5744SOL    HW117613   5.584   4.200   1.825  0.5057 -0.6836 -2.3615
 5744SOL    HW217614   5.475   4.302   1.799 -0.7152 -1.7222 -1.3975
 5745SOL     OW17615   0.885   4.090   0.286 -0.0180  0.4668 -0.2284
 5745SOL    HW117616   0.969   4.045   0.283 -1.1253 -1.7431  0.1364
 5745SOL    HW217617   0.895   4.165   0.228  2.0130 -0.0817 -0.6304
 5746SOL     OW17618   4.058   0.365   5.317  0.0664 -0.4897 -0.1404
 5746SOL    HW117619   3.990   0.340   5.380  0.5444  0.6088  0.8320
 5746SOL    HW217620   4.103   0.284   5.297 -0.4046 -0.9324  0.5671
 5747SOL     OW17621   3.684   1.667   0.506  0.0679  0.1545  0.3485
 5747SOL    HW117622   3.603   1.686   0.458 -1.0396  0.0944  2.1180
 5747SOL    HW217623   3.661   1.595   0.564  1.4715 -0.0286  0.6913
 5748SOL     OW17624   4.101   1.334   1.237  0.4651  0.0131  0.2728
 5748SOL    HW117625   4.026   1.322   1.179  0.4597  0.4900  0.1826
 5748SOL    HW217626   4.177   1.324   1.180  0.4819 -1.1652  0.4938
 5749SOL     OW17627   0.475   2.678   6.321 -0.0249 -0.2395  0.0401
 5749SOL    HW117628   0.509   2.642   6.403  0.1004 -0.1774  0.0152
 5749SOL    HW217629   0.530   2.754   6.303 -1.2232  0.8319  0.8524
 5750SOL     OW17630   2.072   1.659   3.726 -0.5825 -0.1663  0.3867
 5750SOL    HW117631   2.036   1.584   3.774 -0.2984  0.2806  1.3109
 5750SOL    HW217632   2.125   1.619   3.656 -0.2839 -0.8295  0.9831
 5751SOL     OW17633   0.644   3.117   6.010  0.0088 -0.2908  0.2944
 5751SOL    HW117634   0.553   3.144   5.998 -0.2691 -2.2453 -2.2639
 5751SOL    HW217635   0.686   3.136   5.926  2.2179  1.3778  1.7079
 5752SOL     OW17636   4.227   4.018   0.447 -0.3366  0.0947  0.3058
 5752SOL    HW117637   4.291   4.052   0.385 -0.7646  0.8271  0.2581
 5752SOL    HW217638   4.149   4.073   0.435 -2.4446 -3.2769 -2.4880
 5753SOL     OW17639   2.632   1.563   1.306 -0.0276  0.2589  0.4058
 5753SOL    HW117640   2.666   1.637   1.358 -2.3047  1.1436  0.7083
 5753SOL    HW217641   2.540   1.557   1.331 -0.2929 -1.5908 -0.9349
 5754SOL     OW17642   4.569   0.669   0.607  0.1815  0.4727  0.1713
 5754SOL    HW117643   4.658   0.635   0.605 -0.4095 -1.1847  1.3339
 5754SOL    HW217644   4.562   0.712   0.693 -0.8661 -1.5053  1.1179
 5755SOL     OW17645   5.804   1.945   6.254 -0.0048 -0.0489  0.2664
 5755SOL    HW117646   5.817   2.038   6.237 -1.7077  0.1064 -0.2984
 5755SOL    HW217647   5.837   1.901   6.175 -2.0631  0.2867 -0.8098
 5756SOL     OW17648   6.239   4.005   4.774  0.5991 -0.1786  0.2122
 5756SOL    HW117649   6.220   3.916   4.805 -0.8440  0.9737  2.7806
 5756SOL    HW217650   6.163   4.028   4.720  0.4614 -0.0760  0.4528
 5757SOL     OW17651   4.249   5.513   2.804  0.1274 -0.2178  0.0313
 5757SOL    HW117652   4.208   5.438   2.762 -0.1604  1.0677 -2.0820
 5757SOL    HW217653   4.336   5.518   2.765  0.5050 -0.0555  0.8926
 5758SOL     OW17654   2.277   3.019   0.799  0.1550 -0.1946 -0.4741
 5758SOL    HW117655   2.340   3.039   0.869 -1.3814 -1.3484  1.3061
 5758SOL    HW217656   2.196   3.060   0.827 -1.4736 -3.7611  0.3341
 5759SOL     OW17657   3.004   1.971   4.245  0.1793  0.4248 -0.3313
 5759SOL    HW117658   2.932   1.985   4.184 -0.4998 -0.0161  0.3567
 5759SOL    HW217659   3.083   1.983   4.193 -0.3950 -0.0458 -1.3148
 5760SOL     OW17660   1.922   5.976   5.038  0.1863  0.1819  0.0954
 5760SOL    HW117661   1.965   6.015   5.114  0.2745  1.9299 -0.8399
 5760SOL    HW217662   1.962   5.889   5.030  1.3889  0.6398  1.0225
 5761SOL     OW17663   6.311   0.312   4.425  0.2399  0.3687  0.3670
 5761SOL    HW117664   6.371   0.239   4.409  1.9873  1.6420  0.9169
 5761SOL    HW217665   6.368   0.387   4.438 -1.3099  1.0714  3.9382
 5762SOL     OW17666   3.034   0.470   5.784 -0.3220  0.3958 -0.8231
 5762SOL    HW117667   2.973   0.542   5.765 -0.6543  0.8972  1.9624
 5762SOL    HW217668   3.095   0.507   5.848  1.8464 -0.6565 -2.2514
 5763SOL     OW17669   4.308   5.824   4.470  0.5577 -0.4954 -0.1061
 5763SOL    HW117670   4.235   5.804   4.411  0.9559  0.6302 -0.9915
 5763SOL    HW217671   4.298   5.761   4.542 -2.1060  0.5417  0.4945
 5764SOL     OW17672   3.752   5.496   4.180 -0.2990 -0.0606 -0.2745
 5764SOL    HW117673   3.816   5.426   4.175  0.8040  0.9913 -1.1080
 5764SOL    HW217674   3.724   5.510   4.089  1.0888  2.0116 -0.4232
 5765SOL     OW17675   4.106   3.717   3.172 -0.3451 -0.2506  0.1283
 5765SOL    HW117676   4.050   3.753   3.241 -0.8319  1.0801 -0.9464
 5765SOL    HW217677   4.176   3.781   3.163 -0.8587  0.1246 -1.3425
 5766SOL     OW17678   1.673   1.118   0.049 -1.3998  0.1119  0.4031
 5766SOL    HW117679   1.628   1.152  -0.028 -0.0981  0.1442 -0.3562
 5766SOL    HW217680   1.706   1.196   0.093  0.4657 -0.0767 -0.6394
 5767SOL     OW17681   3.220   4.907   6.382 -0.7089  0.4275 -0.2141
 5767SOL    HW117682   3.211   4.813   6.368 -0.2001  0.2596  0.6114
 5767SOL    HW217683   3.271   4.937   6.306  0.0453 -0.1249  0.0750
 5768SOL     OW17684   3.609   0.235   6.137  0.5164 -0.2440  0.2415
 5768SOL    HW117685   3.604   0.305   6.201  2.8722 -1.7410  2.1701
 5768SOL    HW217686   3.577   0.157   6.183 -1.0317 -0.6953 -1.5203
 5769SOL     OW17687   5.520   5.020   3.582 -0.0617 -0.6072 -0.1309
 5769SOL    HW117688   5.427   5.034   3.600 -0.2203 -1.3027 -0.4094
 5769SOL    HW217689   5.565   5.075   3.646 -0.6709  0.1080 -0.3122
 5770SOL     OW17690   0.648   0.979   1.866  0.6784  0.4363  1.0358
 5770SOL    HW117691   0.640   0.948   1.775 -1.6000  1.0842  0.9947
 5770SOL    HW217692   0.742   0.980   1.882  1.0726 -0.7078 -0.9697
 5771SOL     OW17693   3.033   3.084   2.228  0.4801  0.2524  0.3900
 5771SOL    HW117694   2.968   3.136   2.275  0.6541  0.7657  0.0733
 5771SOL    HW217695   3.109   3.081   2.287  0.0176 -0.6981  0.9323
 5772SOL     OW17696   1.116   1.614   3.227 -0.1853  0.1746  0.4441
 5772SOL    HW117697   1.177   1.647   3.161 -0.7168  0.7416  0.2314
 5772SOL    HW217698   1.124   1.675   3.300  0.4969 -0.5254  0.9679
 5773SOL     OW17699   2.321   3.290   5.157 -0.5141  0.1679  0.5907
 5773SOL    HW117700   2.286   3.331   5.236 -1.8608 -0.5605  0.3868
 5773SOL    HW217701   2.415   3.286   5.172 -0.6062  1.2994  1.5619
 5774SOL     OW17702   0.831   0.049   5.135  0.5780  0.3588 -0.1614
 5774SOL    HW117703   0.919   0.070   5.104  0.1256 -0.0357 -1.7308
 5774SOL    HW217704   0.814  -0.039   5.101 -0.2766  0.2807  0.4650
 5775SOL     OW17705   2.860   5.375   1.780 -0.4160  0.1545  0.1149
 5775SOL    HW117706   2.838   5.405   1.868 -0.8525 -1.0172  0.4165
 5775SOL    HW217707   2.949   5.407   1.765 -0.7294  1.2661  0.5549
 5776SOL     OW17708   1.440   2.868   5.916  0.3268  0.3589  0.0719
 5776SOL    HW117709   1.468   2.945   5.965 -0.5594  0.2746  0.7292
 5776SOL    HW217710   1.497   2.866   5.840  0.0724  1.9260 -0.1797
 5777SOL     OW17711   4.723   0.483   1.150  0.4523  0.1402 -0.5670
 5777SOL    HW117712   4.662   0.541   1.194  0.0833 -0.8073  0.1988
 5777SOL    HW217713   4.676   0.451   1.073  0.6606  0.8533 -0.9965
 5778SOL     OW17714   2.014   0.467   2.759 -0.0762 -0.2061  0.0173
 5778SOL    HW117715   1.939   0.511   2.719 -2.0398 -2.1763  1.3837
 5778SOL    HW217716   1.975   0.408   2.823  2.6105 -2.0115  0.0557
 5779SOL     OW17717   3.171   3.046   1.127  0.0631 -0.0285  0.0327
 5779SOL    HW117718   3.115   2.991   1.071 -0.4178 -0.8546  1.3128
 5779SOL    HW217719   3.260   3.026   1.098 -0.0371 -2.3398  1.2384
 5780SOL     OW17720   6.291   4.019   1.653 -0.5598 -0.2720 -0.0484
 5780SOL    HW117721   6.228   3.958   1.690  0.1579 -0.9416  0.0784
 5780SOL    HW217722   6.372   4.002   1.701 -0.1138  0.1419 -0.6478
 5781SOL     OW17723   1.833   3.697   2.253 -0.3682  0.1227 -0.3173
 5781SOL    HW117724   1.919   3.738   2.243 -0.5955  1.7044  3.4248
 5781SOL    HW217725   1.852   3.611   2.292 -0.4196 -0.0108 -0.5838
 5782SOL     OW17726   0.035   3.504   3.174 -0.0407  0.0141  0.3774
 5782SOL    HW117727  -0.043   3.510   3.229  0.0516  0.6547  0.4528
 5782SOL    HW217728   0.021   3.427   3.120 -1.3879  0.9172 -0.6058
 5783SOL     OW17729   0.589   0.356   0.391 -0.4202  0.8278 -0.2137
 5783SOL    HW117730   0.494   0.341   0.382 -0.4584  1.3800 -0.6931
 5783SOL    HW217731   0.613   0.303   0.467 -1.4489  2.1226  1.0373
 5784SOL     OW17732   3.825   5.123   3.007  0.3729 -0.9052  0.0638
 5784SOL    HW117733   3.733   5.110   2.984  0.8413 -0.5671 -2.1353
 5784SOL    HW217734   3.855   5.037   3.035 -0.8837 -0.7795  1.9424
 5785SOL     OW17735   0.206   3.631   3.022  0.9013  0.1302  0.2834
 5785SOL    HW117736   0.175   3.574   3.092  0.8316 -0.0038  0.1450
 5785SOL    HW217737   0.129   3.679   2.993  1.0805  0.7343  0.8053
 5786SOL     OW17738   6.268   5.293   5.333  0.1288 -0.3463 -0.0180
 5786SOL    HW117739   6.241   5.384   5.343  1.1016 -0.0617  0.0423
 5786SOL    HW217740   6.350   5.297   5.283  0.5823 -1.1376  0.6510
 5787SOL     OW17741   1.890   5.891   0.057 -0.7066  0.3896  0.2907
 5787SOL    HW117742   1.900   5.845  -0.026 -2.4700  1.4340 -0.5185
 5787SOL    HW217743   1.799   5.920   0.059 -0.4605  1.1599  2.1871
 5788SOL     OW17744   1.112   2.372   2.114 -0.2719  0.0575  0.0738
 5788SOL    HW117745   1.064   2.453   2.101 -0.3054 -0.0194 -0.2823
 5788SOL    HW217746   1.178   2.394   2.180  0.7497  0.8127 -1.1602
 5789SOL     OW17747   4.051   3.505   3.886 -0.1710 -0.5296 -0.0795
 5789SOL    HW117748   4.009   3.434   3.839 -1.1214  1.7805 -2.8796
 5789SOL    HW217749   4.139   3.473   3.904 -0.9943 -2.8837 -0.1052
 5790SOL     OW17750   4.163   3.441   0.492  0.1577  0.5042 -0.0134
 5790SOL    HW117751   4.155   3.373   0.559  1.4830 -1.0693 -1.4263
 5790SOL    HW217752   4.215   3.510   0.535 -0.5537  0.3178  1.1723
 5791SOL     OW17753   4.342   4.664   2.054  0.3081  0.4224  0.0322
 5791SOL    HW117754   4.326   4.580   2.096 -0.0931  1.3722  1.8091
 5791SOL    HW217755   4.413   4.704   2.104 -0.3869  1.6955  0.0440
 5792SOL     OW17756   3.472   0.172   4.562  0.5836  0.6643 -0.2134
 5792SOL    HW117757   3.563   0.199   4.546  1.0868 -0.0907  1.2198
 5792SOL    HW217758   3.464   0.087   4.520  0.2349  1.1689 -1.1836
 5793SOL     OW17759   5.134   0.670   0.842  0.5596 -0.1996  0.2734
 5793SOL    HW117760   5.171   0.582   0.848  1.3214  0.0784 -0.2535
 5793SOL    HW217761   5.188   0.723   0.900  0.8866  0.1747 -0.3660
 5794SOL     OW17762   3.795   3.817   3.130  0.1689 -0.0228  0.1403
 5794SOL    HW117763   3.726   3.750   3.122 -2.2219  2.2261  1.3677
 5794SOL    HW217764   3.846   3.789   3.206 -0.9255 -0.3638  0.7634
 5795SOL     OW17765   5.443   1.808   4.535  0.6555 -0.2262 -0.5959
 5795SOL    HW117766   5.397   1.845   4.459 -0.3638 -1.3127 -0.5224
 5795SOL    HW217767   5.532   1.844   4.529  0.2736  0.5599 -1.6980
 5796SOL     OW17768   4.082   0.587   4.534 -0.2509  0.6035 -0.0621
 5796SOL    HW117769   4.088   0.644   4.457  1.3287  2.2246  1.2289
 5796SOL    HW217770   4.111   0.642   4.607 -0.5479 -1.2831  1.5163
 5797SOL     OW17771   0.571   4.180   3.306 -0.4654 -0.0636 -0.0022
 5797SOL    HW117772   0.536   4.228   3.381 -1.7197 -0.0897 -0.5649
 5797SOL    HW217773   0.524   4.096   3.307 -1.9380  0.7230 -1.9821
 5798SOL     OW17774   5.295   5.564   0.766 -0.7791  0.1592  0.3840
 5798SOL    HW117775   5.237   5.544   0.840  0.0452  0.4996  1.1322
 5798SOL    HW217776   5.367   5.502   0.774 -0.6895  0.1969 -0.1313
 5799SOL     OW17777   6.263   2.209   1.937  0.2329 -0.6524  0.2596
 5799SOL    HW117778   6.174   2.189   1.908  0.1309 -0.9562  0.7752
 5799SOL    HW217779   6.288   2.285   1.886 -0.6862  0.0308  0.8164
 5800SOL     OW17780   0.361   2.745   1.022  0.3773 -0.4791 -0.3244
 5800SOL    HW117781   0.292   2.762   0.958 -0.6316 -2.3405  0.2355
 5800SOL    HW217782   0.437   2.723   0.968  0.7362  2.1393 -0.9544
 5801SOL     OW17783   1.909   2.857   6.375 -0.2943  0.4448  0.5830
 5801SOL    HW117784   1.937   2.941   6.339  2.1810 -0.8984 -0.7870
 5801SOL    HW217785   1.984   2.827   6.427 -0.1050 -2.1284 -1.1094
 5802SOL     OW17786   1.091   5.209   5.138 -0.2941  0.0215 -0.7590
 5802SOL    HW117787   1.018   5.151   5.117 -1.1395  1.1704 -1.0499
 5802SOL    HW217788   1.150   5.203   5.063  0.1370 -1.2473 -0.3290
 5803SOL     OW17789   4.511   2.418   5.586  0.1910 -0.1245 -0.0594
 5803SOL    HW117790   4.588   2.363   5.572 -0.3419 -0.5630 -1.3715
 5803SOL    HW217791   4.444   2.380   5.529 -1.9485 -1.6167  3.3278
 5804SOL     OW17792   4.002   3.428   3.314  0.5865  0.1956 -0.6762
 5804SOL    HW117793   3.931   3.482   3.278 -0.6768 -0.7014  0.3960
 5804SOL    HW217794   4.060   3.491   3.358 -0.8703  0.7221  0.5708
 5805SOL     OW17795   4.411   4.320   4.843  0.0768  0.5281  0.1304
 5805SOL    HW117796   4.387   4.337   4.934 -0.5558  0.6350 -0.0522
 5805SOL    HW217797   4.502   4.348   4.837 -0.6983  3.1662  0.0322
 5806SOL     OW17798   6.325   5.304   6.095 -0.5987  0.4018  0.1581
 5806SOL    HW117799   6.261   5.336   6.159 -1.0617 -1.1038  0.4666
 5806SOL    HW217800   6.287   5.327   6.010 -0.4071  1.6119  0.3819
 5807SOL     OW17801   5.210   1.187   3.714  0.1989  0.8540 -0.2212
 5807SOL    HW117802   5.180   1.197   3.623 -0.3551 -0.2845 -0.1744
 5807SOL    HW217803   5.195   1.272   3.754 -0.5014  1.0619 -0.9254
 5808SOL     OW17804   2.022   2.013   5.106  0.4312 -0.1040  0.2362
 5808SOL    HW117805   2.078   2.053   5.040 -0.1379 -2.5001 -1.7513
 5808SOL    HW217806   2.002   1.926   5.072 -2.0259 -0.4292  2.3378
 5809SOL     OW17807   5.738   1.425   2.488  0.0026 -0.9977 -0.3757
 5809SOL    HW117808   5.805   1.362   2.460 -0.6571 -2.0801  0.4172
 5809SOL    HW217809   5.787   1.493   2.534  0.5914 -1.6283 -0.0488
 5810SOL     OW17810   3.823   3.189   5.431 -0.1598  0.5472 -0.6401
 5810SOL    HW117811   3.891   3.122   5.427  0.8511  1.5752 -0.8756
 5810SOL    HW217812   3.786   3.190   5.343 -2.0013 -1.5470  0.0703
 5811SOL     OW17813   2.073   2.525   3.244  0.6785 -0.0480 -0.3896
 5811SOL    HW117814   2.118   2.600   3.205  1.3171 -1.2058 -1.9540
 5811SOL    HW217815   2.081   2.456   3.178 -3.5777 -0.2635 -0.8661
 5812SOL     OW17816   0.312   5.395   3.278  0.6490 -0.2063  0.2012
 5812SOL    HW117817   0.287   5.329   3.343 -0.2181  2.4192  2.6268
 5812SOL    HW217818   0.396   5.429   3.309  2.2940 -1.7635 -2.3427
 5813SOL     OW17819   4.371   1.623   0.608  0.5137 -0.1045 -0.1702
 5813SOL    HW117820   4.432   1.676   0.659  1.2058 -0.3770 -0.6967
 5813SOL    HW217821   4.416   1.539   0.598  0.0680 -0.2957 -0.5958
 5814SOL     OW17822   5.120   4.274   1.312  0.5242  0.0237 -0.0151
 5814SOL    HW117823   5.153   4.190   1.344  0.8303 -0.6780 -2.0992
 5814SOL    HW217824   5.026   4.261   1.302  0.5799 -0.0957 -0.3965
 5815SOL     OW17825   0.796   4.349   4.618 -0.1357  0.2445 -0.4807
 5815SOL    HW117826   0.763   4.380   4.702  1.8892  0.2132  0.3571
 5815SOL    HW217827   0.799   4.428   4.563  1.0203  0.7781  0.3232
 5816SOL     OW17828   4.915   4.629   0.277 -0.1264  0.0724 -0.0665
 5816SOL    HW117829   4.968   4.684   0.220  0.8141 -0.9242 -0.1670
 5816SOL    HW217830   4.920   4.542   0.238 -0.1506 -0.4475  1.0700
 5817SOL     OW17831   0.440   2.262   2.253  0.0083 -0.0341 -0.7759
 5817SOL    HW117832   0.471   2.351   2.265  1.3097 -0.2320 -2.4433
 5817SOL    HW217833   0.510   2.207   2.290 -0.0691 -0.3861 -1.1431
 5818SOL     OW17834   1.582   3.815   3.521 -0.1085 -0.5158 -0.6369
 5818SOL    HW117835   1.545   3.894   3.559 -3.1563 -0.8153 -2.8508
 5818SOL    HW217836   1.675   3.837   3.507 -0.1485  1.4573  1.7911
 5819SOL     OW17837   5.639   0.549   2.397 -0.2826  0.5309 -0.1568
 5819SOL    HW117838   5.581   0.594   2.458  0.9688  3.0864 -0.8020
 5819SOL    HW217839   5.617   0.585   2.311 -0.9635 -1.9224 -1.0506
 5820SOL     OW17840   4.313   5.248   0.101 -0.1084  0.4215  0.8164
 5820SOL    HW117841   4.328   5.154   0.090 -0.1706  0.2081  2.4810
 5820SOL    HW217842   4.239   5.254   0.162 -0.1219  1.5580  0.7075
 5821SOL     OW17843   5.378   1.415   2.963  0.4229 -0.2725 -0.0347
 5821SOL    HW117844   5.331   1.347   3.010 -0.2945 -0.1497 -0.5795
 5821SOL    HW217845   5.310   1.469   2.924  1.0066  0.1425 -0.4810
 5822SOL     OW17846   1.624   6.017   5.966 -0.5796 -1.1383  0.2988
 5822SOL    HW117847   1.547   5.986   6.014 -1.7876  1.0801 -0.1311
 5822SOL    HW217848   1.683   6.051   6.033 -1.6673  0.6783  0.3817
 5823SOL     OW17849   5.917   5.422   4.493 -0.2942 -0.4471  0.4495
 5823SOL    HW117850   5.968   5.361   4.440 -0.8081 -0.8157  0.3809
 5823SOL    HW217851   5.949   5.409   4.582  1.0638  0.6691  0.1377
 5824SOL     OW17852   2.276   1.264   2.033 -0.0615  0.3994  0.4962
 5824SOL    HW117853   2.213   1.336   2.026  0.2728  0.7766  1.3410
 5824SOL    HW217854   2.361   1.306   2.022  0.1111  0.0618  0.5570
 5825SOL     OW17855   1.405   5.763   4.800 -0.5465  0.1023  0.2798
 5825SOL    HW117856   1.484   5.710   4.797 -0.4465  0.0637  2.5624
 5825SOL    HW217857   1.421   5.826   4.870 -3.1262 -0.9328  1.8936
 5826SOL     OW17858   3.364   3.924   1.062 -0.0530  0.0682  0.3372
 5826SOL    HW117859   3.295   3.894   1.003 -0.4204  0.1283  0.7362
 5826SOL    HW217860   3.397   3.843   1.102  0.4658 -0.0114 -0.2401
 5827SOL     OW17861   0.429   5.899   0.349  0.6725  0.5201  0.2117
 5827SOL    HW117862   0.474   5.979   0.320  2.3209 -0.2413  0.6275
 5827SOL    HW217863   0.388   5.865   0.269  1.7349  0.6608 -0.4102
 5828SOL     OW17864   4.151   1.756   5.972 -0.3137  0.3319  0.1044
 5828SOL    HW117865   4.105   1.782   6.052  1.4675 -0.9925  1.5959
 5828SOL    HW217866   4.219   1.823   5.961  0.0923 -0.0524  0.2725
 5829SOL     OW17867   2.691   3.297   0.350  0.4369 -0.1453  0.5364
 5829SOL    HW117868   2.767   3.275   0.296  0.1293  0.7148 -0.2778
 5829SOL    HW217869   2.633   3.222   0.341  0.1884  0.1827 -0.7180
 5830SOL     OW17870   3.645   0.422   5.038  0.4320  0.2454  0.0096
 5830SOL    HW117871   3.678   0.417   4.949 -1.1852  1.3703 -0.6743
 5830SOL    HW217872   3.625   0.332   5.062  0.8550 -0.0540 -0.7679
 5831SOL     OW17873   0.806   2.213   2.869  0.0752 -0.0587  0.1358
 5831SOL    HW117874   0.803   2.172   2.782  1.8087 -1.6271  0.7867
 5831SOL    HW217875   0.878   2.169   2.914 -0.0729  1.5267  1.9895
 5832SOL     OW17876   1.126   4.564   3.676  1.1342  0.0133  0.5309
 5832SOL    HW117877   1.220   4.549   3.666  1.1276 -0.1938  0.7694
 5832SOL    HW217878   1.090   4.553   3.588  1.2839 -0.2625  0.5055
 5833SOL     OW17879   3.817   4.603   1.090  0.0394 -0.0196  0.0445
 5833SOL    HW117880   3.727   4.633   1.079  0.2277  0.5720  0.0916
 5833SOL    HW217881   3.831   4.603   1.185  1.1546  3.1531 -0.0388
 5834SOL     OW17882   0.890   3.744   1.949  0.5872  0.3023 -0.1963
 5834SOL    HW117883   0.818   3.759   2.010 -0.9038 -1.8541 -1.3572
 5834SOL    HW217884   0.900   3.828   1.903  0.8231  1.5291  1.9974
 5835SOL     OW17885   0.738   4.626   1.427 -0.5780 -0.1457  0.1851
 5835SOL    HW117886   0.715   4.718   1.426 -0.1261  0.0206  2.2514
 5835SOL    HW217887   0.811   4.619   1.365 -1.3088  0.6648 -0.7838
 5836SOL     OW17888   5.232   0.621   4.570 -0.0399  0.2531  0.0428
 5836SOL    HW117889   5.312   0.591   4.612 -0.2690 -2.1935 -1.1556
 5836SOL    HW217890   5.259   0.648   4.482 -0.6641 -1.8535 -0.8459
 5837SOL     OW17891   4.752   1.537   3.816 -0.2046 -1.1242  0.0019
 5837SOL    HW117892   4.746   1.494   3.730 -3.9916 -1.5704  0.4264
 5837SOL    HW217893   4.795   1.472   3.872 -0.3452 -1.9709 -0.8638
 5838SOL     OW17894   4.459   3.196   1.622 -0.3026  0.0943  0.5064
 5838SOL    HW117895   4.491   3.194   1.531  0.8668 -1.1102  0.9347
 5838SOL    HW217896   4.404   3.118   1.629 -1.2008  0.7241  0.5546
 5839SOL     OW17897   0.480   0.862   6.318  0.7187  0.1837 -0.1666
 5839SOL    HW117898   0.431   0.927   6.369  0.1132 -1.2339  1.0660
 5839SOL    HW217899   0.414   0.798   6.290  1.2817  0.1693 -1.5324
 5840SOL     OW17900   1.462   0.119   0.625 -0.8191  0.4316  0.3345
 5840SOL    HW117901   1.406   0.065   0.681 -0.6085 -0.2131 -0.0693
 5840SOL    HW217902   1.549   0.114   0.664  0.1939 -3.1594 -2.1478
 5841SOL     OW17903   3.054   2.591   0.832 -0.3713 -0.5180 -0.0582
 5841SOL    HW117904   3.102   2.551   0.759 -0.7017  1.1376 -1.2323
 5841SOL    HW217905   2.992   2.524   0.860  0.9991 -1.8386 -0.0833
 5842SOL     OW17906   3.783   4.002   1.356  0.3795  0.0243 -0.4056
 5842SOL    HW117907   3.785   4.098   1.360  0.7215 -0.0951  2.9395
 5842SOL    HW217908   3.742   3.975   1.437  0.9443 -2.7223 -0.9903
 5843SOL     OW17909   4.817   4.314   6.311 -0.7210 -0.5982  0.0547
 5843SOL    HW117910   4.890   4.273   6.265 -0.5134 -0.2885  0.1111
 5843SOL    HW217911   4.806   4.261   6.390  0.4724  0.3095  0.8379
 5844SOL     OW17912   5.209   6.322   2.491 -0.0340  0.3113 -0.3766
 5844SOL    HW117913   5.135   6.311   2.552  0.3589  1.2614  0.2756
 5844SOL    HW217914   5.274   6.258   2.521  0.5102  1.3791  0.7488
 5845SOL     OW17915   4.052   6.298   4.319 -0.0718  0.0003  0.0756
 5845SOL    HW117916   3.980   6.246   4.283 -0.3646  0.4384  0.0201
 5845SOL    HW217917   4.012   6.349   4.389  0.6099 -1.2527  1.3980
 5846SOL     OW17918   4.904   5.474   0.779 -0.3992  0.1998 -0.1078
 5846SOL    HW117919   4.818   5.488   0.739 -0.3229  1.7790  0.2258
 5846SOL    HW217920   4.940   5.562   0.789  1.5804 -0.4840 -0.9273
 5847SOL     OW17921   3.176   3.225   0.862 -0.3549  0.2907 -0.0572
 5847SOL    HW117922   3.252   3.281   0.874  0.2657 -1.0491  2.6850
 5847SOL    HW217923   3.210   3.149   0.814 -0.4583  0.6781 -0.7540
 5848SOL     OW17924   1.950   3.070   4.217  0.1089 -0.0033  0.0342
 5848SOL    HW117925   1.879   3.037   4.272  0.1200  0.7539  0.5086
 5848SOL    HW217926   1.924   3.045   4.128  0.2358 -1.4921  0.4004
 5849SOL     OW17927   2.960   2.174   1.285 -0.2665 -0.4041 -0.6734
 5849SOL    HW117928   3.013   2.247   1.253  0.2115 -0.3282  0.2637
 5849SOL    HW217929   2.978   2.103   1.224 -1.2010  0.4283 -1.9502
 5850SOL     OW17930   0.325   4.420   4.935 -0.3898 -0.6241  0.3192
 5850SOL    HW117931   0.368   4.473   4.868 -1.1959  1.2086  1.2385
 5850SOL    HW217932   0.239   4.399   4.898  0.1311 -1.7804 -0.2698
 5851SOL     OW17933   0.974   5.447   0.364 -0.1015 -0.8247  0.0717
 5851SOL    HW117934   0.887   5.467   0.332  0.0122 -1.2529 -0.4895
 5851SOL    HW217935   1.033   5.480   0.296  0.1880 -0.2324  0.5992
 5852SOL     OW17936   2.262   5.914   2.686  0.6188 -0.3632 -0.1638
 5852SOL    HW117937   2.266   5.944   2.777 -1.2443  0.1648 -0.2359
 5852SOL    HW217938   2.302   5.986   2.636 -1.2202  0.7718 -0.0523
 5853SOL     OW17939   3.101   2.509   2.626  0.2585  0.4642 -0.1554
 5853SOL    HW117940   3.010   2.535   2.639 -0.3192 -2.3063  1.7539
 5853SOL    HW217941   3.099   2.413   2.624  3.1991  0.3174  0.7329
 5854SOL     OW17942   2.669   4.506   0.103  0.4577  0.1713 -0.0527
 5854SOL    HW117943   2.584   4.528   0.066  0.6170  1.5834  0.4011
 5854SOL    HW217944   2.733   4.542   0.042  0.7489 -1.5155 -0.7667
 5855SOL     OW17945   5.843   2.147   1.681 -0.1662 -0.6098 -0.5808
 5855SOL    HW117946   5.780   2.111   1.618 -0.3459 -1.6279  0.1578
 5855SOL    HW217947   5.881   2.069   1.723  0.7045  0.0303 -0.1701
 5856SOL     OW17948   2.319   5.391   3.717 -0.2990 -0.2668  0.1559
 5856SOL    HW117949   2.395   5.373   3.661 -0.5018  1.0038 -0.5371
 5856SOL    HW217950   2.330   5.482   3.742 -2.1186  0.2040 -0.7251
 5857SOL     OW17951   0.253   2.724   2.993 -0.1837 -0.1039 -0.1921
 5857SOL    HW117952   0.297   2.668   2.929  0.6945 -0.8773  1.0854
 5857SOL    HW217953   0.307   2.803   2.998 -0.4613  0.1248 -0.6611
 5858SOL     OW17954   2.020   1.961   6.206 -0.0716  0.2668 -0.2238
 5858SOL    HW117955   2.057   2.002   6.128 -1.1977 -0.4321 -1.1401
 5858SOL    HW217956   2.089   1.968   6.272  1.6942 -1.0436 -1.9051
 5859SOL     OW17957   3.807   3.559   4.340 -1.0051  0.0059 -0.2870
 5859SOL    HW117958   3.763   3.474   4.345 -0.1025 -0.3149  3.6209
 5859SOL    HW217959   3.898   3.538   4.322 -0.9314  0.1840 -0.1274
 5860SOL     OW17960   5.105   2.735   4.861 -0.0662 -0.4038 -0.1390
 5860SOL    HW117961   5.096   2.773   4.948 -2.3892 -1.0271 -0.0596
 5860SOL    HW217962   5.106   2.641   4.876  0.6233 -0.4855 -0.6981
 5861SOL     OW17963   5.592   1.337   5.333 -0.3445  0.6077  1.1459
 5861SOL    HW117964   5.512   1.290   5.354 -0.4380 -0.0073 -0.4746
 5861SOL    HW217965   5.563   1.422   5.302 -0.4440  0.0721 -0.2805
 5862SOL     OW17966   5.600   1.880   3.439 -0.8303  0.2649  0.8686
 5862SOL    HW117967   5.580   1.903   3.349  1.1792  0.9510  0.5702
 5862SOL    HW217968   5.604   1.963   3.486  0.0772  0.0809  1.1459
 5863SOL     OW17969   1.474   1.058   6.228  0.3174  0.3434  0.1420
 5863SOL    HW117970   1.384   1.028   6.211  0.6951  0.1315 -1.5525
 5863SOL    HW217971   1.527   0.979   6.223  0.8435  0.7460 -0.7579
 5864SOL     OW17972   4.028   0.362   3.126 -0.1095 -0.2452  0.5984
 5864SOL    HW117973   3.951   0.315   3.094 -0.1652  0.1797  0.1062
 5864SOL    HW217974   3.995   0.419   3.195 -0.1717 -0.3411  0.6481
 5865SOL     OW17975   3.315   0.927   4.226 -0.1416 -0.4543 -0.2561
 5865SOL    HW117976   3.274   0.863   4.168 -1.1190  0.5209 -0.6540
 5865SOL    HW217977   3.374   0.977   4.170 -0.6435  0.1013 -0.2894
 5866SOL     OW17978   4.759   0.668   4.964  0.3434 -0.0299  0.3584
 5866SOL    HW117979   4.790   0.694   4.877  0.6424  0.7044  0.6865
 5866SOL    HW217980   4.807   0.723   5.025  0.5109 -0.9038  1.0277
 5867SOL     OW17981   3.099   1.014   5.476 -0.0330  0.0721  0.3532
 5867SOL    HW117982   3.036   1.017   5.404 -1.2352  1.5335  1.4393
 5867SOL    HW217983   3.182   1.041   5.435 -0.3962 -0.4648 -0.7678
 5868SOL     OW17984   5.578   1.432   1.725 -0.3998  0.0492 -0.5491
 5868SOL    HW117985   5.506   1.400   1.779 -1.1593 -0.6165 -1.9313
 5868SOL    HW217986   5.577   1.375   1.648 -0.2083  1.8421 -1.8987
 5869SOL     OW17987   2.110   1.091   0.279  0.6838 -0.3635 -0.0905
 5869SOL    HW117988   2.069   1.087   0.193  2.2933 -0.5392 -0.8695
 5869SOL    HW217989   2.163   1.011   0.284  1.3196  0.0968  0.6890
 5870SOL     OW17990   1.254   2.542   0.014 -0.3794  0.3400  0.3913
 5870SOL    HW117991   1.301   2.485  -0.048  0.0892 -1.7046  2.5615
 5870SOL    HW217992   1.318   2.606   0.042 -0.0215  0.0232  0.3032
 5871SOL     OW17993   0.078   1.561   1.852  0.1393  0.2889 -0.2452
 5871SOL    HW117994   0.034   1.541   1.770 -0.0757 -0.3276  0.0126
 5871SOL    HW217995   0.007   1.585   1.912 -0.0187 -2.0659  0.5678
 5872SOL     OW17996   0.475   4.617   1.471 -0.4583  0.7282  0.0139
 5872SOL    HW117997   0.568   4.620   1.494 -0.3847 -0.8499  0.0100
 5872SOL    HW217998   0.433   4.677   1.532  0.1681 -0.9494  2.1766
 5873SOL     OW17999   2.677   2.501   0.041  0.3720  0.0476  0.1400
 5873SOL    HW118000   2.760   2.492  -0.005  1.0439 -1.0967  1.5309
 5873SOL    HW218001   2.701   2.528   0.130 -0.7173 -0.4999  0.6105
 5874SOL     OW18002   0.749   4.092   2.797  0.0883  0.3953  0.5793
 5874SOL    HW118003   0.717   4.010   2.834  0.6661  0.4464  1.2078
 5874SOL    HW218004   0.727   4.158   2.862  1.2333  0.4648  0.9200
 5875SOL     OW18005   6.181   2.470   4.884  0.8466 -0.0734 -0.2578
 5875SOL    HW118006   6.097   2.507   4.858  0.7265 -1.6295 -2.2346
 5875SOL    HW218007   6.245   2.515   4.829  1.2384  0.5471  0.6875
 5876SOL     OW18008   5.912   3.163   4.763 -0.1011  0.5239  0.3683
 5876SOL    HW118009   5.952   3.220   4.697  0.6597  0.6516  0.9307
 5876SOL    HW218010   5.981   3.101   4.786 -0.5958  0.0221  0.5167
 5877SOL     OW18011   1.234   0.712   0.231 -0.1757  0.0978 -0.2345
 5877SOL    HW118012   1.195   0.787   0.275  0.9016  1.7058 -1.9529
 5877SOL    HW218013   1.170   0.641   0.243 -1.4129  1.3947  1.0170
 5878SOL     OW18014   5.392   2.300   5.427  0.8218 -0.3994 -0.0386
 5878SOL    HW118015   5.458   2.347   5.375  0.2180  0.0910 -0.3607
 5878SOL    HW218016   5.420   2.208   5.423  0.9928 -0.3139 -0.9185
 5879SOL     OW18017   4.456   2.851   3.671  0.1300 -0.4084 -0.0262
 5879SOL    HW118018   4.536   2.799   3.671  0.0159 -0.5824  0.1679
 5879SOL    HW218019   4.486   2.940   3.692  0.4075 -0.2615 -1.0055
 5880SOL     OW18020   1.161   2.733   2.606 -0.2019 -0.2842  0.1323
 5880SOL    HW118021   1.233   2.684   2.565 -1.0642 -0.3368 -1.3429
 5880SOL    HW218022   1.103   2.666   2.642 -0.8770 -0.3224 -1.0215
 5881SOL     OW18023   1.278   6.320   2.487 -0.1345 -0.6779  0.0024
 5881SOL    HW118024   1.183   6.332   2.482 -0.2411 -2.1481 -2.2343
 5881SOL    HW218025   1.303   6.364   2.568 -2.5861  0.5848  0.1330
 5882SOL     OW18026   1.470   0.313   1.718 -0.6363  0.2600 -0.6765
 5882SOL    HW118027   1.412   0.368   1.665 -1.1220  0.5087  0.1070
 5882SOL    HW218028   1.501   0.371   1.788 -0.0955 -0.0951 -0.6211
 5883SOL     OW18029   3.913   1.693   2.143  0.0189  0.7870  0.3792
 5883SOL    HW118030   3.983   1.627   2.144 -1.5011 -0.9234 -1.2517
 5883SOL    HW218031   3.878   1.688   2.054 -2.9699  0.7705  1.5153
 5884SOL     OW18032   1.727   2.355   2.926  0.4298 -0.2274 -0.1854
 5884SOL    HW118033   1.646   2.344   2.876 -0.9495  0.1029  1.9145
 5884SOL    HW218034   1.794   2.312   2.873 -1.1128 -0.5097 -1.9524
 5885SOL     OW18035   1.783   3.371   1.406  0.5294 -0.2434 -0.0240
 5885SOL    HW118036   1.801   3.410   1.491  0.4997 -1.3672  0.4990
 5885SOL    HW218037   1.834   3.424   1.344 -0.7905  1.6418  0.4724
 5886SOL     OW18038   1.595   0.639   2.309  0.1434  0.1846 -0.4480
 5886SOL    HW118039   1.609   0.550   2.341 -3.1381  0.7952  3.1032
 5886SOL    HW218040   1.668   0.689   2.347 -0.2565 -0.2728  0.9554
 5887SOL     OW18041   0.571   1.438   6.347  0.2075  0.0512  0.4897
 5887SOL    HW118042   0.666   1.439   6.340  0.0963  2.3489 -1.1891
 5887SOL    HW218043   0.549   1.512   6.403 -0.6109 -0.5246  0.9600
 5888SOL     OW18044   2.026   3.872   5.963 -0.4537 -0.0279 -0.7319
 5888SOL    HW118045   2.025   3.959   5.923 -0.3486  0.3148  0.0053
 5888SOL    HW218046   2.065   3.885   6.050  0.1370 -0.9100 -0.8479
 5889SOL     OW18047   3.029   5.084   1.228  0.1788 -0.6116 -0.3845
 5889SOL    HW118048   3.039   5.087   1.323 -0.6214  0.5376 -0.3287
 5889SOL    HW218049   3.110   5.042   1.197  0.0274 -1.8511  0.8554
 5890SOL     OW18050   5.101   5.917   1.369 -0.1860 -0.0830  0.1395
 5890SOL    HW118051   5.114   5.826   1.396  1.5906  0.1906  0.3127
 5890SOL    HW218052   5.142   5.922   1.283  0.5834  0.7733  0.5452
 5891SOL     OW18053   0.203   3.849   6.052 -0.4163 -0.1205  0.1818
 5891SOL    HW118054   0.136   3.815   5.993 -0.1364  0.8016 -0.6777
 5891SOL    HW218055   0.174   3.938   6.072  0.2826  0.1073  0.2067
 5892SOL     OW18056   5.137   6.316   2.852  0.0426  0.3649 -0.5157
 5892SOL    HW118057   5.210   6.263   2.884  0.8994  0.8808 -1.5998
 5892SOL    HW218058   5.107   6.364   2.929  1.3408  0.7228 -0.2226
 5893SOL     OW18059   0.147   6.296   6.277  0.3707  0.2225  0.0441
 5893SOL    HW118060   0.092   6.372   6.298  0.7753  1.0926 -1.9920
 5893SOL    HW218061   0.173   6.261   6.363 -1.7058  0.9944  1.0217
 5894SOL     OW18062   5.103   1.166   4.428 -0.0129 -0.0010 -0.3634
 5894SOL    HW118063   5.121   1.099   4.494 -0.7466  1.2792  1.1824
 5894SOL    HW218064   5.168   1.234   4.445 -2.0733  1.7009  1.0456
 5895SOL     OW18065   1.740   5.259   5.846  0.3290 -0.2550 -0.0243
 5895SOL    HW118066   1.789   5.315   5.786 -2.3251 -0.8713 -2.8766
 5895SOL    HW218067   1.685   5.319   5.897  0.9803  0.0847  0.2884
 5896SOL     OW18068   0.255   3.214   2.756  0.3649 -0.0532 -0.5447
 5896SOL    HW118069   0.316   3.200   2.829  1.5471 -1.6569 -1.7953
 5896SOL    HW218070   0.310   3.211   2.678 -0.7298  2.8054 -1.4713
 5897SOL     OW18071   5.210   3.437   2.432  0.0676  0.2731 -0.4293
 5897SOL    HW118072   5.198   3.525   2.395  0.3616  1.1762  1.5451
 5897SOL    HW218073   5.121   3.405   2.449  0.0069  1.6587  2.1182
 5898SOL     OW18074   3.008   5.992   5.630  0.1147  0.7349 -0.2427
 5898SOL    HW118075   3.066   6.040   5.571 -0.7779  0.7115 -1.1417
 5898SOL    HW218076   2.959   5.932   5.573  1.2848 -1.3462  0.8599
 5899SOL     OW18077   0.849   1.015   2.401 -0.5300 -0.0913  0.0948
 5899SOL    HW118078   0.883   1.080   2.464 -1.1544 -0.9614  1.3625
 5899SOL    HW218079   0.810   1.068   2.332  2.1152  0.9136 -0.7000
 5900SOL     OW18080   5.193   0.029   4.540 -0.4822 -0.1328 -0.5564
 5900SOL    HW118081   5.246  -0.049   4.556 -0.5223  0.0144  0.2798
 5900SOL    HW218082   5.257   0.099   4.526 -0.4522 -0.0359  0.0594
 5901SOL     OW18083   0.296   4.370   4.479 -0.6457  0.5766 -0.0433
 5901SOL    HW118084   0.370   4.342   4.426 -1.7248 -1.4096 -0.5666
 5901SOL    HW218085   0.220   4.329   4.437 -1.8345  1.1925  1.4524
 5902SOL     OW18086   2.400   3.715   5.263 -0.1476 -0.3689  0.5983
 5902SOL    HW118087   2.371   3.756   5.181 -2.4007 -3.4711 -0.2425
 5902SOL    HW218088   2.348   3.759   5.331 -1.2655 -0.6020 -0.0899
 5903SOL     OW18089   1.945   4.076   1.036  0.3439  0.6268 -0.2759
 5903SOL    HW118090   1.959   4.161   0.995  0.7196  1.2884  1.2008
 5903SOL    HW218091   1.956   4.013   0.965 -0.1658  1.8173 -1.4266
 5904SOL     OW18092   3.882   0.639   1.056  0.1862  0.0932 -0.1691
 5904SOL    HW118093   3.976   0.633   1.036  0.2795  0.9800  0.0097
 5904SOL    HW218094   3.840   0.585   0.989  0.9867 -2.2078  1.1361
 5905SOL     OW18095   1.937   3.881   3.105 -0.1755 -0.3390  0.2179
 5905SOL    HW118096   1.979   3.879   3.019  0.0461 -2.0247  0.3547
 5905SOL    HW218097   1.879   3.957   3.101 -0.3302 -0.5226 -1.4997
 5906SOL     OW18098   2.616   0.593   2.365 -0.2576 -0.6159  0.0347
 5906SOL    HW118099   2.520   0.591   2.365 -0.4076  2.3183 -2.4055
 5906SOL    HW218100   2.639   0.645   2.443 -0.7665  0.3498 -0.4443
 5907SOL     OW18101   0.781   4.959   0.637  0.5060 -0.1731 -0.1356
 5907SOL    HW118102   0.787   4.917   0.722  1.1007 -0.4043 -0.2847
 5907SOL    HW218103   0.800   4.889   0.574  0.7265  0.1390 -0.4243
 5908SOL     OW18104   3.803   3.442   5.468  0.0944 -0.4190  0.6628
 5908SOL    HW118105   3.792   3.480   5.555 -0.1172 -1.8228  1.2458
 5908SOL    HW218106   3.815   3.349   5.483  0.6691 -0.5892 -0.7771
 5909SOL     OW18107   3.419   1.685   4.256 -0.4179  0.0947 -0.0241
 5909SOL    HW118108   3.463   1.613   4.301  0.5942  0.0717 -1.0241
 5909SOL    HW218109   3.402   1.750   4.325 -1.0063 -0.9313  0.8114
 5910SOL     OW18110   1.411   3.340   3.854  0.2360  0.0189 -0.6617
 5910SOL    HW118111   1.428   3.256   3.897 -0.0692  1.1647  1.7642
 5910SOL    HW218112   1.427   3.405   3.922 -0.8159  1.8564 -2.1470
 5911SOL     OW18113   2.817   3.502   4.243 -0.0130  0.4863 -0.2349
 5911SOL    HW118114   2.830   3.522   4.150  0.6436  0.9588 -0.0432
 5911SOL    HW218115   2.800   3.408   4.245 -0.7814  0.6055 -0.9079
 5912SOL     OW18116   2.030   0.377   5.337 -0.3376 -0.2551  0.7739
 5912SOL    HW118117   1.970   0.302   5.324 -1.3126  0.5076  0.8012
 5912SOL    HW218118   1.975   0.454   5.321  1.3078  0.4230 -1.8409
 5913SOL     OW18119   3.884   4.974   0.229 -0.0812 -0.1650 -0.2012
 5913SOL    HW118120   3.948   4.909   0.259  1.3688  0.5253 -1.7078
 5913SOL    HW218121   3.810   4.965   0.290  1.2040 -1.3661  1.2224
 5914SOL     OW18122   3.358   4.109   5.282  0.3739  0.4444  0.7170
 5914SOL    HW118123   3.336   4.174   5.349 -0.4644  1.6610 -0.7036
 5914SOL    HW218124   3.273   4.076   5.251  0.6738  1.2839 -1.0636
 5915SOL     OW18125   2.552   2.444   2.907  0.3180 -0.2447 -0.4578
 5915SOL    HW118126   2.509   2.427   2.991  2.2201  0.8579  0.7815
 5915SOL    HW218127   2.487   2.419   2.841 -1.1026 -1.4012  1.3306
 5916SOL     OW18128   5.424   1.217   4.714  0.6867 -0.0875  0.5856
 5916SOL    HW118129   5.408   1.292   4.771 -0.9941 -0.6563  0.8856
 5916SOL    HW218130   5.467   1.153   4.769 -1.3084 -0.7970  1.3547
 5917SOL     OW18131   0.325   4.070   0.251 -0.0997 -0.0418  0.5639
 5917SOL    HW118132   0.320   4.150   0.199 -1.7834 -0.9539 -0.7439
 5917SOL    HW218133   0.418   4.061   0.273  0.4314  1.1035 -1.1220
 5918SOL     OW18134   3.045   4.395   4.652  0.5291  0.1907  0.1679
 5918SOL    HW118135   3.121   4.453   4.644 -0.0098  0.9789  0.6490
 5918SOL    HW218136   2.984   4.443   4.708 -0.4793 -0.2743 -0.5140
 5919SOL     OW18137   3.627   4.919   0.342 -0.4741  0.0322  0.4104
 5919SOL    HW118138   3.534   4.938   0.347 -0.5563 -0.4246  0.6927
 5919SOL    HW218139   3.636   4.833   0.383  0.2497  0.6500  1.5763
 5920SOL     OW18140   3.852   0.936   4.964  0.5512  0.3908  0.2519
 5920SOL    HW118141   3.778   0.877   4.977  1.0577 -0.2115  0.4139
 5920SOL    HW218142   3.888   0.911   4.879 -1.0173  2.4210 -1.0297
 5921SOL     OW18143   1.011   0.240   2.794 -0.2228 -0.4644 -0.6892
 5921SOL    HW118144   1.081   0.176   2.806 -1.6131 -1.9701 -0.3892
 5921SOL    HW218145   0.967   0.243   2.879 -0.2682  0.7889 -0.7500
 5922SOL     OW18146   3.810   5.078   0.889 -0.0407  0.0777 -0.6723
 5922SOL    HW118147   3.840   4.988   0.904 -0.0899  0.2766  0.6660
 5922SOL    HW218148   3.726   5.069   0.844 -0.3384 -0.5528  0.0159
 5923SOL     OW18149   4.815   3.345   5.310  0.1152 -0.2243 -0.0274
 5923SOL    HW118150   4.817   3.372   5.402 -1.0285 -1.2301  0.3102
 5923SOL    HW218151   4.907   3.338   5.285  0.4441 -0.5698  1.2421
 5924SOL     OW18152   0.366   2.057   1.295 -0.4651  0.2475  0.3807
 5924SOL    HW118153   0.289   2.112   1.312 -0.1357  0.9523 -0.3383
 5924SOL    HW218154   0.426   2.115   1.248  0.5077 -0.2958  0.9340
 5925SOL     OW18155   1.149   5.547   3.804  0.6036 -0.3650 -0.8013
 5925SOL    HW118156   1.118   5.539   3.713  2.1728  0.2560 -1.4065
 5925SOL    HW218157   1.242   5.569   3.796  0.2982  1.7052  0.9409
 5926SOL     OW18158   5.514   0.059   4.529  0.0968 -0.0917 -0.2655
 5926SOL    HW118159   5.483  -0.007   4.590  0.0786  1.0914  1.0242
 5926SOL    HW218160   5.475   0.141   4.559  0.6318  0.6246 -1.4537
 5927SOL     OW18161   1.075   2.380   4.255 -0.6539 -0.2430 -0.4574
 5927SOL    HW118162   1.121   2.303   4.222  1.0689  0.0324  1.2023
 5927SOL    HW218163   0.990   2.347   4.283 -0.2185 -1.4012 -0.4739
 5928SOL     OW18164   5.230   5.547   5.032 -0.6147  0.4966  0.0052
 5928SOL    HW118165   5.160   5.579   5.089 -0.3980  0.7375  0.1358
 5928SOL    HW218166   5.189   5.542   4.945 -0.7397  0.8195  0.0444
 5929SOL     OW18167   6.256   5.057   2.464  0.1898 -0.2773 -0.5269
 5929SOL    HW118168   6.236   4.970   2.499 -0.4659  0.3153  0.5638
 5929SOL    HW218169   6.351   5.063   2.469  0.2171 -0.8274 -0.3414
 5930SOL     OW18170   5.511   0.063   0.836 -0.8867  0.4172  0.6149
 5930SOL    HW118171   5.504   0.072   0.931 -0.9447  0.1290  0.6384
 5930SOL    HW218172   5.433   0.106   0.802  0.7539  3.4287  0.5293
 5931SOL     OW18173   6.260   6.216   1.237 -0.1156  0.2983  0.2504
 5931SOL    HW118174   6.180   6.167   1.254  0.4724 -0.4899  0.8203
 5931SOL    HW218175   6.311   6.207   1.318  0.3117  1.2407  0.0941
 5932SOL     OW18176   4.970   1.215   1.932 -0.6976  0.1531  0.2992
 5932SOL    HW118177   5.045   1.224   1.990 -1.0476 -1.6491  1.0727
 5932SOL    HW218178   4.922   1.298   1.942  0.6954  0.9432  0.4892
 5933SOL     OW18179   4.434   4.067   0.010  0.3266 -0.1624  0.2728
 5933SOL    HW118180   4.401   4.000  -0.049 -0.0077  0.0181  0.2522
 5933SOL    HW218181   4.528   4.051   0.015  0.6961  1.0538 -1.8922
 5934SOL     OW18182   2.001   2.383   1.849 -0.2643 -0.0829 -0.4835
 5934SOL    HW118183   2.073   2.392   1.786 -0.2161 -0.7376 -0.5284
 5934SOL    HW218184   1.953   2.305   1.819  0.9080 -1.5930  1.4131
 5935SOL     OW18185   2.303   5.444   4.668  0.3588 -0.2445 -0.7888
 5935SOL    HW118186   2.237   5.452   4.600 -0.3981 -0.0888 -0.0486
 5935SOL    HW218187   2.281   5.363   4.713 -0.2707  0.5926  0.4419
 5936SOL     OW18188   2.898   3.170   0.930  0.6077 -0.9644 -0.3730
 5936SOL    HW118189   2.873   3.124   0.850  0.4032  1.3333 -1.6629
 5936SOL    HW218190   2.980   3.214   0.908 -0.5667  1.4671 -0.0400
 5937SOL     OW18191   2.845   3.993   5.781 -0.3335  0.4153  0.4757
 5937SOL    HW118192   2.926   4.038   5.804 -0.5638  1.2982 -0.4133
 5937SOL    HW218193   2.840   3.920   5.842  1.2643  0.1959  0.3549
 5938SOL     OW18194   3.159   4.275   2.545 -0.1083  0.2845  0.6263
 5938SOL    HW118195   3.206   4.269   2.461 -1.4796 -0.4159 -0.1062
 5938SOL    HW218196   3.177   4.364   2.576  0.4515  0.5348 -0.3760
 5939SOL     OW18197   2.420   5.568   2.118 -0.2942 -0.1931 -0.3941
 5939SOL    HW118198   2.444   5.611   2.037 -2.2488 -0.6311 -1.2383
 5939SOL    HW218199   2.398   5.479   2.092 -0.9851 -0.3198  0.5988
 5940SOL     OW18200   2.596   2.038   2.173 -0.3032 -0.2503  0.6897
 5940SOL    HW118201   2.546   2.097   2.230 -0.2697 -0.2452  0.7140
 5940SOL    HW218202   2.670   2.091   2.142 -1.8473  0.6015 -1.6122
 5941SOL     OW18203   3.027   3.314   4.356  0.0675 -0.1556  0.2573
 5941SOL    HW118204   2.944   3.307   4.309  0.6596  0.7264 -0.9520
 5941SOL    HW218205   3.055   3.224   4.370  0.1454 -0.4219 -1.5783
 5942SOL     OW18206   4.862   6.291   3.305 -0.0128  0.2340  0.5437
 5942SOL    HW118207   4.942   6.255   3.267  0.9342  1.9367  0.8625
 5942SOL    HW218208   4.793   6.229   3.281  1.2528 -0.7786 -0.5100
 5943SOL     OW18209   5.443   3.247   4.803  0.1089  0.2296 -0.1021
 5943SOL    HW118210   5.519   3.215   4.755 -0.6725 -1.8198 -0.0454
 5943SOL    HW218211   5.369   3.199   4.765 -1.0254  1.4523  0.5186
 5944SOL     OW18212   1.136   4.136   1.451  0.2335  0.1538  0.5486
 5944SOL    HW118213   1.153   4.127   1.545 -1.3063 -0.6146  0.7719
 5944SOL    HW218214   1.166   4.053   1.413  0.4103  0.2679  0.4433
 5945SOL     OW18215   0.325   5.505   2.108  0.0909 -0.8972 -0.2687
 5945SOL    HW118216   0.235   5.536   2.114  0.0318 -0.6759 -2.2629
 5945SOL    HW218217   0.371   5.572   2.057  1.2776 -1.2647  0.2863
 5946SOL     OW18218   6.270   2.468   3.739  0.0975  0.0522  0.1799
 5946SOL    HW118219   6.260   2.396   3.677 -0.7399 -1.5162  2.0747
 5946SOL    HW218220   6.299   2.426   3.820 -0.5429  1.8292  1.3707
 5947SOL     OW18221   3.820   5.962   0.847 -1.2410  0.0923  0.0185
 5947SOL    HW118222   3.841   6.031   0.910  0.5583  0.8581 -1.3820
 5947SOL    HW218223   3.862   5.884   0.882  1.7596  1.0319 -1.3947
 5948SOL     OW18224   3.241   2.069   2.644  0.0023  0.1559 -0.2611
 5948SOL    HW118225   3.198   1.984   2.634 -0.3468  0.1057  1.5144
 5948SOL    HW218226   3.170   2.130   2.666  0.2189  0.9641 -1.6910
 5949SOL     OW18227   0.776   4.855   3.791 -0.2240 -0.0419 -0.4936
 5949SOL    HW118228   0.696   4.803   3.783  1.0695 -1.9042 -1.9963
 5949SOL    HW218229   0.807   4.866   3.701  1.9869 -0.6641  0.1393
 5950SOL     OW18230   3.033   2.200   4.539  0.2592 -0.9850  0.3402
 5950SOL    HW118231   3.111   2.255   4.535  0.8946 -1.9686 -0.8690
 5950SOL    HW218232   3.000   2.198   4.449 -0.8749 -1.0086  0.7397
 5951SOL     OW18233   3.293   1.806   2.316 -0.2401 -0.4050 -0.9655
 5951SOL    HW118234   3.361   1.745   2.288  0.2164  0.3456 -1.5159
 5951SOL    HW218235   3.325   1.892   2.289 -1.4947 -0.0612 -1.4086
 5952SOL     OW18236   3.249   3.684   2.271  0.1627  0.1196  0.0203
 5952SOL    HW118237   3.173   3.626   2.267 -0.1593  0.5816 -0.6856
 5952SOL    HW218238   3.291   3.674   2.186 -0.3183  1.4739 -0.3912
 5953SOL     OW18239   4.192   3.387   6.203 -0.2392  0.2705  0.3854
 5953SOL    HW118240   4.136   3.333   6.146 -0.7802  0.9118  0.3097
 5953SOL    HW218241   4.133   3.420   6.270 -0.2341  2.0175 -0.4362
 5954SOL     OW18242   6.318   0.975   1.603  0.0223 -0.2446 -0.3542
 5954SOL    HW118243   6.271   0.963   1.520  1.6422  0.9835 -1.4675
 5954SOL    HW218244   6.268   0.923   1.666 -1.9632 -0.1805 -1.8263
 5955SOL     OW18245   2.500   2.367   0.322 -0.1931 -0.6776  0.5467
 5955SOL    HW118246   2.517   2.437   0.259 -0.2552  0.5751  1.8774
 5955SOL    HW218247   2.436   2.311   0.279  3.0479 -2.3626 -2.2710
 5956SOL     OW18248   0.576   5.877   4.658  0.7111 -0.2192 -0.1166
 5956SOL    HW118249   0.555   5.908   4.570  0.3243  0.9109  0.3605
 5956SOL    HW218250   0.516   5.805   4.673  0.4136 -0.0685 -0.5764
 5957SOL     OW18251   2.694   1.114   0.546  0.2593 -0.1356 -0.3969
 5957SOL    HW118252   2.662   1.024   0.545 -0.6511  0.1652  0.5453
 5957SOL    HW218253   2.788   1.107   0.533 -0.0776 -1.0867 -2.4469
 5958SOL     OW18254   5.421   6.245   3.347  0.0287  0.0178  0.3556
 5958SOL    HW118255   5.445   6.221   3.436 -1.8696 -2.9466  0.1356
 5958SOL    HW218256   5.498   6.224   3.294  1.0998  1.6331  1.2304
 5959SOL     OW18257   0.818   0.024   3.317 -0.3915 -0.2330  0.3517
 5959SOL    HW118258   0.768  -0.053   3.291 -1.4980 -0.0621  1.9354
 5959SOL    HW218259   0.786   0.094   3.260 -0.3673 -0.6160 -0.1397
 5960SOL     OW18260   4.816   2.810   0.396  0.2660 -0.3614  0.3916
 5960SOL    HW118261   4.823   2.717   0.374  0.4860 -0.1241 -0.5435
 5960SOL    HW218262   4.728   2.835   0.368  0.1718 -0.3074  0.7299
 5961SOL     OW18263   2.777   5.456   3.389  0.0352 -0.7088 -0.5310
 5961SOL    HW118264   2.686   5.468   3.363  0.1190 -0.3876 -0.6788
 5961SOL    HW218265   2.816   5.407   3.316  0.3151  0.3497 -1.1093
 5962SOL     OW18266   3.012   3.463   2.153 -0.0528  1.4273  0.0826
 5962SOL    HW118267   2.957   3.525   2.104 -0.9121  1.9746  1.7159
 5962SOL    HW218268   3.020   3.388   2.094 -2.6852  1.2855 -0.1887
 5963SOL     OW18269   5.597   3.554   0.219 -0.5923  0.1645  0.0113
 5963SOL    HW118270   5.571   3.619   0.154  2.5690  0.8979 -0.6009
 5963SOL    HW218271   5.521   3.544   0.275 -2.8210  0.7751 -2.7871
 5964SOL     OW18272   1.279   5.187   0.298  0.4644  0.2097 -0.5991
 5964SOL    HW118273   1.320   5.184   0.385 -0.7340  0.1796 -0.0252
 5964SOL    HW218274   1.299   5.275   0.266  1.4823 -0.0100 -0.5767
 5965SOL     OW18275   2.889   0.065   2.213  0.1389  0.2219  0.0489
 5965SOL    HW118276   2.949   0.017   2.155 -2.0571 -0.8924 -1.3780
 5965SOL    HW218277   2.846  -0.004   2.264 -0.8279  0.8993  0.1513
 5966SOL     OW18278   0.578   3.480   4.809 -0.2180  0.3992  0.5454
 5966SOL    HW118279   0.527   3.552   4.773  0.4469  0.8176  0.4304
 5966SOL    HW218280   0.655   3.475   4.753  0.0821  0.0560  0.9834
 5967SOL     OW18281   1.294   1.138   2.752  0.6258 -0.3213 -0.6247
 5967SOL    HW118282   1.254   1.191   2.821 -0.4921  0.4627 -1.8445
 5967SOL    HW218283   1.338   1.068   2.799 -0.1698  0.1539  0.8932
 5968SOL     OW18284   1.565   6.363   4.843  0.0106 -0.5069  0.3130
 5968SOL    HW118285   1.628   6.291   4.842 -0.1976 -0.6861  0.2429
 5968SOL    HW218286   1.583   6.408   4.925  0.6658 -0.1747 -0.0083
 5969SOL     OW18287   3.124   4.861   3.218  0.2965  0.1723  0.5137
 5969SOL    HW118288   3.103   4.793   3.153 -2.3026  0.3217  1.1271
 5969SOL    HW218289   3.042   4.874   3.265  2.0729  0.2686  3.6716
 5970SOL     OW18290   3.773   4.270   1.427 -0.1211  0.0246 -0.3151
 5970SOL    HW118291   3.832   4.291   1.499 -1.6927 -0.3160  1.0911
 5970SOL    HW218292   3.704   4.336   1.431 -1.1270 -0.9896 -0.4515
 5971SOL     OW18293   4.464   3.700   4.215 -0.2917  0.1602  0.0216
 5971SOL    HW118294   4.470   3.678   4.122 -0.5850  0.1731 -0.0006
 5971SOL    HW218295   4.392   3.764   4.220  0.7612  1.3538  0.0450
 5972SOL     OW18296   2.106   5.782   4.058  0.0394 -0.4112  0.1897
 5972SOL    HW118297   2.179   5.843   4.067 -0.9333  0.9507 -1.0896
 5972SOL    HW218298   2.070   5.775   4.146 -0.2301  1.3421  0.2322
 5973SOL     OW18299   1.881   5.320   0.916  0.1412 -0.1330  0.1151
 5973SOL    HW118300   1.903   5.230   0.895  0.5962  0.4295 -1.8979
 5973SOL    HW218301   1.946   5.373   0.869 -1.5706  1.3207 -0.6606
 5974SOL     OW18302   4.179   1.353   2.711 -0.7094 -0.1119  0.1128
 5974SOL    HW118303   4.240   1.379   2.780 -0.6092 -0.8378  0.2997
 5974SOL    HW218304   4.191   1.418   2.642  0.5918 -0.4920 -0.0275
 5975SOL     OW18305   2.633   6.314   1.428 -0.3645  0.2076 -0.5444
 5975SOL    HW118306   2.558   6.313   1.368 -1.7365  1.1452  1.1350
 5975SOL    HW218307   2.618   6.239   1.486 -1.0930  1.5612  1.0703
 5976SOL     OW18308   1.341   4.900   5.112  0.2375 -0.2775  0.5347
 5976SOL    HW118309   1.318   4.816   5.072 -1.1791 -0.9406  2.6307
 5976SOL    HW218310   1.286   4.964   5.066  1.8166 -0.3521 -1.5366
 5977SOL     OW18311   1.135   4.792   6.118  0.2417 -0.0035 -0.3123
 5977SOL    HW118312   1.185   4.710   6.122 -0.7757 -0.5613  3.5216
 5977SOL    HW218313   1.180   4.850   6.179 -1.0943  1.0642 -0.3198
 5978SOL     OW18314   2.743   1.749   2.917  0.7651  0.3592 -0.1739
 5978SOL    HW118315   2.782   1.705   2.993  1.1163 -0.9104 -1.0544
 5978SOL    HW218316   2.734   1.679   2.852  0.5128  1.4296 -1.3079
 5979SOL     OW18317   2.992   1.472   0.389  0.0696  0.4168 -0.8432
 5979SOL    HW118318   2.925   1.535   0.363  0.3010  0.1476 -2.1450
 5979SOL    HW218319   3.041   1.454   0.309  2.3386  1.3478  0.2702
 5980SOL     OW18320   1.355   2.213   6.059  0.0192  0.1510 -0.0162
 5980SOL    HW118321   1.322   2.195   6.147  1.1163 -1.8091  0.0145
 5980SOL    HW218322   1.316   2.145   6.004 -0.2653  1.0634 -0.9695
 5981SOL     OW18323   3.602   2.972   1.270  0.1137  0.0376  0.4186
 5981SOL    HW118324   3.592   2.877   1.267  0.2180 -0.0079  1.2595
 5981SOL    HW218325   3.610   2.992   1.363 -1.8968  1.0759  0.4000
 5982SOL     OW18326   2.393   0.116   5.528 -0.1325 -0.2506  0.0232
 5982SOL    HW118327   2.388   0.083   5.439  1.8421  0.1611 -0.2739
 5982SOL    HW218328   2.332   0.190   5.529 -0.9061 -0.8669 -0.6923
 5983SOL     OW18329   0.523   2.681   0.668  0.3712  0.7208 -0.1407
 5983SOL    HW118330   0.571   2.615   0.619  0.7545  0.4781  0.5573
 5983SOL    HW218331   0.589   2.723   0.723 -0.2332  0.2779  0.9410
 5984SOL     OW18332   5.626   3.124   3.064  0.4368 -0.3579  0.3773
 5984SOL    HW118333   5.631   3.054   3.129 -1.0324 -0.0542  0.8285
 5984SOL    HW218334   5.717   3.153   3.052  0.9795 -1.9515  0.6041
 5985SOL     OW18335   1.821   4.626   2.513  0.4461 -0.2104 -0.0085
 5985SOL    HW118336   1.728   4.644   2.505  0.1276 -2.0888 -0.8260
 5985SOL    HW218337   1.826   4.546   2.566  1.5841 -0.0600  0.1278
 5986SOL     OW18338   2.613   4.921   1.568  0.3125 -0.5694 -0.0010
 5986SOL    HW118339   2.574   4.994   1.617 -0.2717 -1.8251  1.4292
 5986SOL    HW218340   2.585   4.936   1.478 -0.8986  0.2732  0.4899
 5987SOL     OW18341   0.043   5.491   2.417 -0.5842 -0.1533  0.0433
 5987SOL    HW118342   0.035   5.566   2.476  1.0295  1.4622 -1.7020
 5987SOL    HW218343   0.103   5.431   2.462  0.3768  0.9121  0.2123
 5988SOL     OW18344   3.626   1.433   2.390  0.8615  0.0950 -0.1275
 5988SOL    HW118345   3.667   1.350   2.411 -0.4964 -0.6501 -0.4118
 5988SOL    HW218346   3.646   1.447   2.297 -0.3962 -0.7769 -0.5374
 5989SOL     OW18347   1.793   3.511   2.501  0.0173 -0.1255 -0.0967
 5989SOL    HW118348   1.789   3.606   2.507  0.2453 -0.1460  0.3799
 5989SOL    HW218349   1.701   3.483   2.502 -0.0220  0.0192  0.9287
 5990SOL     OW18350   0.426   4.812   2.295  0.3381 -0.2385  0.4472
 5990SOL    HW118351   0.493   4.875   2.322 -0.7820  1.1854 -0.0689
 5990SOL    HW218352   0.438   4.738   2.355  0.9079  0.9329  1.8125
 5991SOL     OW18353   5.837   0.073   4.435  0.1836 -0.7574 -0.4626
 5991SOL    HW118354   5.924   0.089   4.398  0.4549 -1.3686 -0.0978
 5991SOL    HW218355   5.844   0.101   4.526 -0.3212  0.2102 -0.7097
 5992SOL     OW18356   5.024   5.617   4.114 -0.0490  0.1001 -0.5032
 5992SOL    HW118357   5.116   5.633   4.136 -0.1036 -0.0414 -0.1726
 5992SOL    HW218358   4.982   5.599   4.198 -0.0900 -1.3190 -0.8128
 5993SOL     OW18359   2.513   1.741   4.647 -0.0977  0.6972  0.2725
 5993SOL    HW118360   2.454   1.812   4.672  0.4137  0.5114  2.0736
 5993SOL    HW218361   2.601   1.780   4.651  0.1674  0.0273  1.0595
 5994SOL     OW18362   0.580   0.854   0.226 -0.1450 -0.1181 -0.0632
 5994SOL    HW118363   0.556   0.842   0.134 -0.8861 -1.4822  0.2928
 5994SOL    HW218364   0.503   0.825   0.275  0.8540 -1.0037  1.0220
 5995SOL     OW18365   5.723   2.829   6.170 -0.0463  0.2239  0.0342
 5995SOL    HW118366   5.814   2.845   6.195  0.2036 -0.0888 -0.6756
 5995SOL    HW218367   5.704   2.896   6.104  0.7869 -1.8752 -2.4360
 5996SOL     OW18368   3.623   0.052   5.469 -0.6300 -0.5240  0.3208
 5996SOL    HW118369   3.562   0.003   5.524  1.2261 -2.5270  0.6476
 5996SOL    HW218370   3.636  -0.003   5.392 -0.1655  0.4539 -0.3129
 5997SOL     OW18371   6.327   5.452   1.371 -0.5123 -0.0005  0.0606
 5997SOL    HW118372   6.252   5.428   1.426 -0.7864  0.6807 -0.0123
 5997SOL    HW218373   6.404   5.428   1.423 -0.7753 -0.4010  0.2705
 5998SOL     OW18374   3.337   0.393   6.240  0.0334 -0.6323 -0.0353
 5998SOL    HW118375   3.413   0.451   6.249  2.4401 -3.9039  2.1132
 5998SOL    HW218376   3.344   0.359   6.150  1.7315 -1.6270  0.4398
 5999SOL     OW18377   0.655   2.361   0.216  0.0608 -0.0190  0.3716
 5999SOL    HW118378   0.654   2.278   0.265  1.3102  0.2539  0.8645
 5999SOL    HW218379   0.595   2.417   0.264 -0.2438 -0.4031  0.4471
 6000SOL     OW18380   3.005   4.274   6.256 -0.4267  0.0247 -0.3104
 6000SOL    HW118381   2.947   4.263   6.181  1.3434  0.4701 -1.7947
 6000SOL    HW218382   3.087   4.232   6.229 -0.1679 -0.9713  1.8876
 6001SOL     OW18383   4.133   0.722   4.051  0.3975  0.2707  0.5139
 6001SOL    HW118384   4.083   0.647   4.020 -0.4645  0.7030  0.8340
 6001SOL    HW218385   4.221   0.708   4.017 -0.0937 -0.1806 -0.6180
 6002SOL     OW18386   0.091   4.445   3.252 -0.2548  0.4117  0.4791
 6002SOL    HW118387   0.082   4.513   3.318  0.0954 -0.7542  1.7486
 6002SOL    HW218388   0.006   4.443   3.208 -0.8448  0.4547  1.6176
 6003SOL     OW18389   2.564   2.007   0.068 -0.4595  0.1183  0.7861
 6003SOL    HW118390   2.532   2.093   0.041  0.4055  0.7842  1.7981
 6003SOL    HW218391   2.609   2.024   0.151  0.5198 -1.1607  0.5304
 6004SOL     OW18392   1.118   5.381   0.585  0.0168  0.0362 -0.3975
 6004SOL    HW118393   1.063   5.385   0.507  1.1537  1.9691 -1.1254
 6004SOL    HW218394   1.063   5.419   0.654 -0.2681  0.1215 -0.6688
 6005SOL     OW18395   2.761   5.751   2.351  0.0214  0.3656  0.1665
 6005SOL    HW118396   2.703   5.676   2.365 -1.1001  1.0135 -1.0169
 6005SOL    HW218397   2.734   5.815   2.417 -0.7826  0.7668 -0.5507
 6006SOL     OW18398   3.875   1.263   1.094 -0.0648  0.0863  0.5849
 6006SOL    HW118399   3.781   1.283   1.088 -0.4082 -2.1082 -2.2882
 6006SOL    HW218400   3.909   1.283   1.007  1.8128 -0.7054  1.1186
 6007SOL     OW18401   0.762   4.091   4.729  0.0049  0.5070 -0.0436
 6007SOL    HW118402   0.780   4.177   4.691 -0.9983  0.4243 -0.7261
 6007SOL    HW218403   0.682   4.062   4.684 -0.9437  0.2102  1.8213
 6008SOL     OW18404   3.205   2.488   0.407 -0.3179 -0.1944 -0.1633
 6008SOL    HW118405   3.196   2.580   0.381  0.6143 -0.1572 -0.3746
 6008SOL    HW218406   3.213   2.491   0.502 -2.5486 -0.2378  0.0360
 6009SOL     OW18407   2.768   1.904   1.260  0.1375  0.2983  0.1454
 6009SOL    HW118408   2.809   1.980   1.302  0.7826 -0.1131  0.2706
 6009SOL    HW218409   2.774   1.834   1.324 -0.0831  0.0261 -0.1274
 6010SOL     OW18410   3.646   3.092   2.709  0.3105 -0.0292  0.7178
 6010SOL    HW118411   3.560   3.052   2.695  0.4918 -0.4615  0.8475
 6010SOL    HW218412   3.634   3.184   2.683  0.1657 -0.4009 -0.5719
 6011SOL     OW18413   2.964   0.250   2.387 -0.3278  0.0893  0.3166
 6011SOL    HW118414   2.925   0.335   2.367 -0.7349 -0.1602  0.0218
 6011SOL    HW218415   2.927   0.191   2.321  1.1078 -0.0110 -0.4273
 6012SOL     OW18416   5.284   0.687   2.141 -0.0768  0.9936 -0.2264
 6012SOL    HW118417   5.246   0.654   2.222 -0.5788  0.9872 -0.4663
 6012SOL    HW218418   5.239   0.770   2.125 -1.4188  0.0299 -1.5692
 6013SOL     OW18419   4.878   6.056   1.473  0.3517 -0.1727  0.0411
 6013SOL    HW118420   4.972   6.043   1.465  0.6181  1.6070  0.1242
 6013SOL    HW218421   4.840   6.000   1.405  1.5679  0.4190 -1.1369
 6014SOL     OW18422   1.868   1.801   6.032 -0.2730 -0.2908  0.0694
 6014SOL    HW118423   1.919   1.818   6.111  0.5517  0.2457 -0.5651
 6014SOL    HW218424   1.846   1.888   5.998 -0.0401 -0.5098 -0.6626
 6015SOL     OW18425   4.773   5.482   5.415  0.1121 -0.1391 -0.1118
 6015SOL    HW118426   4.776   5.570   5.453  0.4041 -0.3876  0.4584
 6015SOL    HW218427   4.862   5.468   5.383  0.5501 -0.9152  1.4078
 6016SOL     OW18428   4.695   4.040   4.035 -0.5190 -0.1550  0.3377
 6016SOL    HW118429   4.744   4.113   4.071 -0.7326  1.0136 -1.6702
 6016SOL    HW218430   4.724   4.033   3.944 -1.6377 -1.5638  0.0566
 6017SOL     OW18431   0.058   1.112   2.535  0.4059 -0.0793 -0.0072
 6017SOL    HW118432   0.108   1.031   2.548  0.1973 -0.3155 -0.6617
 6017SOL    HW218433   0.038   1.112   2.441  0.6040  0.8441 -0.0460
 6018SOL     OW18434   4.309   3.917   6.198 -0.5299  0.0796 -0.1334
 6018SOL    HW118435   4.249   3.874   6.259  0.0731 -1.4042 -0.5515
 6018SOL    HW218436   4.271   3.901   6.112 -0.9476  1.4626 -0.2154
 6019SOL     OW18437   4.465   0.759   4.537  0.1763 -0.3933  0.3897
 6019SOL    HW118438   4.391   0.700   4.552 -0.7351  0.5063 -0.4649
 6019SOL    HW218439   4.543   0.704   4.549 -0.6398 -1.5927  0.3041
 6020SOL     OW18440   2.499   4.263   0.227  0.3872  0.1713 -0.6549
 6020SOL    HW118441   2.513   4.205   0.303 -1.0050  1.1318  0.3608
 6020SOL    HW218442   2.423   4.225   0.183  0.2004  0.5577 -0.6582
 6021SOL     OW18443   4.637   2.155   0.005 -0.2074 -0.4963  0.5051
 6021SOL    HW118444   4.575   2.086   0.031  2.7477 -4.1576 -1.6978
 6021SOL    HW218445   4.707   2.150   0.070 -0.3728  1.0447  0.8173
 6022SOL     OW18446   3.136   1.234   1.883 -0.4680  0.4036 -0.2834
 6022SOL    HW118447   3.180   1.163   1.836 -0.1895  1.2058 -1.2600
 6022SOL    HW218448   3.044   1.224   1.860 -0.3326  0.7902 -1.0070
 6023SOL     OW18449   0.802   4.196   5.268 -0.3602  0.1308  0.2492
 6023SOL    HW118450   0.815   4.291   5.272  2.5365 -0.1076 -1.7751
 6023SOL    HW218451   0.885   4.159   5.299 -0.0267 -1.6717 -2.5969
 6024SOL     OW18452   0.047   6.025   1.070  0.0403  0.1989 -0.2997
 6024SOL    HW118453   0.050   6.024   0.974 -0.3705  1.0312 -0.3210
 6024SOL    HW218454  -0.041   5.993   1.091 -0.9332  2.7640 -0.2747
 6025SOL     OW18455   3.116   3.003   6.084 -0.3293  0.6996  1.0131
 6025SOL    HW118456   3.128   2.991   5.990  1.3378  2.1979  1.0246
 6025SOL    HW218457   3.057   2.932   6.109  1.6748 -1.6032 -0.5988
 6026SOL     OW18458   3.782   1.822   3.831  0.5156  0.4833 -0.3597
 6026SOL    HW118459   3.818   1.834   3.919  1.3698  0.4664 -0.6953
 6026SOL    HW218460   3.770   1.727   3.823 -0.9382  0.6042  0.2583
 6027SOL     OW18461   0.166   6.318   5.942 -0.0946 -0.1500  0.1001
 6027SOL    HW118462   0.239   6.294   5.999 -0.6484 -0.3588  0.7226
 6027SOL    HW218463   0.112   6.376   5.995  0.4936  1.3756 -0.9248
 6028SOL     OW18464   3.964   2.501   2.216  0.0025 -0.4874  0.0334
 6028SOL    HW118465   3.938   2.558   2.288 -0.0643 -0.7545  0.2168
 6028SOL    HW218466   3.956   2.556   2.138  1.3667  0.2303  0.3705
 6029SOL     OW18467   0.197   6.004   2.016 -0.6526  0.2875  0.3977
 6029SOL    HW118468   0.165   5.968   1.933  0.0164 -1.6451  0.9454
 6029SOL    HW218469   0.201   6.098   2.002 -1.9673  0.1081 -1.2733
 6030SOL     OW18470   0.041   4.030   3.970 -0.7235  0.2113  0.7881
 6030SOL    HW118471   0.064   4.097   3.904 -2.3432  1.1141  1.1198
 6030SOL    HW218472   0.109   4.040   4.037  1.2173 -1.0220 -0.9207
 6031SOL     OW18473   0.591   2.705   5.250  0.4963  0.2016  0.5544
 6031SOL    HW118474   0.584   2.697   5.345  0.1857 -3.2071  0.3383
 6031SOL    HW218475   0.678   2.672   5.230 -0.2829 -1.2831 -0.4919
 6032SOL     OW18476   4.174   4.722   6.132 -0.0776  0.3436 -0.0021
 6032SOL    HW118477   4.167   4.655   6.200 -0.8568  1.6839  1.2786
 6032SOL    HW218478   4.097   4.709   6.077 -0.1335  0.0658  0.1435
 6033SOL     OW18479   0.556   1.930   6.204  0.3574 -0.2067 -0.8245
 6033SOL    HW118480   0.636   1.938   6.256  0.6438 -0.0962 -1.2736
 6033SOL    HW218481   0.499   1.873   6.256 -0.7158  2.6432  1.1860
 6034SOL     OW18482   1.727   2.557   4.557 -0.4523  0.2171  0.1817
 6034SOL    HW118483   1.645   2.509   4.555 -0.7651  0.7708 -0.6218
 6034SOL    HW218484   1.750   2.561   4.650 -1.2141 -0.1349  0.3906
 6035SOL     OW18485   0.146   3.438   4.283 -0.0070  0.0384  0.1426
 6035SOL    HW118486   0.167   3.508   4.345  0.6697  0.8617 -0.9998
 6035SOL    HW218487   0.100   3.482   4.211  0.7236 -0.6072 -0.7424
 6036SOL     OW18488   5.514   0.000   1.556 -0.1906  0.2764 -0.1061
 6036SOL    HW118489   5.482  -0.085   1.526 -0.3198 -0.3316  1.6918
 6036SOL    HW218490   5.555  -0.018   1.640  0.4657  1.8772 -0.0589
 6037SOL     OW18491   6.109   1.823   3.736 -0.0367  0.0342  0.3035
 6037SOL    HW118492   6.015   1.835   3.723 -0.3643 -2.7932 -0.1199
 6037SOL    HW218493   6.117   1.775   3.818  0.9836 -0.4922 -0.0853
 6038SOL     OW18494   1.986   6.083   2.275 -0.0530 -0.0393  0.6614
 6038SOL    HW118495   2.013   6.174   2.286 -0.7498  0.1790  0.5542
 6038SOL    HW218496   1.893   6.088   2.252 -0.0077 -0.7617  0.3219
 6039SOL     OW18497   1.266   5.396   1.663  0.1192  0.5608 -0.1551
 6039SOL    HW118498   1.257   5.322   1.604 -1.4971 -0.1389  0.9262
 6039SOL    HW218499   1.252   5.473   1.608  1.6505  0.0791 -1.2491
 6040SOL     OW18500   4.151   2.708   0.089 -0.5793  0.5535  0.4203
 6040SOL    HW118501   4.176   2.793   0.126  2.0937 -0.0211  0.0624
 6040SOL    HW218502   4.130   2.654   0.166  2.0905  0.2426  0.9922
 6041SOL     OW18503   6.167   6.019   2.011 -0.4931 -0.1584 -0.3455
 6041SOL    HW118504   6.174   6.106   2.050 -0.4293  0.1709 -1.0917
 6041SOL    HW218505   6.074   6.009   1.989 -0.8139 -0.9640  1.3070
 6042SOL     OW18506   3.551   2.463   3.359 -0.0756 -0.0344  0.0320
 6042SOL    HW118507   3.528   2.375   3.330 -1.6256  0.0752  0.8930
 6042SOL    HW218508   3.592   2.503   3.282  2.1481 -2.0224  0.1053
 6043SOL     OW18509   4.578   4.421   1.316 -0.1627 -0.1324 -0.5385
 6043SOL    HW118510   4.633   4.499   1.328 -1.2550  0.3807  1.3733
 6043SOL    HW218511   4.538   4.433   1.230 -0.5594  1.5940 -0.1397
 6044SOL     OW18512   5.407   4.013   0.971 -0.7657 -0.2706 -0.1693
 6044SOL    HW118513   5.475   4.000   0.905 -1.9859  0.5990 -1.6436
 6044SOL    HW218514   5.381   3.924   0.997  1.1360 -0.6092  0.6665
 6045SOL     OW18515   0.390   5.037   6.198 -0.3418  0.1471  0.0617
 6045SOL    HW118516   0.351   4.962   6.154  1.2751 -0.5464 -0.2169
 6045SOL    HW218517   0.434   5.086   6.128  0.5597  0.1097  0.6003
 6046SOL     OW18518   4.225   0.982   2.785  0.1358 -0.2235  0.6190
 6046SOL    HW118519   4.177   0.991   2.703 -2.3129 -0.3466  1.9883
 6046SOL    HW218520   4.290   1.053   2.783 -0.6029  0.4233 -0.9512
 6047SOL     OW18521   0.926   4.280   4.063  0.3630 -0.2528 -0.1334
 6047SOL    HW118522   0.934   4.266   3.969 -3.3315 -0.1471 -0.5181
 6047SOL    HW218523   0.927   4.192   4.101  0.0417 -0.3868 -0.4380
 6048SOL     OW18524   3.204   6.257   2.341  0.3977  0.0748  0.0827
 6048SOL    HW118525   3.259   6.180   2.325 -1.3771 -0.7755 -2.1823
 6048SOL    HW218526   3.125   6.241   2.290 -0.7811  2.5814  1.0474
 6049SOL     OW18527   3.997   5.496   0.893  0.4713  0.2337 -0.0384
 6049SOL    HW118528   4.043   5.545   0.824 -0.6519  2.3943  0.6950
 6049SOL    HW218529   3.966   5.417   0.849  1.0597  0.8719 -1.6533
 6050SOL     OW18530   0.591   3.542   3.755 -0.2438  0.8011 -0.5405
 6050SOL    HW118531   0.609   3.630   3.724 -3.4223  1.2365 -1.3132
 6050SOL    HW218532   0.515   3.513   3.705  0.3231 -2.1301  0.1682
 6051SOL     OW18533   3.965   0.183   5.142  0.2766  0.5119  0.4106
 6051SOL    HW118534   3.950   0.274   5.168  0.8951  0.9228 -0.6597
 6051SOL    HW218535   4.049   0.185   5.096 -0.1218 -0.4559 -0.3619
 6052SOL     OW18536   4.972   3.902   1.281 -0.0514 -0.0039 -0.3514
 6052SOL    HW118537   4.975   3.835   1.213  1.4840 -0.6685  0.3442
 6052SOL    HW218538   4.901   3.874   1.339  0.2014 -0.7286 -0.3811
 6053SOL     OW18539   3.015   6.191   6.317 -0.4690 -0.3922  0.1912
 6053SOL    HW118540   2.958   6.143   6.378 -1.7918  2.6694  1.4712
 6053SOL    HW218541   3.091   6.216   6.371 -0.0962 -0.4648 -0.2978
 6054SOL     OW18542   4.109   4.319   5.278 -0.1732 -0.0456  0.0341
 6054SOL    HW118543   4.020   4.355   5.278 -0.0202  0.5382  3.5485
 6054SOL    HW218544   4.163   4.392   5.308  1.3717 -0.7023 -1.1081
 6055SOL     OW18545   0.937   0.334   5.821  0.7280 -0.2312  0.3042
 6055SOL    HW118546   0.880   0.279   5.767 -0.3627  1.4632 -0.3101
 6055SOL    HW218547   1.025   0.321   5.785  0.3892 -1.0814 -0.2333
 6056SOL     OW18548   2.262   2.045   0.508 -0.6414 -0.8095  0.7700
 6056SOL    HW118549   2.204   2.060   0.434  1.0707  2.8544  0.0586
 6056SOL    HW218550   2.223   2.096   0.580 -0.2163 -1.1962  1.2782
 6057SOL     OW18551   2.675   3.311   1.036  0.1182 -0.2251 -0.2986
 6057SOL    HW118552   2.683   3.389   0.980 -0.0817 -0.1827 -0.2665
 6057SOL    HW218553   2.762   3.271   1.033 -0.0226 -0.4877 -1.0323
 6058SOL     OW18554   5.110   4.693   3.128 -0.5711 -0.1258 -0.2733
 6058SOL    HW118555   5.177   4.651   3.181 -0.1274  1.2340  0.2696
 6058SOL    HW218556   5.054   4.621   3.098  0.9524 -1.2248 -0.4975
 6059SOL     OW18557   3.913   5.747   0.994 -0.1379 -0.1444  0.3947
 6059SOL    HW118558   3.939   5.660   0.961 -0.0635 -0.3840  1.0858
 6059SOL    HW218559   3.992   5.782   1.034  0.4574  1.2119 -1.8987
 6060SOL     OW18560   5.383   1.130   0.508 -0.6973  0.2511  0.1275
 6060SOL    HW118561   5.449   1.197   0.491  0.0828 -1.0869 -2.3063
 6060SOL    HW218562   5.393   1.067   0.436 -2.3670 -1.7324  1.5634
 6061SOL     OW18563   0.922   1.455   0.922 -0.2188  0.1552 -0.0641
 6061SOL    HW118564   1.014   1.480   0.924  0.2760 -1.5100 -0.3581
 6061SOL    HW218565   0.922   1.363   0.949 -1.6532 -0.2090 -1.2314
 6062SOL     OW18566   4.977   4.692   6.248 -0.4762  0.0881  0.0915
 6062SOL    HW118567   5.069   4.677   6.272 -0.7261  0.4547  1.2974
 6062SOL    HW218568   4.981   4.753   6.174  0.2629 -0.2292 -0.1410
 6063SOL     OW18569   3.729   5.013   3.779 -0.0994 -0.1981  0.1554
 6063SOL    HW118570   3.801   5.066   3.814 -0.0421  0.0300 -0.3058
 6063SOL    HW218571   3.770   4.955   3.716 -0.6410  1.5376 -1.8571
 6064SOL     OW18572   2.552   5.187   1.667  0.3552  0.5006 -0.0860
 6064SOL    HW118573   2.482   5.166   1.605 -0.7116  0.3659  1.1355
 6064SOL    HW218574   2.578   5.276   1.644 -1.6803  1.3610  0.7505
 6065SOL     OW18575   6.374   4.921   4.854 -0.1342  0.0452 -0.4784
 6065SOL    HW118576   6.338   4.848   4.805  0.1053  0.7462 -1.7274
 6065SOL    HW218577   6.466   4.899   4.866 -0.6399 -1.0635  1.4341
 6066SOL     OW18578   6.362   1.376   1.493 -0.7745  0.3712  0.0318
 6066SOL    HW118579   6.346   1.292   1.450 -0.7465  0.0268  0.6767
 6066SOL    HW218580   6.457   1.383   1.498 -0.7438  1.0937 -1.2574
 6067SOL     OW18581   3.263   1.628   3.870 -0.1443  0.2889  0.4241
 6067SOL    HW118582   3.343   1.601   3.824  0.1897 -0.6833  1.5560
 6067SOL    HW218583   3.228   1.699   3.817  1.5038  0.7627 -0.0653
 6068SOL     OW18584   5.357   5.495   5.259  0.4748  0.1757 -0.1919
 6068SOL    HW118585   5.446   5.519   5.233  0.4344  1.3997  0.8051
 6068SOL    HW218586   5.307   5.497   5.177  0.9277  1.4817 -0.4460
 6069SOL     OW18587   5.355   3.387   5.311  0.1444 -0.2664 -0.7589
 6069SOL    HW118588   5.400   3.334   5.245 -0.2911  0.1888 -1.4184
 6069SOL    HW218589   5.398   3.472   5.306 -0.2966 -0.0514 -0.8719
 6070SOL     OW18590   1.887   4.846   5.844 -0.1504  0.0378  0.2069
 6070SOL    HW118591   1.871   4.843   5.749  0.0671  0.7073  0.1511
 6070SOL    HW218592   1.799   4.851   5.882 -0.2545 -0.5223  0.0587
 6071SOL     OW18593   3.422   6.219   1.499 -0.4608 -0.1462 -0.2268
 6071SOL    HW118594   3.429   6.229   1.594 -0.6385  3.8778 -0.5452
 6071SOL    HW218595   3.509   6.241   1.466 -0.7027 -0.4644 -1.0875
 6072SOL     OW18596   5.348   4.943   5.036  0.3033  0.1492  0.2841
 6072SOL    HW118597   5.318   5.027   5.001  1.4816  1.0659  1.4018
 6072SOL    HW218598   5.397   4.902   4.964 -0.2637  0.4238 -0.2581
 6073SOL     OW18599   4.284   3.526   0.941 -0.4335  0.1677 -0.1981
 6073SOL    HW118600   4.200   3.484   0.959 -0.5681  0.4934 -0.0725
 6073SOL    HW218601   4.346   3.480   0.997 -0.6064  0.2316  0.0466
 6074SOL     OW18602   2.559   0.357   3.573  0.6268  0.3494 -0.0350
 6074SOL    HW118603   2.521   0.335   3.488  0.3004  1.6597 -0.2383
 6074SOL    HW218604   2.624   0.289   3.589 -1.6612 -1.8265  0.2345
 6075SOL     OW18605   2.231   0.925   4.192 -0.0278  0.7473  0.5583
 6075SOL    HW118606   2.217   1.016   4.217  0.5171  1.0975 -0.4041
 6075SOL    HW218607   2.317   0.903   4.229  0.2872  0.9305 -0.0639
 6076SOL     OW18608   5.950   3.136   1.723  0.5075 -0.5466 -0.4389
 6076SOL    HW118609   5.873   3.092   1.686  0.0180  0.1172 -0.2376
 6076SOL    HW218610   5.948   3.114   1.816 -0.4826  0.9291 -0.0866
 6077SOL     OW18611   0.141   5.345   1.206 -0.0157  0.2016 -0.9510
 6077SOL    HW118612   0.057   5.385   1.228  0.3251 -0.1346  1.0519
 6077SOL    HW218613   0.200   5.375   1.275  1.1869 -0.6204 -1.6097
 6078SOL     OW18614   4.082   3.081   4.046 -0.5621 -0.7238 -0.4907
 6078SOL    HW118615   4.174   3.087   4.019 -0.4476  0.3983  0.1463
 6078SOL    HW218616   4.038   3.047   3.968  0.2742 -0.5382 -1.0631
 6079SOL     OW18617   3.421   5.877   3.792 -0.8465 -0.0214 -0.4768
 6079SOL    HW118618   3.498   5.825   3.815 -0.9622 -0.2106 -0.5211
 6079SOL    HW218619   3.363   5.869   3.868 -0.4894  0.7563 -0.1170
 6080SOL     OW18620   3.742   3.622   3.481 -0.0589 -0.0286  0.7270
 6080SOL    HW118621   3.739   3.552   3.547  1.1253 -1.2906 -0.5351
 6080SOL    HW218622   3.671   3.601   3.421 -0.3882  0.4674  0.9405
 6081SOL     OW18623   4.298   3.695   5.808 -0.2793  0.6282 -0.1020
 6081SOL    HW118624   4.368   3.641   5.844 -2.2437 -1.3668  0.8506
 6081SOL    HW218625   4.250   3.726   5.885 -1.6541  0.2653 -0.7857
 6082SOL     OW18626   0.685   1.687   5.673  0.1764 -0.0127  0.1330
 6082SOL    HW118627   0.600   1.690   5.717  0.3957 -1.1462  0.6457
 6082SOL    HW218628   0.669   1.723   5.586 -0.6982  0.3292  0.4358
 6083SOL     OW18629   3.294   1.236   3.610  1.3105 -0.4363  0.4749
 6083SOL    HW118630   3.360   1.305   3.621  0.5477  0.2077  1.1524
 6083SOL    HW218631   3.239   1.244   3.688 -1.0956  0.7220 -1.2678
 6084SOL     OW18632   1.341   4.771   4.593 -0.3344  1.0112  0.1568
 6084SOL    HW118633   1.394   4.700   4.629 -0.6885  0.7306  0.1205
 6084SOL    HW218634   1.357   4.769   4.499 -1.0142  0.4288  0.0507
 6085SOL     OW18635   2.451   0.236   0.044  0.0358 -0.1933 -0.2348
 6085SOL    HW118636   2.367   0.256   0.004 -0.4551  0.0090  0.8766
 6085SOL    HW218637   2.458   0.141   0.040  0.1986 -0.1439 -1.2034
 6086SOL     OW18638   2.822   1.695   0.343  0.5324 -0.4519 -0.3822
 6086SOL    HW118639   2.762   1.766   0.322  1.0521  0.2092  0.3758
 6086SOL    HW218640   2.909   1.730   0.325  0.8246 -0.7277  0.4776
 6087SOL     OW18641   4.448   1.021   1.478 -0.1713  0.7203 -0.4021
 6087SOL    HW118642   4.363   1.016   1.522  0.2441 -1.4183  0.2274
 6087SOL    HW218643   4.442   0.957   1.407  1.3121 -0.3524  0.4046
 6088SOL     OW18644   0.408   1.739   1.586 -0.0617 -0.6990 -0.7257
 6088SOL    HW118645   0.444   1.770   1.503  1.0249  1.3901  0.4758
 6088SOL    HW218646   0.484   1.733   1.644 -1.1340  0.4072  0.8445
 6089SOL     OW18647   0.119   0.964   2.801 -0.3716  0.2666 -0.5685
 6089SOL    HW118648   0.064   0.902   2.850  0.1059 -0.1355 -0.5386
 6089SOL    HW218649   0.208   0.934   2.817 -0.1047  1.2915 -0.1063
 6090SOL     OW18650   5.280   5.677   1.349  0.0872 -0.3269  0.5460
 6090SOL    HW118651   5.297   5.583   1.359  1.8637  0.0471  1.3557
 6090SOL    HW218652   5.280   5.692   1.254  1.2588 -0.9176  0.4447
 6091SOL     OW18653   5.282   1.948   0.259  0.3211  0.3011 -0.1961
 6091SOL    HW118654   5.262   1.900   0.339  0.9191 -0.8242 -0.6981
 6091SOL    HW218655   5.247   2.035   0.273  0.7128  0.2033  1.4148
 6092SOL     OW18656   5.197   2.498   4.693  0.3622  0.0605 -0.0977
 6092SOL    HW118657   5.190   2.486   4.788  0.2954  0.2400 -0.0782
 6092SOL    HW218658   5.140   2.431   4.656  1.7603 -1.1598 -0.0752
 6093SOL     OW18659   1.639   4.968   3.711 -0.2015  0.4006  0.0621
 6093SOL    HW118660   1.666   5.060   3.711  0.9867  0.0567 -0.5012
 6093SOL    HW218661   1.562   4.966   3.653 -0.6194  1.1425  0.5803
 6094SOL     OW18662   3.450   1.068   3.851 -0.0785 -0.1037  0.4437
 6094SOL    HW118663   3.405   0.984   3.864 -0.1115 -0.3619 -1.2241
 6094SOL    HW218664   3.441   1.113   3.935 -0.0164 -1.7812  1.3825
 6095SOL     OW18665   1.267   3.516   2.883 -0.1057 -0.1619 -0.3250
 6095SOL    HW118666   1.216   3.534   2.804  0.1150 -1.4867 -0.7774
 6095SOL    HW218667   1.253   3.423   2.900  0.7175 -0.1292  0.5756
 6096SOL     OW18668   1.396   4.471   3.646  0.2942 -0.1027  0.2607
 6096SOL    HW118669   1.426   4.471   3.737 -0.3452 -2.8341  0.5285
 6096SOL    HW218670   1.380   4.378   3.627  0.3312  0.4484 -2.6125
 6097SOL     OW18671   1.336   3.449   6.025 -0.0321 -0.0260  0.5753
 6097SOL    HW118672   1.403   3.469   6.090 -0.6453  1.4726  0.7724
 6097SOL    HW218673   1.253   3.454   6.074 -0.3914 -0.3679  0.0085
 6098SOL     OW18674   3.709   5.973   4.344 -0.5152  0.3835  0.3847
 6098SOL    HW118675   3.648   5.900   4.337  1.0844 -0.9655  0.2815
 6098SOL    HW218676   3.674   6.027   4.416 -1.3827 -0.7741  0.8459
 6099SOL     OW18677   2.596   3.130   0.704  0.5253  0.0854 -0.1031
 6099SOL    HW118678   2.631   3.062   0.648 -0.1084  0.6969 -1.2479
 6099SOL    HW218679   2.566   3.084   0.783  0.4371 -0.8980 -0.7111
 6100SOL     OW18680   0.182   2.059   4.727 -0.4456  0.3955  0.1124
 6100SOL    HW118681   0.270   2.036   4.696 -0.1835  1.2923  0.1920
 6100SOL    HW218682   0.197   2.121   4.798 -1.1420  0.4016  0.2541
 6101SOL     OW18683   4.780   4.486   4.491  0.2860  0.0322 -0.0961
 6101SOL    HW118684   4.778   4.524   4.404 -0.0150  2.1985  0.8194
 6101SOL    HW218685   4.697   4.513   4.531 -0.3142 -2.3124  0.3039
 6102SOL     OW18686   3.644   1.801   2.555  0.5098  0.4755 -0.3765
 6102SOL    HW118687   3.576   1.737   2.574  1.2619 -0.2639 -0.1415
 6102SOL    HW218688   3.652   1.852   2.636  1.9263 -1.0216  0.4613
 6103SOL     OW18689   6.270   2.859   2.824 -0.1709  0.3960 -0.2411
 6103SOL    HW118690   6.343   2.808   2.859  0.1872  0.5749 -0.7157
 6103SOL    HW218691   6.254   2.821   2.737 -1.6406 -0.6370  0.4553
 6104SOL     OW18692   3.736   5.548   4.980  0.2810 -0.1067 -0.0799
 6104SOL    HW118693   3.660   5.515   4.931  0.0320 -0.7084  0.6887
 6104SOL    HW218694   3.803   5.480   4.969  0.6515  0.3435 -0.6154
 6105SOL     OW18695   2.506   4.389   0.629  0.0520  0.2470 -0.0855
 6105SOL    HW118696   2.479   4.478   0.651  0.5458  0.7621 -1.5435
 6105SOL    HW218697   2.480   4.337   0.705  0.0214  1.6790  0.9054
 6106SOL     OW18698   0.234   3.449   0.501  0.2728 -0.2087 -0.0475
 6106SOL    HW118699   0.163   3.493   0.454  0.3869  0.1701  0.1274
 6106SOL    HW218700   0.292   3.416   0.433 -0.3988 -1.0638 -0.2027
 6107SOL     OW18701   3.971   5.731   1.537 -0.7381 -0.3102  0.3589
 6107SOL    HW118702   3.988   5.798   1.604 -1.7636  1.5245 -1.1423
 6107SOL    HW218703   3.900   5.768   1.485 -0.4141 -1.9989 -1.3153
 6108SOL     OW18704   3.527   1.896   3.769  0.0418 -0.4520 -0.1169
 6108SOL    HW118705   3.621   1.884   3.761 -0.0548 -0.2752 -1.6672
 6108SOL    HW218706   3.505   1.861   3.856  1.6381  0.2865  0.5918
 6109SOL     OW18707   5.335   3.903   3.231  0.1978  0.0324  0.5476
 6109SOL    HW118708   5.303   3.816   3.205  0.5606  0.4889 -1.5422
 6109SOL    HW218709   5.258   3.947   3.268 -0.5278 -0.4606 -0.3286
 6110SOL     OW18710   4.965   1.846   0.759 -0.0955  0.8652 -0.4967
 6110SOL    HW118711   5.054   1.848   0.795 -0.5150 -0.2917  0.6442
 6110SOL    HW218712   4.909   1.828   0.835 -1.4095  2.5467 -1.0293
 6111SOL     OW18713   3.880   2.237   3.497 -0.4083  0.6254 -0.1349
 6111SOL    HW118714   3.866   2.240   3.591  0.1916 -0.3410 -0.0086
 6111SOL    HW218715   3.974   2.222   3.487 -0.6318 -0.3440 -0.8643
 6112SOL     OW18716   3.373   5.185   0.258  0.4261  0.0396  0.0599
 6112SOL    HW118717   3.282   5.201   0.233  0.3478 -0.8592 -0.2473
 6112SOL    HW218718   3.412   5.272   0.261 -0.9232  0.6060  2.0720
 6113SOL     OW18719   0.769   5.231   2.661  0.2723 -0.7449  0.3386
 6113SOL    HW118720   0.764   5.259   2.570 -0.0895 -1.7034  0.0657
 6113SOL    HW218721   0.787   5.312   2.710 -0.2839 -0.1169 -0.4950
 6114SOL     OW18722   3.428   2.837   5.942 -0.0382  0.1236 -0.7510
 6114SOL    HW118723   3.463   2.925   5.958  1.4952 -0.7175  0.6331
 6114SOL    HW218724   3.364   2.823   6.012  0.6268 -0.3174 -0.2143
 6115SOL     OW18725   4.682   0.148   4.222 -0.7422 -0.6131 -0.1213
 6115SOL    HW118726   4.626   0.123   4.296 -1.2357  0.7915  0.0047
 6115SOL    HW218727   4.771   0.147   4.257 -1.0545  0.9374  0.7661
 6116SOL     OW18728   3.317   5.022   3.081 -0.2551 -0.3580  0.4057
 6116SOL    HW118729   3.247   4.979   3.128 -1.4899  1.2688  0.1035
 6116SOL    HW218730   3.353   5.085   3.143 -1.2153  1.0784 -0.4672
 6117SOL     OW18731   0.610   5.082   0.438 -0.4285  0.6079 -0.4762
 6117SOL    HW118732   0.647   5.029   0.508 -1.3115 -0.6963 -0.9758
 6117SOL    HW218733   0.619   5.173   0.469  0.7023  0.1557  0.5695
 6118SOL     OW18734   4.210   0.660   3.016 -0.2614 -0.1420  0.2349
 6118SOL    HW118735   4.300   0.658   2.982  0.3085  0.2049  1.6824
 6118SOL    HW218736   4.221   0.669   3.110 -1.7896 -3.0827  0.7275
 6119SOL     OW18737   5.767   6.379   3.055  0.5372 -0.2768  0.8078
 6119SOL    HW118738   5.735   6.332   2.978 -0.9920 -0.7429  1.7000
 6119SOL    HW218739   5.862   6.377   3.047  0.3982 -0.6556 -0.8662
 6120SOL     OW18740   3.298   4.864   1.568  0.7272  0.2110  0.1552
 6120SOL    HW118741   3.252   4.921   1.630 -0.7600  0.2746 -0.9702
 6120SOL    HW218742   3.353   4.922   1.517  2.8089  0.0260  2.1169
 6121SOL     OW18743   1.728   6.112   2.218  0.4992 -0.4720 -0.2301
 6121SOL    HW118744   1.664   6.046   2.248 -0.2061  0.0278 -0.6174
 6121SOL    HW218745   1.680   6.164   2.154  1.4931 -0.4703 -0.9765
 6122SOL     OW18746   5.278   3.988   4.121  0.4991 -0.0032 -0.1257
 6122SOL    HW118747   5.292   3.986   4.216 -0.2271  2.8031  0.0554
 6122SOL    HW218748   5.317   4.070   4.093 -3.7880  1.6381 -1.5248
 6123SOL     OW18749   5.268   2.927   3.214  0.4762  0.0258 -0.4032
 6123SOL    HW118750   5.262   2.941   3.309 -0.9761  0.2680 -0.5211
 6123SOL    HW218751   5.296   3.011   3.180 -0.3725  0.3430 -0.3236
 6124SOL     OW18752   3.098   0.370   5.416 -0.3105  0.3467  0.1986
 6124SOL    HW118753   3.065   0.323   5.492 -0.8643  0.2555 -0.0956
 6124SOL    HW218754   3.190   0.389   5.437 -0.3195 -0.1311  0.6672
 6125SOL     OW18755   0.555   5.477   5.577  0.7095 -0.1036  0.0321
 6125SOL    HW118756   0.574   5.512   5.490 -1.0578 -0.8597 -0.6735
 6125SOL    HW218757   0.463   5.498   5.592  0.7716 -0.7434  1.3678
 6126SOL     OW18758   0.168   2.867   3.660 -0.3309  0.3801 -0.1717
 6126SOL    HW118759   0.250   2.866   3.610  0.5845  0.2845  1.3165
 6126SOL    HW218760   0.138   2.958   3.656  0.4963  0.6786  0.3227
 6127SOL     OW18761   2.604   2.819   3.217 -0.0474 -0.3886 -0.0164
 6127SOL    HW118762   2.654   2.835   3.297  0.7062 -0.1854 -0.5196
 6127SOL    HW218763   2.521   2.782   3.247  1.0823 -2.3622  0.7317
 6128SOL     OW18764   6.086   4.046   0.659  0.2875  0.1308  0.2203
 6128SOL    HW118765   6.170   4.038   0.704  0.1173  0.4660  0.6058
 6128SOL    HW218766   6.067   3.958   0.628  1.3228  0.2733 -0.8438
 6129SOL     OW18767   1.780   2.325   4.028 -0.1703 -0.4714 -0.4242
 6129SOL    HW118768   1.733   2.251   3.989 -1.8746 -0.2927  1.2273
 6129SOL    HW218769   1.838   2.356   3.958  0.7707 -3.5264 -1.0645
 6130SOL     OW18770   4.914   0.258   0.842 -0.4753 -0.4217 -0.0901
 6130SOL    HW118771   4.943   0.169   0.822 -3.2680 -1.8541  2.0028
 6130SOL    HW218772   4.873   0.289   0.761  1.1411 -0.6964 -1.0590
 6131SOL     OW18773   1.190   0.001   6.187  0.2407 -0.7012 -0.1064
 6131SOL    HW118774   1.193   0.038   6.276 -0.1369  1.9164 -1.1500
 6131SOL    HW218775   1.186   0.077   6.129 -0.5857 -2.3909 -2.3430
 6132SOL     OW18776   4.459   2.677   5.483  0.4712 -0.1163 -0.2126
 6132SOL    HW118777   4.370   2.680   5.518  0.8834 -0.2997  0.8953
 6132SOL    HW218778   4.487   2.586   5.497  1.5183  0.4038  1.2807
 6133SOL     OW18779   1.705   1.361   2.456  0.1667  0.0441  0.0667
 6133SOL    HW118780   1.752   1.418   2.516  0.2903 -0.4834  0.4761
 6133SOL    HW218781   1.767   1.290   2.436  0.1831  0.2948 -0.8003
 6134SOL     OW18782   5.764   5.424   2.778 -0.8930  0.4016  0.3004
 6134SOL    HW118783   5.847   5.377   2.767 -0.7679  0.6876 -0.0074
 6134SOL    HW218784   5.736   5.442   2.688 -0.0660  2.4482  0.4086
 6135SOL     OW18785   3.362   3.180   6.053  0.6632  0.5126  0.8772
 6135SOL    HW118786   3.453   3.150   6.044  1.2683  2.5828 -0.4018
 6135SOL    HW218787   3.337   3.155   6.142  1.7532 -1.9834  0.5285
 6136SOL     OW18788   1.355   2.669   3.901  0.0449 -0.1194  0.5593
 6136SOL    HW118789   1.374   2.578   3.878  2.9522  0.9834 -1.7532
 6136SOL    HW218790   1.407   2.685   3.979 -1.0838 -0.6610  1.4258
 6137SOL     OW18791   0.110   3.080   0.627  0.1072 -0.0477  0.0567
 6137SOL    HW118792   0.059   3.146   0.675  1.4832 -0.4762  2.1889
 6137SOL    HW218793   0.048   3.043   0.565 -0.8377  2.8776 -0.8335
 6138SOL     OW18794   4.939   1.458   3.175  0.0543  0.1814 -0.1734
 6138SOL    HW118795   4.966   1.410   3.097 -0.9172  0.3912 -0.6524
 6138SOL    HW218796   4.994   1.424   3.245  0.4472 -0.5114 -0.8187
 6139SOL     OW18797   5.442   4.825   2.330  0.3733 -0.1053  0.4425
 6139SOL    HW118798   5.523   4.833   2.379  1.4832 -1.1023 -1.1746
 6139SOL    HW218799   5.440   4.901   2.271 -0.3760  0.4645  1.1904
 6140SOL     OW18800   1.393   4.431   4.214  0.5717  0.7824 -0.0412
 6140SOL    HW118801   1.446   4.490   4.267  1.8927 -0.9400  0.6141
 6140SOL    HW218802   1.444   4.349   4.212 -0.5769  0.0954 -2.0208
 6141SOL     OW18803   5.383   2.661   3.121 -0.0892 -0.3652 -0.3605
 6141SOL    HW118804   5.357   2.751   3.141 -1.9714 -1.0465  0.4430
 6141SOL    HW218805   5.448   2.669   3.051  0.1857  1.6365  0.0899
 6142SOL     OW18806   2.348   5.184   2.744  0.1445  1.0782  0.4658
 6142SOL    HW118807   2.358   5.279   2.736  3.2958  0.9968  2.4300
 6142SOL    HW218808   2.406   5.147   2.678  0.7163  0.5514  1.2424
 6143SOL     OW18809   5.754   3.868   0.181 -0.3055 -0.4105 -0.2108
 6143SOL    HW118810   5.778   3.902   0.094  0.3757  1.4008  0.6579
 6143SOL    HW218811   5.685   3.804   0.163 -2.0296  1.8329 -1.8786
 6144SOL     OW18812   4.426   6.201   3.099 -0.3460  0.0216 -0.4170
 6144SOL    HW118813   4.476   6.237   3.173  2.3825 -1.8527 -1.2510
 6144SOL    HW218814   4.445   6.260   3.026  1.0637 -0.9551 -0.8513
 6145SOL     OW18815   6.016   5.202   5.888 -0.0420  0.2711 -0.4586
 6145SOL    HW118816   6.100   5.230   5.852  0.4317 -0.6174 -0.0590
 6145SOL    HW218817   5.987   5.130   5.832  0.2494 -0.4986  0.3730
 6146SOL     OW18818   6.125   4.025   1.946 -0.3008 -0.3105  0.1582
 6146SOL    HW118819   6.194   3.964   1.920 -1.5576 -1.4388 -0.6034
 6146SOL    HW218820   6.046   3.971   1.953 -1.3437  1.1377 -0.0309
 6147SOL     OW18821   3.694   5.912   2.487  0.3459 -0.5800 -0.2253
 6147SOL    HW118822   3.659   5.967   2.417  0.4339 -2.0942 -1.4949
 6147SOL    HW218823   3.617   5.879   2.532  0.3043  1.3429  1.1908
 6148SOL     OW18824   4.147   1.084   5.817 -0.0951  0.7326 -0.2580
 6148SOL    HW118825   4.070   1.132   5.848  0.3740  1.0145  0.4874
 6148SOL    HW218826   4.113   0.998   5.791 -0.7768  1.1115 -0.6500
 6149SOL     OW18827   3.657   6.078   2.270  0.1967 -0.3344  0.3213
 6149SOL    HW118828   3.561   6.075   2.270  0.2075 -0.7899 -1.3582
 6149SOL    HW218829   3.678   6.169   2.252  0.0851 -0.3469  0.1284
 6150SOL     OW18830   1.593   6.083   5.226 -0.0834  0.3578 -0.6668
 6150SOL    HW118831   1.654   6.079   5.300  1.5261 -0.9315 -2.0146
 6150SOL    HW218832   1.637   6.138   5.161 -0.4321 -0.4141 -1.5776
 6151SOL     OW18833   0.071   3.030   2.924  0.5822 -0.1755 -0.3831
 6151SOL    HW118834   0.122   3.018   2.844  1.1189  0.8725 -0.2083
 6151SOL    HW218835  -0.018   3.006   2.900  0.8402 -0.3611 -1.1538
 6152SOL     OW18836   3.890   3.310   5.039  0.1133 -0.6036  0.2946
 6152SOL    HW118837   3.896   3.398   5.002  0.9368 -0.8870 -0.2537
 6152SOL    HW218838   3.967   3.301   5.094 -0.0316 -0.9460  0.4457
 6153SOL     OW18839   2.306   3.533   4.108 -0.2073  0.1694  0.7525
 6153SOL    HW118840   2.224   3.582   4.101  0.1539  0.7795  0.8327
 6153SOL    HW218841   2.328   3.512   4.017 -0.5371 -0.1400  0.7417
 6154SOL     OW18842   1.137   5.835   1.097  0.1961  0.4397  0.7364
 6154SOL    HW118843   1.190   5.894   1.044 -1.7947  0.8734 -0.8205
 6154SOL    HW218844   1.199   5.768   1.127  1.5631  0.7432 -1.3093
 6155SOL     OW18845   0.719   2.798   1.078 -0.0316 -0.4329  0.4120
 6155SOL    HW118846   0.693   2.766   1.165  1.7281 -1.7482  0.4751
 6155SOL    HW218847   0.710   2.893   1.084 -1.1256 -0.5967  1.6304
 6156SOL     OW18848   5.320   5.212   5.254  0.0101  0.3713  0.3433
 6156SOL    HW118849   5.323   5.306   5.270 -1.1707  0.3637  0.6356
 6156SOL    HW218850   5.399   5.194   5.202  0.2787  1.5012  0.3511
 6157SOL     OW18851   4.906   4.532   4.885  0.0034  0.3367 -0.1954
 6157SOL    HW118852   4.980   4.517   4.943 -1.0867  0.3057  1.2196
 6157SOL    HW218853   4.945   4.548   4.799  1.5770 -1.0791  0.2372
 6158SOL     OW18854   1.825   1.018   3.178 -0.3734 -0.0088  0.9748
 6158SOL    HW118855   1.838   1.109   3.152  1.2136 -0.1147  1.3670
 6158SOL    HW218856   1.879   1.007   3.256 -1.0262 -1.1286  1.2858
 6159SOL     OW18857   6.203   4.940   3.557 -0.4144  0.1595  0.1700
 6159SOL    HW118858   6.118   4.966   3.592  0.0280  1.2135  0.5087
 6159SOL    HW218859   6.238   4.879   3.621 -0.5585  0.3725  0.4511
 6160SOL     OW18860   2.700   1.545   0.575 -0.3726  0.0847 -0.2066
 6160SOL    HW118861   2.738   1.610   0.515  2.1573  0.5912  1.8634
 6160SOL    HW218862   2.684   1.593   0.656 -0.5877 -1.3531  0.6222
 6161SOL     OW18863   3.544   0.319   5.554 -0.1640  0.8346  0.0003
 6161SOL    HW118864   3.581   0.288   5.637 -0.1101  1.7159  0.3103
 6161SOL    HW218865   3.545   0.242   5.497  0.5140  0.4151  0.5716
 6162SOL     OW18866   3.070   4.705   4.686 -0.6720  0.5187  0.1145
 6162SOL    HW118867   3.047   4.709   4.779  0.2639 -1.4073  0.4682
 6162SOL    HW218868   3.163   4.682   4.686 -0.5168  1.1240 -1.3083
 6163SOL     OW18869   1.798   4.995   6.351 -0.2941 -0.2237 -0.2188
 6163SOL    HW118870   1.743   4.933   6.304 -1.4635 -0.3272  1.2234
 6163SOL    HW218871   1.761   4.996   6.440  0.5738  1.4885  0.1374
 6164SOL     OW18872   4.444   3.758   5.573 -0.1458 -0.0620  0.4172
 6164SOL    HW118873   4.474   3.667   5.562  3.8550  0.9993  1.8297
 6164SOL    HW218874   4.397   3.757   5.656 -0.7229 -0.9877  0.0870
 6165SOL     OW18875   0.910   2.860   4.856 -0.6677 -0.3547 -0.0497
 6165SOL    HW118876   0.815   2.852   4.848 -0.6541 -0.8843  0.3189
 6165SOL    HW218877   0.945   2.790   4.801 -0.4620  0.8606 -1.4942
 6166SOL     OW18878   4.441   5.528   4.975 -0.1460  0.5769 -0.5135
 6166SOL    HW118879   4.392   5.488   4.903 -1.0106  0.0931  0.3409
 6166SOL    HW218880   4.513   5.467   4.991 -1.0363 -0.2706  0.2894
 6167SOL     OW18881   2.521   1.967   5.427  0.4697  1.0299  0.0215
 6167SOL    HW118882   2.567   1.912   5.490  0.0834  0.1471 -0.4672
 6167SOL    HW218883   2.492   1.907   5.359  0.8784  1.9787 -1.0020
 6168SOL     OW18884   1.852   1.473   2.656  0.4432 -0.1760  0.5175
 6168SOL    HW118885   1.795   1.474   2.733  0.0736  0.6608  0.2275
 6168SOL    HW218886   1.924   1.532   2.679 -0.5685  1.4700 -0.4691
 6169SOL     OW18887   0.917   4.672   4.177 -0.1353  0.8026  0.1257
 6169SOL    HW118888   0.956   4.660   4.090  0.7885  1.8562  0.3753
 6169SOL    HW218889   0.860   4.596   4.189 -0.3586  0.7093 -1.4450
 6170SOL     OW18890   3.352   3.341   5.506  0.5445 -0.3385  0.3981
 6170SOL    HW118891   3.298   3.395   5.564  0.3293 -0.7059  0.5472
 6170SOL    HW218892   3.344   3.253   5.543 -1.0034 -0.9015 -1.1972
 6171SOL     OW18893   5.037   5.402   2.501 -0.1050 -0.2097 -0.1552
 6171SOL    HW118894   5.097   5.419   2.574 -2.1013 -2.5172  2.0994
 6171SOL    HW218895   5.007   5.489   2.474  1.8996  0.7684  0.6815
 6172SOL     OW18896   0.936   3.216   3.204  0.1043 -0.2810 -0.4656
 6172SOL    HW118897   0.979   3.287   3.252 -0.6543 -1.1086  1.5257
 6172SOL    HW218898   0.958   3.137   3.254 -2.9331 -0.8385  0.0826
 6173SOL     OW18899   4.352   1.948   5.928  0.1203 -0.5826 -0.5026
 6173SOL    HW118900   4.365   1.979   5.838  1.1209 -0.5441 -0.3430
 6173SOL    HW218901   4.335   2.028   5.978  4.0932 -0.0668  0.1681
 6174SOL     OW18902   3.157   3.908   2.801  0.4022  0.7903 -0.0270
 6174SOL    HW118903   3.242   3.945   2.774  1.2660 -0.6669  0.6494
 6174SOL    HW218904   3.180   3.838   2.862 -1.4035  2.2265  2.4203
 6175SOL     OW18905   2.241   4.615   1.600 -0.1800  0.2236 -0.0049
 6175SOL    HW118906   2.320   4.622   1.653  1.0140  0.0458 -1.7089
 6175SOL    HW218907   2.217   4.522   1.606  0.3334  0.0705 -0.3137
 6176SOL     OW18908   3.282   4.654   5.393 -0.0765  0.0895 -0.5419
 6176SOL    HW118909   3.302   4.740   5.357 -1.0624  0.8678  0.7082
 6176SOL    HW218910   3.274   4.668   5.487 -2.8031 -0.8376 -0.5727
 6177SOL     OW18911   3.203   0.782   2.706  0.2239 -0.5634 -0.2792
 6177SOL    HW118912   3.277   0.774   2.766  0.4376 -1.2373 -0.6321
 6177SOL    HW218913   3.212   0.708   2.646  0.0900  0.1853 -1.2372
 6178SOL     OW18914   5.731   1.885   5.723 -0.1017  0.5694  0.2851
 6178SOL    HW118915   5.649   1.844   5.696  0.6227 -0.7379  0.0428
 6178SOL    HW218916   5.789   1.875   5.648  0.7728  0.1025  1.0159
 6179SOL     OW18917   3.432   4.540   5.672  0.1138  0.6003 -0.2854
 6179SOL    HW118918   3.520   4.541   5.634 -0.2793 -2.1562 -1.3892
 6179SOL    HW218919   3.430   4.462   5.727 -2.6313 -1.2535 -2.8478
 6180SOL     OW18920   0.130   1.370   5.028 -0.0608  0.6387  0.1897
 6180SOL    HW118921   0.167   1.283   5.016 -0.0522  0.4629  1.3842
 6180SOL    HW218922   0.036   1.358   5.018  0.0104  0.6561 -0.5163
 6181SOL     OW18923   1.830   2.158   4.359  0.7186 -0.7811 -0.2659
 6181SOL    HW118924   1.897   2.208   4.405  0.3783 -0.3149 -0.2748
 6181SOL    HW218925   1.877   2.086   4.318  1.1748 -0.6014 -0.0555
 6182SOL     OW18926   3.068   6.255   2.587 -0.2259  0.2764 -0.9141
 6182SOL    HW118927   3.140   6.283   2.530  0.7377 -0.0222  0.1455
 6182SOL    HW218928   3.089   6.164   2.610 -0.8471  0.2465 -0.4475
 6183SOL     OW18929   4.082   3.769   0.466  0.4255  0.2492  0.3476
 6183SOL    HW118930   4.138   3.847   0.457  1.6941 -0.8585 -2.0397
 6183SOL    HW218931   4.121   3.705   0.406 -2.3121 -1.2253  0.0623
 6184SOL     OW18932   4.935   3.954   5.861  0.1003 -0.3138  0.0370
 6184SOL    HW118933   4.956   3.861   5.860  2.0992  0.0975  0.7124
 6184SOL    HW218934   4.951   3.983   5.771 -0.9863 -0.7068 -0.2887
 6185SOL     OW18935   3.177   2.131   0.618 -0.1404 -0.1646  0.4395
 6185SOL    HW118936   3.225   2.066   0.565  0.1526  0.9709 -0.7175
 6185SOL    HW218937   3.245   2.176   0.668 -0.2596 -0.2340  0.6614
 6186SOL     OW18938   2.285   0.839   1.813 -0.1936  0.9118  0.1277
 6186SOL    HW118939   2.300   0.894   1.890  1.4327 -0.2543  0.6828
 6186SOL    HW218940   2.360   0.779   1.811 -1.5880 -0.8839 -0.7989
 6187SOL     OW18941   5.076   0.439   1.848 -0.4698 -0.2523 -0.2626
 6187SOL    HW118942   5.030   0.504   1.795  0.6896 -0.3610 -1.4241
 6187SOL    HW218943   5.158   0.483   1.873  0.1016 -1.0998 -0.6478
 6188SOL     OW18944   4.078   4.827   0.345 -0.0090  0.4447  0.0532
 6188SOL    HW118945   4.038   4.806   0.429 -0.4319  0.9277 -0.0209
 6188SOL    HW218946   4.172   4.823   0.361 -0.0271 -3.1515 -0.3832
 6189SOL     OW18947   4.574   1.292   3.628  0.2529  0.8379  0.0791
 6189SOL    HW118948   4.535   1.313   3.543 -0.4605  1.1850  0.4876
 6189SOL    HW218949   4.560   1.197   3.638  1.2053  0.6200 -0.6207
 6190SOL     OW18950   3.685   2.411   1.961 -0.1763 -0.4182 -0.3125
 6190SOL    HW118951   3.596   2.390   1.989 -0.2605  0.2702 -0.0548
 6190SOL    HW218952   3.722   2.327   1.935 -0.4810 -0.9059  0.7812
 6191SOL     OW18953   4.514   6.295   6.221  0.1380 -0.4470  0.4899
 6191SOL    HW118954   4.445   6.229   6.227 -0.4144  0.2348  1.7602
 6191SOL    HW218955   4.566   6.283   6.300 -0.1195  0.7864  0.8608
 6192SOL     OW18956   1.168   4.583   0.574  0.0324  0.2347 -0.0637
 6192SOL    HW118957   1.150   4.656   0.514 -1.8775  0.5411  0.8450
 6192SOL    HW218958   1.169   4.623   0.661 -1.2583 -0.8197  0.4708
 6193SOL     OW18959   2.995   5.972   1.627  0.2749 -0.4616  0.5452
 6193SOL    HW118960   2.990   5.905   1.696  0.5472  0.6981  1.7302
 6193SOL    HW218961   3.082   5.960   1.589  0.1510 -1.0697  0.4476
 6194SOL     OW18962   1.289   0.479   1.602  0.1632  0.2883  0.1848
 6194SOL    HW118963   1.248   0.432   1.529  2.6238  1.5575 -2.0786
 6194SOL    HW218964   1.229   0.551   1.621  0.1129  0.7106 -1.4866
 6195SOL     OW18965   6.247   3.568   2.815 -0.0097 -0.4197  0.0078
 6195SOL    HW118966   6.275   3.572   2.724 -2.4347  0.1651 -0.7631
 6195SOL    HW218967   6.220   3.477   2.829 -0.6335 -0.2685 -0.1887
 6196SOL     OW18968   0.314   1.651   1.126  0.1574 -0.0325 -0.0522
 6196SOL    HW118969   0.393   1.600   1.112  0.2527 -0.2168  1.1299
 6196SOL    HW218970   0.316   1.719   1.058  1.6265  0.3325  0.3545
 6197SOL     OW18971   0.265   1.516   2.503  0.1042  0.2469  0.2679
 6197SOL    HW118972   0.191   1.459   2.526  1.6106 -1.4599  0.9185
 6197SOL    HW218973   0.262   1.586   2.568 -0.5232 -0.1772  0.7032
 6198SOL     OW18974   1.825   5.763   2.586 -0.0260  0.7550 -0.0379
 6198SOL    HW118975   1.863   5.839   2.542  0.8614 -0.0269 -0.6431
 6198SOL    HW218976   1.899   5.722   2.632 -0.4608  0.1383  0.1194
 6199SOL     OW18977   2.788   4.967   5.104  0.3297 -0.1169 -0.0757
 6199SOL    HW118978   2.796   5.061   5.121 -1.2327 -0.0794  0.4958
 6199SOL    HW218979   2.701   4.957   5.066  0.6136 -1.3010 -0.4314
 6200SOL     OW18980   5.472   3.187   6.197  0.4022 -0.1011 -0.4783
 6200SOL    HW118981   5.532   3.183   6.271 -0.1026 -0.1008 -0.0645
 6200SOL    HW218982   5.523   3.226   6.127  0.7446  0.3397  0.0107
 6201SOL     OW18983   4.999   4.684   5.618 -0.0105  0.0338  0.0909
 6201SOL    HW118984   5.058   4.720   5.684 -0.2666 -0.2813  0.4971
 6201SOL    HW218985   5.053   4.671   5.541  0.1890  0.8589  0.0826
 6202SOL     OW18986   5.285   3.294   0.035  0.5416 -0.0423  0.2169
 6202SOL    HW118987   5.260   3.378  -0.004 -0.4380 -0.7380 -0.6688
 6202SOL    HW218988   5.332   3.248  -0.035 -1.2150 -1.2897 -0.1600
 6203SOL     OW18989   6.080   3.837   6.321 -0.1425 -0.3676  0.0167
 6203SOL    HW118990   6.013   3.786   6.276  0.4753 -1.3850  0.2137
 6203SOL    HW218991   6.067   3.817   6.414 -0.1097  0.0976  0.1220
 6204SOL     OW18992   2.712   1.505   3.917 -0.0562  0.2862  0.4210
 6204SOL    HW118993   2.621   1.480   3.932 -0.8174  1.9252 -1.2356
 6204SOL    HW218994   2.762   1.450   3.977 -2.0493 -1.3506  0.6568
 6205SOL     OW18995   3.091   5.143   4.458 -0.4349  0.1398 -0.1298
 6205SOL    HW118996   3.095   5.048   4.469  0.2480  0.2153  0.3085
 6205SOL    HW218997   3.048   5.175   4.538 -0.1187  0.2463  0.0001
 6206SOL     OW18998   0.161   2.817   0.834  0.3373  0.1581  0.0631
 6206SOL    HW118999   0.131   2.891   0.781 -0.0312  0.9575  1.3733
 6206SOL    HW219000   0.114   2.741   0.799 -2.5866  1.2463  1.5231
 6207SOL     OW19001   0.394   1.509   0.407  0.5329  0.3649  0.1854
 6207SOL    HW119002   0.324   1.487   0.344  0.2830  0.8614  0.2933
 6207SOL    HW219003   0.463   1.445   0.388  0.5954  0.7215 -0.8259
 6208SOL     OW19004   3.243   1.823   4.933  0.4671  0.1236  0.0901
 6208SOL    HW119005   3.322   1.800   4.884 -0.3674 -1.2112 -0.6523
 6208SOL    HW219006   3.190   1.743   4.933 -1.6562  1.4745 -0.9278
 6209SOL     OW19007   0.531   4.554   3.008 -0.7018  0.5894 -0.1244
 6209SOL    HW119008   0.620   4.588   2.999 -0.7057  1.3682  2.3672
 6209SOL    HW219009   0.527   4.481   2.947  2.1789 -0.4799  0.8589
 6210SOL     OW19010   3.396   4.932   1.013  0.2851  0.6527 -0.5114
 6210SOL    HW119011   3.327   4.936   1.079  1.2605  0.7768  0.5190
 6210SOL    HW219012   3.357   4.971   0.935 -0.6660  1.1190  0.1828
 6211SOL     OW19013   2.523   1.823   3.673 -0.1666  0.1287 -0.5543
 6211SOL    HW119014   2.476   1.869   3.604  1.5493  2.1261 -0.4500
 6211SOL    HW219015   2.583   1.888   3.709  2.0251 -2.0613 -0.0851
 6212SOL     OW19016   4.193   1.030   1.536 -0.0995  0.0870  0.7679
 6212SOL    HW119017   4.172   0.958   1.595 -1.0821  0.8697  1.3998
 6212SOL    HW219018   4.109   1.051   1.493 -0.3841  2.3959  2.3431
 6213SOL     OW19019   0.441   3.891   2.466 -0.2732  0.3202  0.1344
 6213SOL    HW119020   0.446   3.810   2.516  0.5653 -0.6301 -1.4539
 6213SOL    HW219021   0.362   3.881   2.411 -0.5421  0.8632  0.4156
 6214SOL     OW19022   1.380   6.190   0.005  0.4270  0.2542 -0.0169
 6214SOL    HW119023   1.418   6.240   0.077 -0.1220  0.2866  0.2514
 6214SOL    HW219024   1.289   6.175   0.031  0.8212 -1.6837  0.3424
 6215SOL     OW19025   2.906   2.104   4.765 -0.2689 -0.5163  0.6635
 6215SOL    HW119026   2.947   2.143   4.688 -1.6627  1.0553  0.7052
 6215SOL    HW219027   2.957   2.139   4.839 -1.1453  0.7609  0.6656
 6216SOL     OW19028   1.588   1.700   2.597 -0.3348 -0.4680 -0.2108
 6216SOL    HW119029   1.516   1.643   2.571 -1.9805  1.5040 -0.1181
 6216SOL    HW219030   1.648   1.699   2.522 -0.6721 -1.7655 -0.4719
 6217SOL     OW19031   3.839   4.059   5.337  0.2627  0.2630 -0.8154
 6217SOL    HW119032   3.754   4.082   5.374  0.2482 -0.4413 -0.3958
 6217SOL    HW219033   3.903   4.082   5.404  0.4304  1.0580 -1.2448
 6218SOL     OW19034   0.029   3.503   2.274  0.0712  0.0863  0.2924
 6218SOL    HW119035  -0.060   3.497   2.241  0.5616 -1.7018 -0.8185
 6218SOL    HW219036   0.057   3.412   2.285  2.1311  0.5845 -0.4543
 6219SOL     OW19037   6.216   5.400   1.622  0.4330  0.3547  0.8223
 6219SOL    HW119038   6.126   5.429   1.639  0.1871 -0.3184  0.6526
 6219SOL    HW219039   6.234   5.336   1.690 -0.0517 -1.2758 -0.5551
 6220SOL     OW19040   4.219   5.770   1.426  0.5096  0.1940 -0.1696
 6220SOL    HW119041   4.247   5.856   1.455  1.9324 -0.2526 -0.1850
 6220SOL    HW219042   4.143   5.750   1.481  1.1916  0.7426  0.9897
 6221SOL     OW19043   3.474   3.730   0.585 -0.0815  0.1665 -0.2861
 6221SOL    HW119044   3.437   3.808   0.626 -2.2647 -0.4560 -0.9995
 6221SOL    HW219045   3.470   3.663   0.654  0.1684  0.2157 -0.2217
 6222SOL     OW19046   4.181   4.148   3.101 -0.3332  0.3178 -0.1791
 6222SOL    HW119047   4.132   4.220   3.141 -1.5021  0.6472 -2.1624
 6222SOL    HW219048   4.229   4.188   3.029  1.4897 -0.3434  0.6323
 6223SOL     OW19049   2.449   4.623   1.778  0.0484 -0.7630  0.3398
 6223SOL    HW119050   2.488   4.547   1.821  1.9250 -0.6778 -1.1620
 6223SOL    HW219051   2.497   4.698   1.813 -0.0109 -0.4936 -0.1478
 6224SOL     OW19052   5.935   1.964   1.876  0.3725  0.2143  0.8978
 6224SOL    HW119053   5.879   2.029   1.917 -1.2436  0.1817 -1.1339
 6224SOL    HW219054   5.924   1.885   1.929 -0.2978  0.6567  1.4160
 6225SOL     OW19055   0.957   4.431   5.867  0.0485 -0.4300  0.7721
 6225SOL    HW119056   0.880   4.409   5.919 -0.9613 -1.0773 -0.9705
 6225SOL    HW219057   0.951   4.525   5.854  0.5525 -0.1897  2.1981
 6226SOL     OW19058   0.876   4.949   5.046 -0.0572  0.3640 -0.1519
 6226SOL    HW119059   0.904   4.868   5.088 -4.3556 -2.1018 -1.7492
 6226SOL    HW219060   0.914   4.945   4.958  0.0932  0.3562 -0.0881
 6227SOL     OW19061   3.802   5.428   3.673 -0.3542  0.5402  0.4777
 6227SOL    HW119062   3.842   5.358   3.621 -1.7876  0.5425 -0.6581
 6227SOL    HW219063   3.871   5.455   3.733  0.7912 -0.6337 -0.2732
 6228SOL     OW19064   2.601   1.194   5.449 -0.3519 -0.5579  0.2348
 6228SOL    HW119065   2.633   1.284   5.450 -0.1542 -0.6337  1.6784
 6228SOL    HW219066   2.526   1.194   5.509  0.1557 -1.5245  0.8892
 6229SOL     OW19067   1.248   0.300   2.282  0.3419 -0.3458 -0.8164
 6229SOL    HW119068   1.244   0.395   2.279 -0.1394 -0.3361  0.1713
 6229SOL    HW219069   1.287   0.279   2.366  1.7618 -0.9969 -1.6177
 6230SOL     OW19070   1.918   3.404   0.894  0.5238  0.2428 -0.4306
 6230SOL    HW119071   1.838   3.456   0.895 -1.4549 -2.5856 -2.3371
 6230SOL    HW219072   1.979   3.456   0.841 -0.8645  1.3572 -0.9870
 6231SOL     OW19073   0.546   0.234   2.533 -0.1238 -0.0712  0.2154
 6231SOL    HW119074   0.459   0.199   2.553 -0.4822  0.5536 -0.2043
 6231SOL    HW219075   0.607   0.175   2.576 -0.6261 -2.1944 -1.8965
 6232SOL     OW19076   4.073   3.155   2.490 -0.0456 -0.5295 -0.4909
 6232SOL    HW119077   4.009   3.223   2.509 -1.1564 -0.8626 -2.8929
 6232SOL    HW219078   4.073   3.100   2.568  0.3069  1.7552  1.1703
 6233SOL     OW19079   4.895   4.847   1.431 -0.1301  0.3343  0.4688
 6233SOL    HW119080   4.988   4.826   1.443  0.3136  1.6723 -0.5048
 6233SOL    HW219081   4.884   4.931   1.476 -1.4312 -0.9399  2.6414
 6234SOL     OW19082   3.082   1.285   4.929 -0.0891  0.0338  0.4038
 6234SOL    HW119083   3.018   1.338   4.975  1.0201 -0.0748  2.1183
 6234SOL    HW219084   3.126   1.235   4.997  2.0276  0.3224 -0.6944
 6235SOL     OW19085   1.613   1.582   0.507 -0.5254  0.3045 -0.0266
 6235SOL    HW119086   1.661   1.593   0.425  0.8896  1.5976  0.9567
 6235SOL    HW219087   1.599   1.487   0.514  1.9939 -0.1090 -0.2837
 6236SOL     OW19088   4.127   1.435   5.737 -0.3019  0.2581  0.0533
 6236SOL    HW119089   4.043   1.424   5.782 -0.2140 -0.2409  0.0980
 6236SOL    HW219090   4.130   1.363   5.674  0.5988 -0.3938  0.8330
 6237SOL     OW19091   4.397   1.234   1.272 -0.6586  0.3157 -0.4981
 6237SOL    HW119092   4.415   1.323   1.303 -0.3531 -0.3100  1.1759
 6237SOL    HW219093   4.413   1.179   1.349 -1.7801 -1.0845 -1.2640
 6238SOL     OW19094   6.375   1.166   1.846  0.5250 -0.1691 -0.3694
 6238SOL    HW119095   6.297   1.210   1.812  0.5122  0.6500  0.7110
 6238SOL    HW219096   6.385   1.088   1.790 -1.6484 -0.8343  0.1328
 6239SOL     OW19097   5.559   6.211   2.250  0.2447  0.9813  0.3105
 6239SOL    HW119098   5.567   6.223   2.345 -0.1900 -1.0629  0.6275
 6239SOL    HW219099   5.587   6.121   2.234  0.7896  1.4565 -1.5811
 6240SOL     OW19100   0.200   0.156   5.120  0.1958  0.1433  1.0333
 6240SOL    HW119101   0.104   0.161   5.124  0.2211  0.4048  1.3920
 6240SOL    HW219102   0.229   0.206   5.197  0.6487  1.0719  0.2591
 6241SOL     OW19103   2.234   4.063   3.364 -0.0603 -0.2342 -0.4330
 6241SOL    HW119104   2.207   3.982   3.321  0.5595 -0.8321  0.2693
 6241SOL    HW219105   2.257   4.036   3.453 -1.7563  1.0570  0.4208
 6242SOL     OW19106   4.973   2.361   6.181 -0.2289 -0.8498  0.4934
 6242SOL    HW119107   5.015   2.431   6.132 -0.5949 -1.3549 -0.5641
 6242SOL    HW219108   4.925   2.405   6.251 -1.4080  0.0367 -0.8603
 6243SOL     OW19109   3.368   5.018   2.422 -0.2412  0.2758 -0.3253
 6243SOL    HW119110   3.298   5.083   2.427 -0.2686  0.3635 -1.8400
 6243SOL    HW219111   3.333   4.947   2.368  0.6153  0.0335 -0.5811
 6244SOL     OW19112   2.769   4.323   1.324  0.3274 -0.0986  0.1509
 6244SOL    HW119113   2.721   4.272   1.389 -0.6639  0.5705 -0.0561
 6244SOL    HW219114   2.857   4.333   1.361 -0.1446  0.0182  1.2333
 6245SOL     OW19115   6.223   1.901   5.308  0.2124  0.0010  0.1337
 6245SOL    HW119116   6.318   1.906   5.303  0.1393  1.2209 -0.1735
 6245SOL    HW219117   6.191   1.967   5.246 -0.8437 -1.0439 -0.4526
 6246SOL     OW19118   5.859   4.462   0.450 -0.3063 -0.5139 -0.5154
 6246SOL    HW119119   5.888   4.549   0.421  1.6795 -1.5043 -1.5951
 6246SOL    HW219120   5.780   4.445   0.400 -1.2730  1.0917  0.4429
 6247SOL     OW19121   2.733   5.794   4.379 -0.4806  0.3588  0.0838
 6247SOL    HW119122   2.783   5.874   4.393 -0.0230  0.2787 -0.9935
 6247SOL    HW219123   2.726   5.787   4.284 -1.4920 -0.2857  0.1948
 6248SOL     OW19124   0.244   3.846   1.945 -0.1583  0.5501 -0.1664
 6248SOL    HW119125   0.201   3.761   1.938 -1.6540  1.2837 -0.2475
 6248SOL    HW219126   0.213   3.895   1.869  0.8450  1.0922 -0.2283
 6249SOL     OW19127   4.615   1.575   3.348  0.0643 -0.4678 -0.0232
 6249SOL    HW119128   4.553   1.617   3.408 -0.6744 -1.1969 -0.2708
 6249SOL    HW219129   4.682   1.538   3.406 -0.9048 -1.5887  0.3811
 6250SOL     OW19130   1.796   5.474   1.891 -0.8377  0.0977  0.2767
 6250SOL    HW119131   1.819   5.565   1.909 -3.4295  1.0947 -1.2200
 6250SOL    HW219132   1.854   5.423   1.948  0.6930  2.6566  1.0986
 6251SOL     OW19133   3.477   5.058   4.114  0.4328 -0.0344  0.0513
 6251SOL    HW119134   3.541   5.104   4.168  0.4113 -0.1139  0.1461
 6251SOL    HW219135   3.513   4.969   4.106  0.5937  0.0677 -0.3279
 6252SOL     OW19136   3.534   2.155   1.153 -0.1074 -0.7408 -0.1955
 6252SOL    HW119137   3.569   2.105   1.080 -0.8839 -1.7537  0.1047
 6252SOL    HW219138   3.513   2.241   1.117  1.3885 -0.5778 -0.6841
 6253SOL     OW19139   4.090   4.479   0.132  0.0053  0.3066  0.0126
 6253SOL    HW119140   4.042   4.561   0.118  1.1757  1.1489  0.7832
 6253SOL    HW219141   4.180   4.500   0.106 -0.0420 -1.2826 -1.5189
 6254SOL     OW19142   6.173   4.907   2.721  0.5938 -0.1521 -0.2053
 6254SOL    HW119143   6.268   4.914   2.725  0.3934  2.9795  0.2441
 6254SOL    HW219144   6.142   4.950   2.801 -1.2593  1.4686 -1.7313
 6255SOL     OW19145   1.491   2.393   1.628 -0.0383 -0.4701  0.3220
 6255SOL    HW119146   1.455   2.349   1.552 -0.7438 -0.5115  0.6679
 6255SOL    HW219147   1.493   2.326   1.696 -1.2082  0.0403  0.8774
 6256SOL     OW19148   1.330   1.819   3.829 -0.7625 -0.4119  0.2831
 6256SOL    HW119149   1.406   1.763   3.845 -0.1887  0.7918  2.0091
 6256SOL    HW219150   1.331   1.834   3.735  0.6282 -1.1427  0.1658
 6257SOL     OW19151   4.269   4.065   5.195  0.2089 -0.1624 -0.0099
 6257SOL    HW119152   4.185   4.111   5.188  0.8609  1.0392 -0.0707
 6257SOL    HW219153   4.252   3.992   5.254 -0.7403  0.3999  0.4127
 6258SOL     OW19154   0.886   5.771   1.055 -0.2649  0.0670 -0.0436
 6258SOL    HW119155   0.975   5.800   1.075 -0.2187 -0.2472  0.1942
 6258SOL    HW219156   0.889   5.750   0.961 -0.0590 -0.0527 -0.0113
 6259SOL     OW19157   5.586   3.132   3.972 -0.0817  0.5550  0.0043
 6259SOL    HW119158   5.636   3.117   3.891 -0.9020 -0.7159 -0.2837
 6259SOL    HW219159   5.499   3.158   3.942 -0.3505  0.1953  0.4745
 6260SOL     OW19160   0.822   1.437   4.863  0.0227 -0.0236 -0.3199
 6260SOL    HW119161   0.804   1.498   4.935 -0.6261  1.2075 -1.5021
 6260SOL    HW219162   0.760   1.365   4.877 -0.7032  0.6313 -0.1438
 6261SOL     OW19163   1.988   5.635   4.342 -0.3342  0.6435 -0.1868
 6261SOL    HW119164   2.003   5.728   4.358 -1.6424  1.1738 -1.8786
 6261SOL    HW219165   1.903   5.631   4.299 -0.0620 -1.2819 -0.6099
 6262SOL     OW19166   0.008   1.217   5.998 -0.4918 -0.0028 -0.2218
 6262SOL    HW119167   0.019   1.173   6.083 -0.5545  1.4238  0.5385
 6262SOL    HW219168  -0.085   1.207   5.977 -0.7509  0.7776  0.5257
 6263SOL     OW19169   5.993   1.036   1.859 -0.4450 -0.1036  0.9415
 6263SOL    HW119170   6.058   0.967   1.849  0.7353  1.0505  0.3670
 6263SOL    HW219171   5.991   1.054   1.953  0.3356  0.0888  0.9279
 6264SOL     OW19172   0.328   3.617   1.438 -0.0862 -0.2458 -0.8008
 6264SOL    HW119173   0.355   3.705   1.465  0.0574 -0.9503  1.5426
 6264SOL    HW219174   0.243   3.629   1.396 -0.8171  0.8483  0.9275
 6265SOL     OW19175   0.270   2.855   6.265  0.0536  0.3031  0.2104
 6265SOL    HW119176   0.310   2.783   6.313 -0.1577 -0.2337 -0.4015
 6265SOL    HW219177   0.309   2.849   6.177  1.6100  2.2203  0.7419
 6266SOL     OW19178   0.847   3.361   1.403 -0.2379  0.0851  0.3645
 6266SOL    HW119179   0.787   3.287   1.405  0.0556 -0.1365  1.2633
 6266SOL    HW219180   0.791   3.438   1.415 -0.6496  0.0897 -1.4806
 6267SOL     OW19181   2.909   0.934   4.228  0.3172 -0.0164  0.1725
 6267SOL    HW119182   2.964   0.902   4.299  0.3136 -0.9673 -0.2551
 6267SOL    HW219183   2.952   1.015   4.199  1.3314 -0.6037  0.0280
 6268SOL     OW19184   5.203   6.321   0.576  0.5535  0.4325  0.9332
 6268SOL    HW119185   5.131   6.281   0.526  1.2193 -0.0740  0.3787
 6268SOL    HW219186   5.263   6.249   0.594  1.5380  1.0815  0.3255
 6269SOL     OW19187   1.155   4.661   2.990 -0.0872 -0.4683  0.2365
 6269SOL    HW119188   1.091   4.609   3.038  0.8117 -1.8989 -0.0732
 6269SOL    HW219189   1.132   4.647   2.898  0.7885 -1.1531  0.1178
 6270SOL     OW19190   3.563   1.449   4.631  0.2856  0.1775 -0.1494
 6270SOL    HW119191   3.658   1.463   4.638  0.4897 -0.4709 -1.5203
 6270SOL    HW219192   3.550   1.361   4.667  0.0277  0.7326  1.1608
 6271SOL     OW19193   4.623   2.917   2.627  0.3823  0.3051  0.4083
 6271SOL    HW119194   4.689   2.986   2.639  0.4830  0.2742  0.0232
 6271SOL    HW219195   4.652   2.846   2.684  1.3926 -0.2190 -0.7381
 6272SOL     OW19196   0.420   5.966   1.225 -0.5124  0.2639 -0.4604
 6272SOL    HW119197   0.446   6.055   1.251  0.2138 -0.6290  1.9736
 6272SOL    HW219198   0.408   5.972   1.130  0.6012  2.6909 -0.4964
 6273SOL     OW19199   5.401   1.287   5.004  0.8865 -0.8842  0.6717
 6273SOL    HW119200   5.373   1.378   5.001  1.6568 -0.5468  2.8464
 6273SOL    HW219201   5.319   1.237   4.998  0.4700 -0.0577 -0.5911
 6274SOL     OW19202   4.660   1.940   5.066 -0.3312  0.0887 -0.0282
 6274SOL    HW119203   4.713   1.861   5.070 -1.4774 -0.8136 -1.9280
 6274SOL    HW219204   4.606   1.937   5.145 -0.3979 -1.0769 -0.1056
 6275SOL     OW19205   4.598   0.456   5.012 -0.0591 -0.3919  0.1713
 6275SOL    HW119206   4.619   0.411   4.930  1.6094 -1.7305  1.2959
 6275SOL    HW219207   4.654   0.533   5.011 -2.2479  1.2381 -1.3258
 6276SOL     OW19208   5.863   5.041   4.265  0.3425  0.3888 -0.0650
 6276SOL    HW119209   5.879   4.959   4.310  0.3269  0.2469 -0.3135
 6276SOL    HW219210   5.949   5.082   4.257  0.1879  0.9420  1.0924
 6277SOL     OW19211   1.127   4.117   0.761  0.1801  0.0291  0.2420
 6277SOL    HW119212   1.140   4.074   0.846  1.0722 -0.9615 -0.3917
 6277SOL    HW219213   1.034   4.140   0.760  0.0491 -0.4234  1.2675
 6278SOL     OW19214   2.040   2.322   4.197  0.1057  0.1088 -0.0038
 6278SOL    HW119215   1.961   2.373   4.178  1.3673  1.8642 -0.7436
 6278SOL    HW219216   2.072   2.359   4.280  0.8440  0.3013 -0.3740
 6279SOL     OW19217   1.761   5.817   3.820 -0.0012  0.7785 -0.0732
 6279SOL    HW119218   1.741   5.820   3.726  0.3626  0.7413 -0.1518
 6279SOL    HW219219   1.726   5.733   3.849  0.3802  0.5404 -0.2916
 6280SOL     OW19220   2.167   6.047   1.568  0.5500  0.1960 -0.7357
 6280SOL    HW119221   2.124   5.964   1.545  0.9986 -0.2775  0.1086
 6280SOL    HW219222   2.148   6.105   1.494  0.2281 -0.6599 -1.3365
 6281SOL     OW19223   5.857   3.821   0.895 -0.0042  0.3235  0.0030
 6281SOL    HW119224   5.848   3.754   0.828  0.1643  0.3372 -0.0346
 6281SOL    HW219225   5.952   3.834   0.903  0.1053 -1.4951  2.0318
 6282SOL     OW19226   2.339   4.810   5.057  0.1230 -0.2801  0.0575
 6282SOL    HW119227   2.417   4.754   5.055  0.3586 -0.0503  1.7601
 6282SOL    HW219228   2.270   4.755   5.094 -0.3541 -0.2775 -0.8165
 6283SOL     OW19229   4.315   5.066   1.528  0.2023 -0.5715  0.3237
 6283SOL    HW119230   4.281   5.151   1.554 -1.1271 -1.6063  2.1116
 6283SOL    HW219231   4.268   5.045   1.447 -0.5093 -0.2478  0.6516
 6284SOL     OW19232   4.579   3.188   1.389  0.4764 -0.1131 -0.2245
 6284SOL    HW119233   4.668   3.217   1.409  0.3005  0.1518  0.2011
 6284SOL    HW219234   4.572   3.194   1.294  1.0850 -0.6417 -0.3018
 6285SOL     OW19235   2.111   5.415   4.122  0.1555 -0.1156  0.1255
 6285SOL    HW119236   2.048   5.447   4.186 -2.2885  0.3071 -2.3489
 6285SOL    HW219237   2.188   5.471   4.133 -0.3763  0.2070  2.3730
 6286SOL     OW19238   4.743   4.237   4.592  0.3334 -0.0638 -0.1942
 6286SOL    HW119239   4.807   4.286   4.541  2.5176 -0.1907  2.3159
 6286SOL    HW219240   4.666   4.294   4.594  2.1747  2.5086  1.0920
 6287SOL     OW19241   2.318   1.062   1.633  0.5893  0.1236  0.2779
 6287SOL    HW119242   2.266   0.990   1.668 -1.8683  1.8626  0.3214
 6287SOL    HW219243   2.350   1.030   1.549  0.7637 -1.5526  0.9738
 6288SOL     OW19244   5.270   6.179   0.887  0.5382  0.5480  0.3772
 6288SOL    HW119245   5.178   6.153   0.891  0.1756  1.7752  0.3569
 6288SOL    HW219246   5.300   6.148   0.802 -0.3928  1.7752 -0.4273
 6289SOL     OW19247   5.579   5.897   0.778  0.0092 -0.6562 -0.1420
 6289SOL    HW119248   5.488   5.898   0.746 -0.8215  0.2359  2.1293
 6289SOL    HW219249   5.598   5.989   0.796  0.3699 -1.1538  2.0643
 6290SOL     OW19250   6.148   5.106   1.034  0.3425 -0.5088 -0.2489
 6290SOL    HW119251   6.226   5.159   1.017  0.1941 -0.5795 -1.1352
 6290SOL    HW219252   6.087   5.128   0.964  0.7032 -2.6615 -1.2982
 6291SOL     OW19253   4.151   5.138   0.291  0.7609 -0.4858  0.1046
 6291SOL    HW119254   4.083   5.072   0.304  0.8682 -0.4213  1.0392
 6291SOL    HW219255   4.213   5.098   0.231  0.9948 -1.3724  0.9300
 6292SOL     OW19256   5.216   5.127   4.297 -0.0062  0.2927  0.2452
 6292SOL    HW119257   5.248   5.215   4.275 -0.2697  0.4622  0.5338
 6292SOL    HW219258   5.186   5.091   4.214  0.1371  0.4623  0.1200
 6293SOL     OW19259   4.624   2.737   3.871 -0.3152 -0.2453 -0.1220
 6293SOL    HW119260   4.548   2.706   3.918  0.1252  0.7376  1.2549
 6293SOL    HW219261   4.689   2.668   3.882  0.2711  0.5940  1.9554
 6294SOL     OW19262   1.772   5.038   0.251  0.1502  0.2526 -0.1773
 6294SOL    HW119263   1.823   5.118   0.239 -1.3690  1.8361  3.1938
 6294SOL    HW219264   1.800   5.003   0.336 -2.0141 -0.6047  0.2296
 6295SOL     OW19265   0.246   4.438   5.861  0.3864  0.0956  0.3593
 6295SOL    HW119266   0.305   4.509   5.837  1.2731 -0.9520 -0.6609
 6295SOL    HW219267   0.237   4.445   5.956 -0.2505  2.0977  0.1731
 6296SOL     OW19268   5.116   4.844   3.666 -0.4139 -0.0897  0.6057
 6296SOL    HW119269   5.207   4.819   3.684 -0.1818  0.2598 -0.0527
 6296SOL    HW219270   5.067   4.763   3.672 -0.0090 -0.3361  0.6466
 6297SOL     OW19271   4.814   2.151   5.005 -0.1761 -0.1104 -0.2963
 6297SOL    HW119272   4.763   2.081   5.045  0.0581  0.9615  1.9893
 6297SOL    HW219273   4.904   2.132   5.029 -0.2983  1.9562  1.9904
 6298SOL     OW19274   0.857   5.697   2.847 -0.0777 -0.2293 -0.4532
 6298SOL    HW119275   0.939   5.683   2.894  0.3551  0.0841 -1.1126
 6298SOL    HW219276   0.806   5.753   2.905 -0.7044 -2.1949  0.9405
 6299SOL     OW19277   1.584   1.677   5.941 -0.1171 -0.5695  0.1576
 6299SOL    HW119278   1.562   1.721   6.023  0.2442 -0.4731  0.2059
 6299SOL    HW219279   1.583   1.748   5.876  1.5982 -0.2720  0.4336
 6300SOL     OW19280   4.676   6.346   2.621 -0.5117 -0.3716  0.6213
 6300SOL    HW119281   4.771   6.341   2.633 -0.2247 -0.2895 -1.4468
 6300SOL    HW219282   4.661   6.433   2.586 -0.7975 -1.8790 -3.3132
 6301SOL     OW19283   4.907   3.516   2.159  1.0283  0.6297  0.0998
 6301SOL    HW119284   4.968   3.538   2.089  0.5964  0.4332 -0.3323
 6301SOL    HW219285   4.822   3.506   2.116  0.9863 -0.7264  0.4518
 6302SOL     OW19286   2.200   1.418   0.034  0.4037  0.0469  0.1196
 6302SOL    HW119287   2.183   1.339  -0.018 -0.0879  0.2118  0.0240
 6302SOL    HW219288   2.283   1.400   0.078  0.1473 -0.6516  0.3371
 6303SOL     OW19289   2.976   2.062   2.470 -0.7190 -0.2060 -0.8521
 6303SOL    HW119290   2.881   2.067   2.462 -0.9713  0.0601  1.8413
 6303SOL    HW219291   2.998   1.975   2.437 -1.7114  0.2917 -2.8811
 6304SOL     OW19292   5.941   5.641   5.547  0.0055 -0.3326  0.0087
 6304SOL    HW119293   5.999   5.703   5.502  1.2423 -1.2997  0.2374
 6304SOL    HW219294   5.876   5.696   5.590  0.0217  0.7121 -1.2548
 6305SOL     OW19295   0.463   3.227   0.879 -0.1474 -0.1366  0.5495
 6305SOL    HW119296   0.407   3.211   0.803  1.5988 -0.1745 -0.7568
 6305SOL    HW219297   0.431   3.167   0.946 -1.5780 -0.2410 -0.2080
 6306SOL     OW19298   2.424   5.083   3.786 -0.1110 -0.2561  0.6239
 6306SOL    HW119299   2.373   5.142   3.841 -3.2155  0.4767 -2.8009
 6306SOL    HW219300   2.515   5.110   3.800 -1.1355  2.7216  2.1424
 6307SOL     OW19301   2.432   3.557   3.308  0.7718 -0.2439 -0.2404
 6307SOL    HW119302   2.442   3.632   3.366 -0.0186 -1.2015  1.1282
 6307SOL    HW219303   2.441   3.481   3.364 -0.3566 -1.1870 -1.3131
 6308SOL     OW19304   1.477   5.290   2.372  0.2735  0.3844  0.4732
 6308SOL    HW119305   1.569   5.297   2.347  0.3885 -0.9919  0.4753
 6308SOL    HW219306   1.430   5.337   2.303  0.7340 -1.7007 -1.3251
 6309SOL     OW19307   0.222   0.864   2.496 -0.3568 -0.3198 -0.6043
 6309SOL    HW119308   0.167   0.894   2.423 -0.5300 -2.0161 -1.2060
 6309SOL    HW219309   0.305   0.841   2.455  0.4777  1.2756  0.1585
 6310SOL     OW19310   2.767   3.323   3.827 -0.0676  0.4470  0.3838
 6310SOL    HW119311   2.797   3.249   3.880 -3.2103 -0.9383  0.3451
 6310SOL    HW219312   2.834   3.332   3.759  1.7856 -0.5636  2.0161
 6311SOL     OW19313   3.285   3.774   4.128 -0.8228  0.1152 -0.1946
 6311SOL    HW119314   3.239   3.728   4.059  0.0930 -2.8677  1.1273
 6311SOL    HW219315   3.282   3.715   4.203  2.8629  0.9228  0.6837
 6312SOL     OW19316   0.319   3.720   5.808  0.0510 -0.3414 -0.2951
 6312SOL    HW119317   0.304   3.751   5.897 -1.6364 -0.7704 -0.4047
 6312SOL    HW219318   0.340   3.800   5.758 -0.6478  0.1345  0.1580
 6313SOL     OW19319   0.074   4.578   2.075 -0.0783 -0.2337  1.0225
 6313SOL    HW119320   0.045   4.498   2.030  0.3441  1.4719 -2.4470
 6313SOL    HW219321   0.020   4.648   2.037  3.0758  1.8549  0.1923
 6314SOL     OW19322   0.154   5.202   5.498  0.0444 -0.5222 -0.2017
 6314SOL    HW119323   0.181   5.171   5.584  1.6165  0.8908 -0.1633
 6314SOL    HW219324   0.091   5.272   5.516  1.0924  0.4252 -0.1640
 6315SOL     OW19325   0.186   4.806   0.358 -0.2916  0.2321  0.3271
 6315SOL    HW119326   0.227   4.889   0.383  1.8375 -0.1470 -1.7216
 6315SOL    HW219327   0.225   4.741   0.417  0.6260  0.1717 -0.3383
 6316SOL     OW19328   1.797   4.128   4.755  0.0942  0.1068 -0.8837
 6316SOL    HW119329   1.854   4.192   4.797  0.2292 -0.1672 -0.6460
 6316SOL    HW219330   1.817   4.045   4.799 -1.1335  0.1672 -0.1669
 6317SOL     OW19331   1.361   5.332   5.574  0.7567 -0.2222  0.0913
 6317SOL    HW119332   1.424   5.397   5.542  0.9075 -0.8676 -0.9773
 6317SOL    HW219333   1.344   5.276   5.497 -3.5207  1.7777 -0.5857
 6318SOL     OW19334   4.694   5.059   2.200 -0.5172  0.4549 -0.2790
 6318SOL    HW119335   4.701   5.132   2.262 -0.7700  1.8457 -1.8571
 6318SOL    HW219336   4.785   5.037   2.179 -0.3168 -2.3948  3.2688
 6319SOL     OW19337   5.490   1.021   0.960  0.1292 -0.7988 -0.1778
 6319SOL    HW119338   5.537   0.938   0.952  1.4051 -0.2582  1.3195
 6319SOL    HW219339   5.445   1.032   0.877 -1.6042 -3.9033  0.3187
 6320SOL     OW19340   0.678   0.817   2.305  0.5083 -0.2733  0.3422
 6320SOL    HW119341   0.587   0.845   2.297  0.3031 -0.8277  0.6843
 6320SOL    HW219342   0.720   0.886   2.356 -0.1604 -0.9190  1.8152
 6321SOL     OW19343   5.755   0.390   2.603 -0.2353  0.4370  0.1443
 6321SOL    HW119344   5.712   0.448   2.540  1.4563  2.1896  0.5594
 6321SOL    HW219345   5.842   0.428   2.615  0.4862 -1.5254  1.3479
 6322SOL     OW19346   5.959   4.561   5.447  0.2723  0.3415  0.1538
 6322SOL    HW119347   5.985   4.573   5.538  0.1887 -0.2863  0.2563
 6322SOL    HW219348   5.908   4.639   5.426 -1.7015 -0.6116  1.3393
 6323SOL     OW19349   0.590   2.499   2.135  0.7384 -0.0039  0.4935
 6323SOL    HW119350   0.599   2.504   2.040  1.3474  0.1570  0.5592
 6323SOL    HW219351   0.628   2.581   2.167  0.7938 -0.1820  0.8939
 6324SOL     OW19352   0.310   4.829   6.016 -0.2374  0.0925  0.4888
 6324SOL    HW119353   0.282   4.836   5.925 -0.2779 -1.4218  0.3784
 6324SOL    HW219354   0.397   4.790   6.011 -0.0127  0.5034  1.0801
 6325SOL     OW19355   4.818   2.455   5.002 -0.1961 -0.3614  0.0310
 6325SOL    HW119356   4.844   2.414   5.084  1.2184  0.5210  0.0435
 6325SOL    HW219357   4.803   2.382   4.942  1.3713 -0.9325  0.3239
 6326SOL     OW19358   0.972   2.149   0.094 -0.2836  0.2860  0.2877
 6326SOL    HW119359   0.944   2.237   0.070 -1.0987  0.0389  0.3223
 6326SOL    HW219360   0.902   2.091   0.063  0.2232 -0.3458  0.3036
 6327SOL     OW19361   1.656   1.152   1.757  1.0561 -0.9388  0.5804
 6327SOL    HW119362   1.706   1.077   1.791  1.1606  0.0272  2.6273
 6327SOL    HW219363   1.653   1.214   1.830 -2.7853 -0.7830  0.3804
 6328SOL     OW19364   1.899   0.028   0.481 -0.8555 -0.1976 -0.1810
 6328SOL    HW119365   1.822  -0.020   0.511  0.8099 -2.5279  0.4678
 6328SOL    HW219366   1.927  -0.018   0.402  0.0102  0.5038 -0.2952
 6329SOL     OW19367   2.572   5.661   0.204  0.5661 -0.2047 -0.2375
 6329SOL    HW119368   2.496   5.683   0.258  1.0194  0.4497  0.1383
 6329SOL    HW219369   2.633   5.733   0.217  1.2901 -0.7608 -0.4839
 6330SOL     OW19370   5.892   2.903   0.003 -0.3164 -0.0629 -0.1204
 6330SOL    HW119371   5.983   2.891   0.031 -0.7396  2.3246  2.4823
 6330SOL    HW219372   5.841   2.850   0.064 -0.7838 -0.2168 -0.6405
 6331SOL     OW19373   4.679   4.762   4.682  0.1759  0.0230 -0.0295
 6331SOL    HW119374   4.633   4.732   4.604 -0.5218 -0.0637  0.4092
 6331SOL    HW219375   4.772   4.763   4.657 -0.2011  1.8098 -1.4635
 6332SOL     OW19376   3.793   0.012   2.527  0.1128  0.2986  0.2546
 6332SOL    HW119377   3.883   0.044   2.526  0.4172 -0.5627 -0.5424
 6332SOL    HW219378   3.765   0.023   2.618  1.9304 -1.9180  1.1391
 6333SOL     OW19379   0.180   3.671   0.707  0.4305  0.3010 -0.0151
 6333SOL    HW119380   0.217   3.759   0.697  2.1794 -0.3865  0.1779
 6333SOL    HW219381   0.232   3.617   0.648 -1.6639 -0.3323 -1.3079
 6334SOL     OW19382   1.700   4.494   5.658 -0.1390 -0.0857  0.6074
 6334SOL    HW119383   1.674   4.414   5.703 -1.1832 -0.4397 -0.5955
 6334SOL    HW219384   1.631   4.557   5.680 -0.4526 -0.1514 -0.1840
 6335SOL     OW19385   3.925   3.786   3.377 -0.0718 -0.0297 -0.2800
 6335SOL    HW119386   3.865   3.733   3.429 -0.2644  0.3658 -0.0973
 6335SOL    HW219387   3.969   3.843   3.441  0.1048  0.0575 -0.4771
 6336SOL     OW19388   5.907   1.853   2.494  0.3981 -0.5117 -0.6188
 6336SOL    HW119389   5.960   1.926   2.462  0.2001  0.0278  0.2660
 6336SOL    HW219390   5.942   1.776   2.449  2.7451 -0.3340  0.8208
 6337SOL     OW19391   5.975   0.528   2.650 -0.0452 -0.3358 -0.0872
 6337SOL    HW119392   6.061   0.557   2.619  0.1433 -0.9614 -0.1680
 6337SOL    HW219393   5.930   0.608   2.674  0.5154  0.0118 -0.1715
 6338SOL     OW19394   1.212   3.207   0.076 -0.4102  0.0945  0.7906
 6338SOL    HW119395   1.280   3.274   0.077  0.0313 -0.3299 -0.2107
 6338SOL    HW219396   1.250   3.134   0.126 -0.0844 -0.1815  0.1440
 6339SOL     OW19397   4.577   3.422   3.429  0.7483 -0.1711 -0.5511
 6339SOL    HW119398   4.642   3.492   3.431 -1.4570  1.9562 -0.6354
 6339SOL    HW219399   4.523   3.442   3.352 -0.1572 -1.7264 -0.3295
 6340SOL     OW19400   1.910   5.669   4.754  0.1243 -0.4762  0.1166
 6340SOL    HW119401   1.858   5.713   4.686  0.1876 -0.1200  0.2999
 6340SOL    HW219402   1.934   5.585   4.714  0.2426 -0.2294 -0.3365
 6341SOL     OW19403   1.674   6.124   0.996  0.1129  0.0875 -0.2112
 6341SOL    HW119404   1.681   6.210   1.036 -0.9650 -0.3157  0.9044
 6341SOL    HW219405   1.709   6.064   1.062 -3.5123 -0.7942  1.0343
 6342SOL     OW19406   0.827   2.599   5.202 -0.2367 -0.5534 -0.2643
 6342SOL    HW119407   0.846   2.600   5.108  0.5114 -0.7130 -0.1200
 6342SOL    HW219408   0.913   2.588   5.243 -0.1237  2.8795  0.5709
 6343SOL     OW19409   1.314   4.964   3.088 -0.1460  0.5315  0.0598
 6343SOL    HW119410   1.276   4.992   3.004  0.8124  1.3424 -0.1180
 6343SOL    HW219411   1.375   4.895   3.064  0.9921  1.5564 -0.0688
 6344SOL     OW19412   0.988   4.746   0.397  0.5271 -0.7643  0.0851
 6344SOL    HW119413   1.013   4.835   0.421  0.8056 -1.4140  2.2255
 6344SOL    HW219414   0.895   4.739   0.421  0.1570 -0.6621 -1.2560
 6345SOL     OW19415   5.936   2.807   3.527  0.4185 -0.1258 -0.2797
 6345SOL    HW119416   5.856   2.811   3.580  0.5251 -0.0261 -0.1227
 6345SOL    HW219417   5.978   2.892   3.543 -0.5061  0.7080 -2.0520
 6346SOL     OW19418   3.541   4.850   3.537  0.6972 -0.0392  0.3088
 6346SOL    HW119419   3.468   4.803   3.577 -0.0749  0.4551 -0.5162
 6346SOL    HW219420   3.544   4.933   3.585  0.0832  0.3494 -0.3149
 6347SOL     OW19421   1.088   0.630   4.974  0.0262 -0.4574  0.2644
 6347SOL    HW119422   1.109   0.686   4.900 -1.7360 -0.4069 -0.2205
 6347SOL    HW219423   1.061   0.690   5.043  0.0897 -0.5877  0.4024
 6348SOL     OW19424   0.213   0.330   2.817 -0.0176 -0.2845  0.2931
 6348SOL    HW119425   0.290   0.344   2.873  0.3093  1.9094 -0.6459
 6348SOL    HW219426   0.163   0.263   2.862  1.9488 -1.0190  1.4535
 6349SOL     OW19427   4.161   1.544   2.520  0.8314  0.2775 -0.6107
 6349SOL    HW119428   4.174   1.627   2.475  2.8911  1.2221  1.5993
 6349SOL    HW219429   4.066   1.531   2.518  0.5182  2.4085 -1.4848
 6350SOL     OW19430   6.132   3.708   5.598  0.0347 -0.0276 -0.4087
 6350SOL    HW119431   6.208   3.653   5.610  0.5093  0.3508 -1.6398
 6350SOL    HW219432   6.092   3.713   5.685  2.3353  1.1333  0.6321
 6351SOL     OW19433   2.268   3.844   5.479 -0.3793 -0.1087 -0.2001
 6351SOL    HW119434   2.179   3.876   5.468 -1.2409 -1.6999  1.7198
 6351SOL    HW219435   2.262   3.779   5.549  2.0959 -1.0715 -0.7966
 6352SOL     OW19436   2.225   1.585   5.018  0.6210  0.4540  0.0046
 6352SOL    HW119437   2.251   1.666   5.061  0.4668  0.1705  0.6261
 6352SOL    HW219438   2.305   1.554   4.975  0.4454  1.4460 -1.0584
 6353SOL     OW19439   0.841   5.503   2.679  0.0299 -1.2489  0.1717
 6353SOL    HW119440   0.862   5.576   2.737 -4.7467 -0.3595  1.0472
 6353SOL    HW219441   0.814   5.544   2.597 -0.9878 -2.1001  0.0713
 6354SOL     OW19442   4.515   1.741   0.798  0.3267  0.1798  0.0797
 6354SOL    HW119443   4.472   1.821   0.828 -0.3167 -0.9092  2.2224
 6354SOL    HW219444   4.529   1.690   0.878  2.6914 -0.9218 -0.9703
 6355SOL     OW19445   5.783   0.704   6.181  0.3368  0.4020  0.7145
 6355SOL    HW119446   5.838   0.640   6.227 -0.9107 -2.0017 -1.0253
 6355SOL    HW219447   5.697   0.697   6.224  0.2564  1.0890  0.6674
 6356SOL     OW19448   3.769   1.370   5.296  0.0361  0.0566 -0.6629
 6356SOL    HW119449   3.799   1.361   5.205 -0.2204 -3.4845 -0.4691
 6356SOL    HW219450   3.680   1.337   5.295 -0.1083  0.3782  0.8106
 6357SOL     OW19451   4.301   2.634   4.304 -0.1899  0.2771  0.2945
 6357SOL    HW119452   4.355   2.633   4.224  1.7080  1.2443  1.5104
 6357SOL    HW219453   4.327   2.556   4.352 -0.8959  0.0116  0.2483
 6358SOL     OW19454   4.350   2.438   4.468 -0.1733  0.1068  0.0505
 6358SOL    HW119455   4.402   2.507   4.508  0.4311  1.3702 -2.7603
 6358SOL    HW219456   4.397   2.357   4.489  1.9891  1.0541 -0.9468
 6359SOL     OW19457   2.179   2.309   1.638 -0.6595  0.3259 -0.2388
 6359SOL    HW119458   2.152   2.253   1.564  0.8461  0.2081 -0.7210
 6359SOL    HW219459   2.235   2.252   1.691  0.0362  1.0634 -0.1796
 6360SOL     OW19460   2.932   1.069   4.539  0.0183  0.3787 -0.3854
 6360SOL    HW119461   2.873   1.065   4.614  0.2087 -1.3460 -0.3184
 6360SOL    HW219462   2.987   0.991   4.546  2.6699  2.2101 -0.1772
 6361SOL     OW19463   3.329   1.089   1.402  0.2831 -0.8738  0.8290
 6361SOL    HW119464   3.259   1.103   1.338  0.6582 -0.7953  0.4363
 6361SOL    HW219465   3.406   1.067   1.349  0.0906 -2.8604  1.3358
 6362SOL     OW19466   0.037   5.556   4.826  0.2812 -0.2298 -0.0407
 6362SOL    HW119467   0.121   5.587   4.859 -1.6289  3.5385  1.5613
 6362SOL    HW219468   0.002   5.501   4.896 -0.2447  1.3039  0.9200
 6363SOL     OW19469   3.956   5.293   3.505  0.3040  0.5607 -0.0814
 6363SOL    HW119470   4.049   5.316   3.500  0.5181 -0.2945 -0.1190
 6363SOL    HW219471   3.931   5.275   3.414  0.2090  0.3611 -0.0156
 6364SOL     OW19472   4.809   4.163   1.959  0.0171 -0.2683  0.1546
 6364SOL    HW119473   4.762   4.246   1.962  0.5556  0.1143 -1.5820
 6364SOL    HW219474   4.809   4.132   2.050 -0.1377  1.6398  0.8156
 6365SOL     OW19475   2.122   0.657   0.364 -0.1681 -0.6502  0.2798
 6365SOL    HW119476   2.041   0.605   0.371 -0.0881 -0.6117  1.7916
 6365SOL    HW219477   2.190   0.599   0.398 -0.1019  0.4825  2.1490
 6366SOL     OW19478   2.622   4.871   2.905  0.3074 -0.3739 -0.2665
 6366SOL    HW119479   2.585   4.821   2.832  1.1536 -1.1860 -0.1421
 6366SOL    HW219480   2.717   4.868   2.890  0.4937 -0.7128  0.9864
 6367SOL     OW19481   1.655   4.839   5.980 -0.0403 -0.1577  0.5281
 6367SOL    HW119482   1.592   4.910   5.978 -1.0825 -1.0889 -1.0658
 6367SOL    HW219483   1.663   4.815   6.073 -0.5960  1.2045  0.9306
 6368SOL     OW19484   5.643   3.369   0.478 -0.5117 -0.1588 -0.2766
 6368SOL    HW119485   5.578   3.328   0.535 -0.3469  0.8629  0.6537
 6368SOL    HW219486   5.612   3.459   0.467  0.9249  0.4348  0.4501
 6369SOL     OW19487   3.366   3.965   1.441 -0.0411  0.1954 -0.2623
 6369SOL    HW119488   3.426   3.891   1.450 -0.2296  0.0357 -0.3152
 6369SOL    HW219489   3.394   4.028   1.507  0.9488  0.6379 -1.0908
 6370SOL     OW19490   0.344   4.179   2.232  0.3875  0.1809 -0.2089
 6370SOL    HW119491   0.351   4.084   2.235 -0.3008  0.1017 -1.0501
 6370SOL    HW219492   0.419   4.210   2.283  0.3242 -0.8140  0.4906
 6371SOL     OW19493   1.953   4.313   0.929 -0.5926  0.4177 -0.2612
 6371SOL    HW119494   1.984   4.284   0.843 -0.5645  0.0483 -0.1247
 6371SOL    HW219495   1.882   4.374   0.909 -0.9297 -0.0645 -0.5349
 6372SOL     OW19496   2.108   0.094   1.256 -0.3473 -0.0557 -0.7895
 6372SOL    HW119497   2.154   0.094   1.172 -1.6513  2.4825 -1.5614
 6372SOL    HW219498   2.059   0.176   1.256 -1.0404 -0.4298  2.1033
 6373SOL     OW19499   4.267   5.435   3.966  0.6744  0.1375 -0.0689
 6373SOL    HW119500   4.248   5.522   4.001  0.9399 -0.4259  1.5244
 6373SOL    HW219501   4.359   5.440   3.938 -0.3916  1.5185 -3.6547
 6374SOL     OW19502   2.848   2.414   1.049  0.0443 -0.0982 -0.1970
 6374SOL    HW119503   2.892   2.332   1.029 -1.9414 -1.4985  1.1022
 6374SOL    HW219504   2.804   2.439   0.967  2.2938  0.7816 -1.1998
 6375SOL     OW19505   5.266   3.697   3.554  0.1302  0.1475  0.0101
 6375SOL    HW119506   5.211   3.625   3.587  0.4696 -0.6447 -1.1424
 6375SOL    HW219507   5.233   3.715   3.467  0.4486  0.9859  0.0588
 6376SOL     OW19508   0.874   5.824   4.706 -0.3813  0.7776 -0.4123
 6376SOL    HW119509   0.888   5.810   4.613 -0.8173  0.5963 -0.4512
 6376SOL    HW219510   0.955   5.794   4.748 -0.6199 -0.1938 -0.6411
 6377SOL     OW19511   4.380   5.559   1.458  0.1658  0.3659  0.0884
 6377SOL    HW119512   4.315   5.626   1.436 -0.4871 -0.1994  0.2713
 6377SOL    HW219513   4.330   5.493   1.505  0.9118 -0.0028  0.3630
 6378SOL     OW19514   3.810   5.849   2.198 -0.1933  0.4525  0.2272
 6378SOL    HW119515   3.788   5.929   2.245  0.7918  0.6809  0.3193
 6378SOL    HW219516   3.726   5.805   2.185 -0.9169  2.1142 -0.9508
 6379SOL     OW19517   0.424   0.414   5.925  0.7835 -0.2716 -0.4827
 6379SOL    HW119518   0.408   0.409   5.831 -2.7211 -2.5061  0.1808
 6379SOL    HW219519   0.435   0.323   5.953 -0.2546  0.2195  1.6135
 6380SOL     OW19520   5.564   3.726   0.010  0.7126 -0.2305  0.3663
 6380SOL    HW119521   5.478   3.761  -0.014  0.7845  0.8405  1.6086
 6380SOL    HW219522   5.611   3.719  -0.073  0.5419  2.2793  0.0060
 6381SOL     OW19523   0.301   6.110   3.070  0.5945  0.1261 -0.2505
 6381SOL    HW119524   0.279   6.052   3.143  0.5355  0.3491 -0.0925
 6381SOL    HW219525   0.248   6.188   3.084 -0.4757 -0.3952 -1.2964
 6382SOL     OW19526   5.199   1.135   3.373 -0.0884  0.1099 -0.4518
 6382SOL    HW119527   5.176   1.141   3.281  0.2238  0.7328 -0.4863
 6382SOL    HW219528   5.234   1.046   3.384  0.5892  0.3088 -1.0785
 6383SOL     OW19529   1.716   0.199   1.123  0.4049  0.3959  0.4484
 6383SOL    HW119530   1.769   0.143   1.066 -0.0107  0.0049  0.4436
 6383SOL    HW219531   1.767   0.280   1.132  2.2452 -0.9701  2.6233
 6384SOL     OW19532   3.601   4.798   5.158  0.1733  0.0201  0.2626
 6384SOL    HW119533   3.590   4.823   5.250  0.1575  0.0952  0.2402
 6384SOL    HW219534   3.630   4.707   5.161  0.5247  0.1346  0.3541
 6385SOL     OW19535   2.830   1.594   3.114  0.3818 -0.0066 -0.2312
 6385SOL    HW119536   2.842   1.505   3.079  0.1027 -0.2650  0.3082
 6385SOL    HW219537   2.837   1.583   3.209 -0.1289  0.4680 -0.1338
 6386SOL     OW19538   2.229   6.011   0.028 -0.3137  0.0689  0.1153
 6386SOL    HW119539   2.199   6.040   0.114  1.1727  0.0313  0.6523
 6386SOL    HW219540   2.245   5.917   0.039  0.0220  0.0930 -0.1610
 6387SOL     OW19541   1.934   2.196   2.826  0.1028  0.2390  0.0635
 6387SOL    HW119542   1.894   2.120   2.869 -0.3488  1.8347  2.5872
 6387SOL    HW219543   2.021   2.202   2.866 -0.0342  1.3127  0.2002
 6388SOL     OW19544   3.986   5.332   4.163  0.1044 -0.0205 -0.1989
 6388SOL    HW119545   3.959   5.304   4.250 -0.6908  4.4321  1.1189
 6388SOL    HW219546   4.069   5.379   4.179 -0.2811  1.2014 -1.7592
 6389SOL     OW19547   2.547   6.140   4.526 -0.0218  0.3009 -0.0977
 6389SOL    HW119548   2.523   6.137   4.433 -0.5960 -0.6946  0.0694
 6389SOL    HW219549   2.520   6.054   4.560 -0.0972  0.7726  1.0545
 6390SOL     OW19550   5.180   4.755   5.185 -0.0571  0.7296  0.4283
 6390SOL    HW119551   5.219   4.807   5.115  1.1288 -0.6489  0.0182
 6390SOL    HW219552   5.114   4.812   5.224  1.2226  2.5234  0.0346
 6391SOL     OW19553   1.287   1.413   5.409 -0.2515 -0.4100  0.2487
 6391SOL    HW119554   1.241   1.340   5.451 -2.5455  0.7328 -0.2076
 6391SOL    HW219555   1.218   1.464   5.367  1.3375  1.8956  0.3590
 6392SOL     OW19556   4.459   1.929   3.156  0.0096 -0.9056 -0.2697
 6392SOL    HW119557   4.489   1.848   3.115  0.7507 -1.2725  0.9442
 6392SOL    HW219558   4.484   1.919   3.248 -2.3141 -0.4513  0.4310
 6393SOL     OW19559   3.647   4.598   5.511  0.2706  0.6826  0.1804
 6393SOL    HW119560   3.612   4.688   5.511  0.8214  0.8965  0.5374
 6393SOL    HW219561   3.742   4.609   5.511  0.3550  0.0998 -0.9233
 6394SOL     OW19562   2.130   4.625   4.565  0.4830  0.0454 -0.1360
 6394SOL    HW119563   2.076   4.638   4.487  0.1970  0.4092  0.1241
 6394SOL    HW219564   2.166   4.536   4.555  0.4574  0.0980 -0.6866
 6395SOL     OW19565   3.442   1.098   6.309  1.0330 -0.1694 -0.1181
 6395SOL    HW119566   3.371   1.066   6.254 -0.1808 -2.4629  2.6925
 6395SOL    HW219567   3.412   1.184   6.340 -0.3655 -0.9542  0.7384
 6396SOL     OW19568   1.014   2.166   5.225  0.1172  0.1593 -0.8317
 6396SOL    HW119569   0.983   2.190   5.138  0.4649  1.0873 -0.7047
 6396SOL    HW219570   1.027   2.071   5.221 -3.0064 -0.3289 -0.7921
 6397SOL     OW19571   1.513   1.221   5.996 -0.2373 -0.1013 -0.4434
 6397SOL    HW119572   1.479   1.155   6.057  0.1189 -1.5070 -1.7364
 6397SOL    HW219573   1.442   1.285   5.989 -0.9738 -0.8360  0.1115
 6398SOL     OW19574   2.004   3.602   5.321 -0.1443 -0.6076  0.3011
 6398SOL    HW119575   1.933   3.540   5.336 -1.0502 -0.0444 -1.5333
 6398SOL    HW219576   2.084   3.551   5.331 -0.8589 -1.7917 -0.0387
 6399SOL     OW19577   5.898   2.336   5.189  0.6659 -0.5398 -0.4548
 6399SOL    HW119578   5.917   2.304   5.101  1.2595  0.1553 -0.5860
 6399SOL    HW219579   5.805   2.319   5.201  0.3026  0.4445 -1.6835
 6400SOL     OW19580   5.843   1.290   5.093 -0.4675 -0.0538 -0.0177
 6400SOL    HW119581   5.839   1.359   5.159  0.6748 -1.0529  1.1121
 6400SOL    HW219582   5.762   1.240   5.106  0.3413 -1.0120  1.5015
 6401SOL     OW19583   6.194   4.207   4.465  0.2472  0.4523  0.0612
 6401SOL    HW119584   6.115   4.198   4.411  0.9252  0.8697 -1.0194
 6401SOL    HW219585   6.236   4.121   4.461 -0.4556  0.0521  1.1296
 6402SOL     OW19586   5.521   4.673   5.416 -0.2109  0.1905 -0.5905
 6402SOL    HW119587   5.525   4.739   5.348  0.9389  0.7659  0.0058
 6402SOL    HW219588   5.568   4.712   5.490  0.9847 -1.4975 -0.4234
 6403SOL     OW19589   1.303   3.055   4.810  0.1912  0.9725 -0.3332
 6403SOL    HW119590   1.263   2.995   4.873  0.8903 -1.0423 -1.7284
 6403SOL    HW219591   1.260   3.033   4.727  0.4174  2.4640 -0.8444
 6404SOL     OW19592   3.010   4.609   2.733  0.2512  0.0158  0.1301
 6404SOL    HW119593   2.943   4.542   2.727 -1.1588  1.3398  0.6939
 6404SOL    HW219594   3.033   4.628   2.642 -1.7846  1.1452 -0.1725
 6405SOL     OW19595   5.638   3.265   1.631  0.0199  0.2356 -0.7347
 6405SOL    HW119596   5.674   3.182   1.599 -2.7470 -0.7996 -1.3030
 6405SOL    HW219597   5.637   3.322   1.555  0.3854  0.2414 -0.7351
 6406SOL     OW19598   1.262   2.626   1.654 -0.5788 -0.1374  0.5028
 6406SOL    HW119599   1.327   2.561   1.679 -1.8906 -1.8544 -0.3716
 6406SOL    HW219600   1.258   2.621   1.559 -2.3060 -0.4292  0.5613
 6407SOL     OW19601   2.444   6.297   0.307  0.1033  0.0481 -0.1567
 6407SOL    HW119602   2.454   6.377   0.359 -0.5864  0.1396 -0.1579
 6407SOL    HW219603   2.490   6.316   0.225 -1.2480  0.9769 -0.7249
 6408SOL     OW19604   2.150   2.621   3.806  0.0888 -0.0856  0.5593
 6408SOL    HW119605   2.093   2.547   3.827  0.4318 -0.1696  1.1920
 6408SOL    HW219606   2.144   2.678   3.882  0.0727  0.3930  0.2023
 6409SOL     OW19607   3.506   2.541   2.274 -0.8552  0.4382 -0.2553
 6409SOL    HW119608   3.535   2.454   2.300 -0.4245  0.9963  1.1705
 6409SOL    HW219609   3.544   2.600   2.340 -1.0424  1.7133 -1.2722
 6410SOL     OW19610   0.594   0.012   0.775  0.4352  0.0642  0.7307
 6410SOL    HW119611   0.545  -0.037   0.709  1.7694 -0.0553 -0.2058
 6410SOL    HW219612   0.563  -0.022   0.859 -2.3962  1.2933  0.2225
 6411SOL     OW19613   0.910   0.681   3.004  0.4091 -0.7349 -0.2424
 6411SOL    HW119614   0.887   0.759   3.054 -0.2205  0.1878 -1.9092
 6411SOL    HW219615   0.871   0.696   2.918  1.1179 -2.4546 -0.8873
 6412SOL     OW19616   2.675   0.039   4.752 -0.4630  0.0502 -0.1120
 6412SOL    HW119617   2.585   0.046   4.782 -0.5109  0.3904 -0.3335
 6412SOL    HW219618   2.721   0.111   4.797 -0.2568 -0.2447  0.1577
 6413SOL     OW19619   5.883   3.709   2.659 -0.5267 -0.4634  0.1906
 6413SOL    HW119620   5.864   3.792   2.617  0.1537 -1.0296 -1.2787
 6413SOL    HW219621   5.849   3.643   2.599 -2.6554 -1.2431  2.1636
 6414SOL     OW19622   5.417   1.548   4.415  0.1610  0.0507 -0.2888
 6414SOL    HW119623   5.404   1.641   4.437  0.9313 -0.3665  2.0777
 6414SOL    HW219624   5.512   1.539   4.410  0.0565 -0.4222 -1.4340
 6415SOL     OW19625   2.596   3.503   4.502  0.0545  0.0353 -0.2444
 6415SOL    HW119626   2.605   3.594   4.474  0.6466  0.3641  0.9753
 6415SOL    HW219627   2.679   3.462   4.476  1.0465  0.6003  1.9273
 6416SOL     OW19628   3.263   3.292   1.515  0.0664 -0.1924  0.6158
 6416SOL    HW119629   3.211   3.213   1.530  0.4806 -0.4254  0.8462
 6416SOL    HW219630   3.348   3.272   1.554  0.9891 -0.5957 -1.5190
 6417SOL     OW19631   2.632   2.802   0.313 -0.0398  0.1449 -0.2063
 6417SOL    HW119632   2.621   2.798   0.408 -3.2636  1.5281 -0.4606
 6417SOL    HW219633   2.578   2.730   0.280 -0.9656  1.2433 -1.1077
 6418SOL     OW19634   1.110   1.619   2.841 -0.2506 -0.1206 -0.2928
 6418SOL    HW119635   1.052   1.680   2.794  0.3075  1.0915  0.5699
 6418SOL    HW219636   1.198   1.652   2.823  0.0744 -0.8779 -0.0908
 6419SOL     OW19637   3.677   1.037   1.330 -0.1486 -0.0391  0.1857
 6419SOL    HW119638   3.607   1.021   1.267 -0.0208 -0.0909  0.0571
 6419SOL    HW219639   3.640   1.010   1.414 -0.5593  0.6643  0.2399
 6420SOL     OW19640   2.126   2.276   4.878  0.1974 -0.3286 -0.2048
 6420SOL    HW119641   2.158   2.344   4.819 -0.0361 -0.8643 -0.9510
 6420SOL    HW219642   2.106   2.202   4.822  2.0081 -1.6109  0.7987
 6421SOL     OW19643   4.455   2.752   2.940  0.5802  0.0514 -0.4640
 6421SOL    HW119644   4.388   2.819   2.925  0.4397 -0.6517 -3.3284
 6421SOL    HW219645   4.442   2.726   3.031 -1.6298  1.4476 -0.3110
 6422SOL     OW19646   2.895   2.595   1.980  0.1615  0.0162  0.5705
 6422SOL    HW119647   2.857   2.563   2.062 -0.0420  1.5118  1.0781
 6422SOL    HW219648   2.988   2.607   2.000  0.6479 -2.1700 -0.2220
 6423SOL     OW19649   4.851   3.984   0.505  1.0689  0.1212 -0.1661
 6423SOL    HW119650   4.874   3.969   0.413  0.9226  0.3723 -0.2437
 6423SOL    HW219651   4.877   3.903   0.549  0.2665 -0.3804 -0.5906
 6424SOL     OW19652   1.925   2.151   3.139 -0.0500 -0.2674 -0.0028
 6424SOL    HW119653   2.008   2.194   3.120  0.3177 -0.7686  0.4696
 6424SOL    HW219654   1.878   2.214   3.195  0.6613 -0.6535  1.0377
 6425SOL     OW19655   1.663   0.229   4.176  0.5254  0.3511 -0.3613
 6425SOL    HW119656   1.704   0.251   4.259  2.1351 -0.9392 -0.7704
 6425SOL    HW219657   1.569   0.233   4.193  0.8344 -0.1228  1.5829
 6426SOL     OW19658   2.209   0.507   1.892  0.2128 -0.6478  0.3497
 6426SOL    HW119659   2.300   0.520   1.865  0.0047 -1.8328 -0.9999
 6426SOL    HW219660   2.160   0.572   1.841  0.1568 -0.8602  0.1347
 6427SOL     OW19661   4.451   4.580   0.418  0.2660  0.0396  0.2110
 6427SOL    HW119662   4.390   4.510   0.393 -2.0425  1.7804  0.7784
 6427SOL    HW219663   4.515   4.537   0.475 -0.3153 -1.8692 -0.5239
 6428SOL     OW19664   2.482   4.188   3.207  0.1313  0.1091  0.3245
 6428SOL    HW119665   2.402   4.171   3.157 -0.6927  2.1769  0.8790
 6428SOL    HW219666   2.451   4.204   3.296  1.1262  1.3417  0.4610
 6429SOL     OW19667   1.285   5.182   0.007  0.3164  0.1496 -0.2854
 6429SOL    HW119668   1.332   5.210   0.086 -0.5737  0.0517  0.2846
 6429SOL    HW219669   1.349   5.191  -0.064  0.3261  2.7149  0.0262
 6430SOL     OW19670   2.474   2.779   2.849  0.2951  0.8397 -0.0514
 6430SOL    HW119671   2.561   2.783   2.889 -0.0212  0.8958  0.6424
 6430SOL    HW219672   2.489   2.745   2.761  0.7221 -1.8820  1.0255
 6431SOL     OW19673   1.712   4.089   5.992  0.0704  0.2101 -0.2916
 6431SOL    HW119674   1.713   4.163   5.932 -1.9419 -0.0740 -0.7256
 6431SOL    HW219675   1.629   4.044   5.973  0.1216 -0.7548  1.6382
 6432SOL     OW19676   3.728   2.953   5.091  0.7381  0.1321 -0.4452
 6432SOL    HW119677   3.724   2.981   4.999  1.2315  0.0723 -0.4871
 6432SOL    HW219678   3.745   2.859   5.087  1.1194  0.1944 -0.2916
 6433SOL     OW19679   1.853   5.551   5.407  0.0087  0.1370  0.3945
 6433SOL    HW119680   1.819   5.640   5.398  2.3384  1.2292  2.1413
 6433SOL    HW219681   1.922   5.544   5.340  1.2776  0.3710  1.6667
 6434SOL     OW19682   4.397   3.874   1.879  0.0080 -0.0795  0.0400
 6434SOL    HW119683   4.398   3.904   1.788 -1.1867  0.7414  0.2752
 6434SOL    HW219684   4.475   3.820   1.888 -0.6087 -1.3465 -1.8694
 6435SOL     OW19685   0.841   1.558   1.566  0.1095 -0.3119  0.4053
 6435SOL    HW119686   0.932   1.536   1.546  0.2126  1.1973 -0.8778
 6435SOL    HW219687   0.794   1.543   1.484 -0.4338  0.8483  0.4936
 6436SOL     OW19688   2.388   2.427   3.786 -0.4249  0.4444  0.1301
 6436SOL    HW119689   2.336   2.384   3.855  0.4399  1.3529  1.3635
 6436SOL    HW219690   2.351   2.515   3.779 -0.6457  0.2902 -0.7267
 6437SOL     OW19691   2.968   0.726   3.989  0.1056  0.4433  0.0966
 6437SOL    HW119692   2.927   0.640   3.982  1.7266 -0.3830  0.5509
 6437SOL    HW219693   2.895   0.788   3.985 -1.2958 -1.0294  2.1910
 6438SOL     OW19694   2.995   4.225   1.650  0.2817 -0.5663 -0.3117
 6438SOL    HW119695   3.035   4.283   1.585  1.2997 -1.4907 -0.5337
 6438SOL    HW219696   2.983   4.142   1.603 -3.2206  0.0946 -0.6741
 6439SOL     OW19697   3.016   6.351   3.340 -0.0959  0.1707  0.4123
 6439SOL    HW119698   3.018   6.258   3.363  0.2532  0.2236  0.6020
 6439SOL    HW219699   3.034   6.396   3.422 -2.4504  0.4883  0.7635
 6440SOL     OW19700   5.714   4.700   3.094 -0.0348  0.6248  0.5813
 6440SOL    HW119701   5.711   4.794   3.111 -0.2135  0.3395  2.2119
 6440SOL    HW219702   5.781   4.666   3.154  2.1069  0.1021 -2.0055
 6441SOL     OW19703   4.185   5.017   3.062  0.2453 -0.1428 -0.4219
 6441SOL    HW119704   4.200   4.946   3.125 -0.0649 -1.6032 -1.9561
 6441SOL    HW219705   4.091   5.013   3.044  0.1255  1.0426 -0.0867
 6442SOL     OW19706   3.866   6.186   1.003  0.4601 -0.0898  0.4995
 6442SOL    HW119707   3.931   6.214   1.068 -0.5913  3.0018  0.2758
 6442SOL    HW219708   3.843   6.266   0.955  0.7600 -2.1612 -3.3254
 6443SOL     OW19709   2.370   3.378   4.577 -0.3336 -0.1216 -0.3962
 6443SOL    HW119710   2.382   3.362   4.483 -0.9498 -0.0404 -0.4924
 6443SOL    HW219711   2.456   3.404   4.608 -0.5741  2.0130 -1.3781
 6444SOL     OW19712   1.232   2.995   5.206 -0.0164 -0.0049 -0.3769
 6444SOL    HW119713   1.175   2.943   5.262 -3.2264  2.9223 -0.7323
 6444SOL    HW219714   1.229   2.951   5.121 -0.6406 -0.6678 -0.0149
 6445SOL     OW19715   4.724   4.769   0.422  0.6044  0.1557 -0.1659
 6445SOL    HW119716   4.784   4.704   0.385 -1.3929 -0.5278 -2.3170
 6445SOL    HW219717   4.693   4.820   0.347  0.6222  2.3248  1.2538
 6446SOL     OW19718   5.973   4.350   1.291  0.1046  0.3395  0.2227
 6446SOL    HW119719   6.041   4.333   1.226 -0.3621 -0.9981  0.0679
 6446SOL    HW219720   6.021   4.375   1.370  0.8542 -1.6525  0.4307
 6447SOL     OW19721   1.153   5.688   5.755  0.1086 -0.2587 -0.4797
 6447SOL    HW119722   1.158   5.634   5.834  0.3970  0.6647  0.1383
 6447SOL    HW219723   1.149   5.625   5.683 -0.0553 -1.1051  0.2654
 6448SOL     OW19724   2.181   3.882   1.976 -0.1022 -0.3344  0.4078
 6448SOL    HW119725   2.151   3.902   1.888  0.7873  0.1572  0.1997
 6448SOL    HW219726   2.264   3.835   1.963  0.4452  0.4503  0.9800
 6449SOL     OW19727   4.110   2.748   6.095 -0.1282 -0.4485 -0.2327
 6449SOL    HW119728   4.029   2.768   6.047 -0.0814  1.5643  0.4824
 6449SOL    HW219729   4.080   2.721   6.182 -0.0684 -0.3095 -0.1679
 6450SOL     OW19730   1.851   2.909   4.629  0.0841 -0.1499 -0.0704
 6450SOL    HW119731   1.923   2.916   4.692  0.6978 -1.3350 -0.6194
 6450SOL    HW219732   1.776   2.883   4.683  0.6981 -1.5512  0.1440
 6451SOL     OW19733   5.766   0.893   3.933 -0.2241  0.6563 -0.4414
 6451SOL    HW119734   5.745   0.986   3.932  0.7354  0.8952  0.1649
 6451SOL    HW219735   5.682   0.848   3.936 -0.6730  1.5236  0.0052
 6452SOL     OW19736   5.969   2.169   6.295  0.3234 -0.1383  0.4327
 6452SOL    HW119737   6.045   2.131   6.251 -0.9187 -0.8886 -1.1209
 6452SOL    HW219738   5.954   2.251   6.247  1.0459  0.7502  1.7028
 6453SOL     OW19739   0.128   0.614   0.639 -0.4742  0.4780 -0.0473
 6453SOL    HW119740   0.033   0.600   0.634 -0.4641  0.9018 -1.6370
 6453SOL    HW219741   0.165   0.542   0.589  0.0694  0.1711  0.7862
 6454SOL     OW19742   5.394   3.271   5.575  0.3124  0.3653 -0.0297
 6454SOL    HW119743   5.303   3.262   5.604  0.2908 -1.0350 -0.4874
 6454SOL    HW219744   5.388   3.295   5.483  0.4014 -0.5369 -0.2770
 6455SOL     OW19745   3.308   4.353   4.766  0.0699 -0.0842  0.1969
 6455SOL    HW119746   3.338   4.272   4.723 -1.1670 -0.4145 -0.0635
 6455SOL    HW219747   3.241   4.324   4.828 -2.3070  0.9676 -1.7606
 6456SOL     OW19748   1.572   2.378   0.112  0.1645 -0.1309  0.9670
 6456SOL    HW119749   1.552   2.433   0.187 -0.8702 -0.1739  0.7341
 6456SOL    HW219750   1.512   2.408   0.043  0.2547 -0.8897  0.5409
 6457SOL     OW19751   1.534   4.303   3.014  0.0334 -0.1216  0.1035
 6457SOL    HW119752   1.464   4.240   2.997 -0.8024  0.8681 -0.2144
 6457SOL    HW219753   1.488   4.384   3.038  1.0736  0.4796  0.1108
 6458SOL     OW19754   5.241   4.724   6.331  0.3084 -0.3338 -0.2910
 6458SOL    HW119755   5.238   4.800   6.273 -1.6125 -0.2223 -0.0826
 6458SOL    HW219756   5.331   4.722   6.363  0.0680  2.6645  0.7290
 6459SOL     OW19757   1.206   2.170   0.595 -0.6607  0.5344 -0.4317
 6459SOL    HW119758   1.118   2.181   0.557 -0.7269 -0.9346 -0.7456
 6459SOL    HW219759   1.260   2.141   0.521 -0.5366 -1.2718  0.3361
 6460SOL     OW19760   3.755   1.540   0.993  0.7305  0.2924 -0.2223
 6460SOL    HW119761   3.700   1.476   1.040 -0.1835  0.7849 -0.6057
 6460SOL    HW219762   3.796   1.489   0.924  0.5410 -0.0241 -0.1043
 6461SOL     OW19763   4.774   5.895   1.275  0.8277  0.6616  0.3084
 6461SOL    HW119764   4.825   5.835   1.221 -0.7595 -0.4327  0.0027
 6461SOL    HW219765   4.683   5.873   1.257  0.2344  2.2494  1.2332
 6462SOL     OW19766   3.419   2.904   1.611  0.1567  0.2476  0.1514
 6462SOL    HW119767   3.362   2.897   1.688 -0.9247 -1.1368 -0.7312
 6462SOL    HW219768   3.360   2.934   1.542  1.0114  0.9823 -0.2553
 6463SOL     OW19769   2.325   0.504   0.566  0.2085  0.1432 -0.0612
 6463SOL    HW119770   2.285   0.579   0.611 -1.0753  0.5273 -1.7656
 6463SOL    HW219771   2.405   0.486   0.615 -0.0004  1.9804  1.0032
 6464SOL     OW19772   3.860   1.539   3.748 -0.3513 -0.4599  0.7025
 6464SOL    HW119773   3.920   1.469   3.773 -0.5124 -1.2991 -1.2031
 6464SOL    HW219774   3.917   1.607   3.712 -0.2757  0.0462  1.7559
 6465SOL     OW19775   0.180   1.166   3.053  0.2713 -0.1967 -0.1240
 6465SOL    HW119776   0.189   1.221   2.975 -2.1409  1.8289  0.9565
 6465SOL    HW219777   0.088   1.142   3.055  0.4943 -0.9836  1.6491
 6466SOL     OW19778   4.635   4.937   2.695 -0.3108  0.1091  0.2573
 6466SOL    HW119779   4.707   4.876   2.676 -1.2159 -1.0862  0.6105
 6466SOL    HW219780   4.657   5.016   2.645  1.1801 -0.2849  0.2631
 6467SOL     OW19781   6.197   0.449   5.093 -0.0388  0.0410 -0.2583
 6467SOL    HW119782   6.142   0.473   5.168 -0.0677  0.8861 -0.5508
 6467SOL    HW219783   6.240   0.368   5.121  1.9571  1.7118  1.7305
 6468SOL     OW19784   6.043   0.511   5.332  0.0702 -0.4256  0.8646
 6468SOL    HW119785   6.044   0.597   5.374 -1.4967 -0.8039  1.7140
 6468SOL    HW219786   5.956   0.476   5.351 -0.0114 -1.3880 -1.1309
 6469SOL     OW19787   4.886   4.319   0.271  0.4441  0.3118  0.1213
 6469SOL    HW119788   4.939   4.292   0.347 -0.3552  2.0561  1.3444
 6469SOL    HW219789   4.950   4.339   0.203  1.2899  0.5175  0.9569
 6470SOL     OW19790   4.067   6.237   2.038  0.0867 -0.3997  0.3610
 6470SOL    HW119791   4.142   6.210   1.984 -1.4078 -3.3670 -0.3019
 6470SOL    HW219792   4.014   6.159   2.046 -1.9748  1.1691  2.5029
 6471SOL     OW19793   5.604   4.480   0.314  0.3159  0.2886  0.0804
 6471SOL    HW119794   5.550   4.458   0.390  0.7470 -0.6079  0.1308
 6471SOL    HW219795   5.555   4.549   0.269  0.0588  0.8336  1.1729
 6472SOL     OW19796   1.851   6.351   1.521 -0.6005 -0.1320 -0.2000
 6472SOL    HW119797   1.870   6.325   1.611  0.2652  0.4632 -0.2034
 6472SOL    HW219798   1.802   6.432   1.529 -1.1749 -0.4768 -0.2444
 6473SOL     OW19799   3.994   6.333   0.458 -0.0097  0.4769  0.0561
 6473SOL    HW119800   4.079   6.354   0.497  0.4836 -1.2032 -0.0871
 6473SOL    HW219801   3.965   6.255   0.505 -0.6199 -0.0373 -1.1517
 6474SOL     OW19802   2.727   3.864   1.378 -0.8761 -0.8129 -0.7991
 6474SOL    HW119803   2.718   3.803   1.304 -1.3623 -1.2174 -0.4017
 6474SOL    HW219804   2.664   3.834   1.443  0.8856 -1.6400  0.5854
 6475SOL     OW19805   0.436   2.949   2.119  0.0288 -0.0180  0.1242
 6475SOL    HW119806   0.485   2.923   2.041 -0.4000 -0.1062 -0.1167
 6475SOL    HW219807   0.445   3.044   2.123  2.3108 -0.2337  1.4733
 6476SOL     OW19808   5.029   4.040   2.493  0.3218  0.0839  0.0908
 6476SOL    HW119809   4.946   3.995   2.504 -0.5406  1.7662  0.4792
 6476SOL    HW219810   5.044   4.039   2.398 -1.3843  1.9882 -0.2191
 6477SOL     OW19811   3.872   4.762   3.741  0.1737  0.5340  0.5084
 6477SOL    HW119812   3.844   4.716   3.662  0.7600  0.2106  0.4900
 6477SOL    HW219813   3.968   4.759   3.739  0.2073 -2.0017  2.7080
 6478SOL     OW19814   0.673   3.026   2.834  0.1587  0.1080 -0.4136
 6478SOL    HW119815   0.683   3.084   2.910  0.1965  0.7617 -0.9158
 6478SOL    HW219816   0.733   2.954   2.851 -0.1437  0.0312  0.3866
 6479SOL     OW19817   5.312   4.127   2.871 -0.4253  0.3078 -0.2955
 6479SOL    HW119818   5.367   4.063   2.915  0.7714  1.2827 -0.3347
 6479SOL    HW219819   5.373   4.194   2.840 -1.5887  1.2076 -0.6944
 6480SOL     OW19820   0.371   4.490   2.739 -0.2457 -0.2875 -0.0748
 6480SOL    HW119821   0.410   4.415   2.783 -0.8302  0.1786  1.2711
 6480SOL    HW219822   0.293   4.511   2.791 -1.5673 -0.3889 -1.9566
 6481SOL     OW19823   3.013   3.442   2.427  0.2273 -0.5894 -0.3047
 6481SOL    HW119824   2.966   3.359   2.419 -0.3037 -0.4648  1.3264
 6481SOL    HW219825   3.031   3.468   2.337 -2.9969 -0.5625 -1.0110
 6482SOL     OW19826   0.464   0.164   6.010 -0.2187  0.2377 -0.0031
 6482SOL    HW119827   0.466   0.068   6.010  1.5998  0.2389 -0.7531
 6482SOL    HW219828   0.471   0.188   6.102 -2.0364 -0.3454  0.3013
 6483SOL     OW19829   5.841   2.517   2.674  0.8282 -0.0484  0.5120
 6483SOL    HW119830   5.831   2.422   2.668 -0.2773 -0.1389  3.1589
 6483SOL    HW219831   5.766   2.553   2.626  0.8693 -0.5033  0.1022
 6484SOL     OW19832   0.327   0.613   0.307  0.0800  0.0944  0.0691
 6484SOL    HW119833   0.297   0.561   0.381  1.3544 -0.2720  0.3441
 6484SOL    HW219834   0.327   0.703   0.340 -1.5507  0.2093 -0.2184
 6485SOL     OW19835   5.065   4.567   1.533  0.8783 -0.0436  0.1104
 6485SOL    HW119836   5.037   4.576   1.442 -0.2079  2.0709  0.6303
 6485SOL    HW219837   5.148   4.616   1.538  1.5756 -1.1899 -0.0102
 6486SOL     OW19838   5.822   1.895   1.507 -0.1156 -0.4232 -0.3068
 6486SOL    HW119839   5.916   1.884   1.491 -0.1764 -1.0516 -0.2744
 6486SOL    HW219840   5.782   1.872   1.423 -0.3424 -2.0401  0.2136
 6487SOL     OW19841   6.071   4.006   3.268 -0.6084 -0.0510 -0.2880
 6487SOL    HW119842   5.982   3.998   3.301  0.1547  0.3483  1.8896
 6487SOL    HW219843   6.093   4.098   3.279  0.9225 -0.5940  1.4519
 6488SOL     OW19844   5.898   3.196   5.977 -0.8160 -0.1406 -0.3079
 6488SOL    HW119845   5.904   3.282   5.936 -0.8693  0.3096  0.6039
 6488SOL    HW219846   5.932   3.135   5.912  1.3737  0.8454 -0.1169
 6489SOL     OW19847   2.049   1.753   4.533 -0.5755 -0.3898  0.3698
 6489SOL    HW119848   2.077   1.776   4.622  0.7563  0.1583 -0.1749
 6489SOL    HW219849   2.128   1.719   4.492 -1.3038 -1.0689 -0.4609
 6490SOL     OW19850   2.423   5.905   1.315 -0.3561  0.3592  0.1837
 6490SOL    HW119851   2.386   5.979   1.266  0.3691 -0.4416 -1.6038
 6490SOL    HW219852   2.433   5.835   1.250 -1.2703 -1.4112  1.9093
 6491SOL     OW19853   3.360   4.838   5.716  0.2421  0.0364 -0.3082
 6491SOL    HW119854   3.412   4.760   5.699  2.8424  0.5794  4.3621
 6491SOL    HW219855   3.270   4.811   5.700  1.3441 -2.9264 -1.8827
 6492SOL     OW19856   4.737   1.007   2.014  0.0381  0.7305 -0.6040
 6492SOL    HW119857   4.652   1.046   1.993  0.4938  1.8667 -0.4309
 6492SOL    HW219858   4.788   1.080   2.051  1.0155  0.0177 -0.5118
 6493SOL     OW19859   1.125   1.482   3.480 -0.5391 -0.0876 -0.5316
 6493SOL    HW119860   1.038   1.446   3.460 -0.9604  0.0980  0.8505
 6493SOL    HW219861   1.171   1.481   3.397 -1.9935  0.1401 -1.3624
 6494SOL     OW19862   4.811   3.188   4.346  0.2815  0.4478  0.0320
 6494SOL    HW119863   4.740   3.249   4.327  0.8253  1.0392 -0.1576
 6494SOL    HW219864   4.820   3.137   4.265  0.2222  0.5335 -0.0297
 6495SOL     OW19865   3.855   5.740   2.819 -0.1423  0.0388  0.4332
 6495SOL    HW119866   3.762   5.758   2.822 -0.2423 -0.6066  1.4784
 6495SOL    HW219867   3.873   5.719   2.727 -1.0425  0.0351  0.2573
 6496SOL     OW19868   4.394   4.216   1.931 -0.6064  0.4831  0.0609
 6496SOL    HW119869   4.327   4.184   1.991 -1.3866  1.3372 -0.3395
 6496SOL    HW219870   4.459   4.258   1.987 -0.2463 -0.6329  0.4757
 6497SOL     OW19871   5.022   6.165   3.131 -0.4194 -0.0866  0.6391
 6497SOL    HW119872   5.111   6.197   3.121  0.2384 -1.8516  0.7697
 6497SOL    HW219873   4.972   6.211   3.063  0.3466  1.7407  1.2922
 6498SOL     OW19874   2.249   3.853   0.424  0.3128  0.5215 -0.6804
 6498SOL    HW119875   2.266   3.759   0.428  0.4429  0.5314 -1.0521
 6498SOL    HW219876   2.289   3.882   0.342 -0.1246  0.8177 -0.7946
 6499SOL     OW19877   5.544   0.793   3.825 -0.3949  0.0528 -0.2101
 6499SOL    HW119878   5.500   0.810   3.742  0.8484 -0.8502 -1.0643
 6499SOL    HW219879   5.473   0.789   3.889 -1.1555  3.4483 -0.7566
 6500SOL     OW19880   5.428   0.480   2.826 -0.1887 -0.4489  0.1251
 6500SOL    HW119881   5.379   0.447   2.901 -0.5387 -1.6462 -0.6117
 6500SOL    HW219882   5.506   0.425   2.822 -0.0326 -0.2017 -0.2142
 6501SOL     OW19883   5.813   6.121   5.754  0.1700  0.1701 -0.0214
 6501SOL    HW119884   5.819   6.209   5.719 -1.4153  0.2553 -0.1082
 6501SOL    HW219885   5.868   6.122   5.833  1.8722  0.6140 -1.1948
 6502SOL     OW19886   6.288   3.486   1.563  0.1431 -0.1659  0.1731
 6502SOL    HW119887   6.357   3.420   1.566  1.5977  1.2282 -1.3637
 6502SOL    HW219888   6.232   3.466   1.638  1.0970 -2.5295  0.2983
 6503SOL     OW19889   5.472   5.287   4.427 -0.1741  0.2281 -0.8607
 6503SOL    HW119890   5.475   5.365   4.482  0.0136 -0.6291  0.3566
 6503SOL    HW219891   5.384   5.252   4.437  0.3881 -0.8965  0.2685
 6504SOL     OW19892   4.766   3.092   3.498 -0.3487  0.5935 -0.6851
 6504SOL    HW119893   4.824   3.132   3.562 -1.7238 -0.3431  1.1743
 6504SOL    HW219894   4.824   3.042   3.440  0.7123 -0.2385  1.0825
 6505SOL     OW19895   4.320   3.800   1.416 -0.3799  0.4606  0.3337
 6505SOL    HW119896   4.360   3.852   1.346  1.3620 -0.0186  0.9692
 6505SOL    HW219897   4.229   3.787   1.386  0.6247 -0.6857 -2.3704
 6506SOL     OW19898   5.985   2.809   3.222 -0.0137  0.6624  0.3358
 6506SOL    HW119899   5.997   2.903   3.236  0.2231  0.3403  2.3931
 6506SOL    HW219900   5.975   2.772   3.310 -2.7682 -0.9010 -0.5741
 6507SOL     OW19901   2.292   6.064   5.989  0.5695  1.0268 -0.5243
 6507SOL    HW119902   2.388   6.071   5.995  0.7100 -1.2231  0.3620
 6507SOL    HW219903   2.277   6.000   5.920 -0.3573  1.9217 -1.1817
 6508SOL     OW19904   1.399   5.364   1.208  0.7976 -0.2940  0.5035
 6508SOL    HW119905   1.450   5.299   1.160 -0.4910 -2.3902  1.8903
 6508SOL    HW219906   1.456   5.391   1.281  0.6613 -1.2139  0.9550
 6509SOL     OW19907   4.804   5.439   3.216 -0.2572 -0.1955 -0.0710
 6509SOL    HW119908   4.854   5.519   3.232  1.3620 -0.8837 -1.5459
 6509SOL    HW219909   4.732   5.466   3.160  1.0319  0.0455 -1.6713
 6510SOL     OW19910   0.370   1.898   2.252  0.1862  0.4599 -0.1424
 6510SOL    HW119911   0.331   1.899   2.339 -0.2662  1.9018 -0.3478
 6510SOL    HW219912   0.455   1.940   2.264 -0.1877  1.3274 -0.5355
 6511SOL     OW19913   5.760   2.727   0.150  0.0559 -0.4237 -0.0075
 6511SOL    HW119914   5.726   2.648   0.107 -0.5301 -1.1759  1.8022
 6511SOL    HW219915   5.732   2.719   0.241  1.7277  0.8976  0.6441
 6512SOL     OW19916   6.038   5.871   5.731  0.2044 -0.0021  0.1530
 6512SOL    HW119917   6.017   5.958   5.766 -2.4632 -1.6645  2.9459
 6512SOL    HW219918   6.041   5.815   5.808 -1.9567 -3.1056 -1.9140
 6513SOL     OW19919   1.227   5.822   0.066  0.1430  0.0377 -0.1849
 6513SOL    HW119920   1.223   5.905   0.114  1.3928  0.3426 -0.6105
 6513SOL    HW219921   1.142   5.816   0.023 -0.7856  0.0474  1.5771
 6514SOL     OW19922   2.648   0.104   5.152 -0.0504 -0.1057  0.2288
 6514SOL    HW119923   2.710   0.158   5.102  0.0092 -0.7649 -0.4199
 6514SOL    HW219924   2.702   0.062   5.220 -0.1212  0.7450  0.8159
 6515SOL     OW19925   1.323   3.708   3.230  0.2919  0.6217  0.4482
 6515SOL    HW119926   1.256   3.759   3.184  0.7021 -0.9527 -1.9888
 6515SOL    HW219927   1.273   3.655   3.293 -0.8181 -0.4964 -1.3055
 6516SOL     OW19928   0.050   3.645   5.225 -0.4372  0.3417 -0.0149
 6516SOL    HW119929   0.053   3.713   5.158 -0.4861  1.4645  1.0909
 6516SOL    HW219930   0.044   3.694   5.308  3.6699 -0.8433  1.1278
 6517SOL     OW19931   4.429   4.610   3.388  0.5150 -0.1037  0.0615
 6517SOL    HW119932   4.487   4.548   3.346 -0.1793 -1.3936  0.9863
 6517SOL    HW219933   4.386   4.561   3.458 -1.4912  0.8694 -0.4249
 6518SOL     OW19934   5.375   4.902   2.902  0.1080  0.0607 -0.1225
 6518SOL    HW119935   5.409   4.920   2.814 -0.7358  2.5659  0.0351
 6518SOL    HW219936   5.309   4.833   2.888 -0.9680  1.3582 -1.6488
 6519SOL     OW19937   4.650   1.336   0.210  0.6132 -0.5964  0.3071
 6519SOL    HW119938   4.611   1.338   0.123 -1.1607 -0.9476  1.0674
 6519SOL    HW219939   4.738   1.301   0.197  0.5569 -0.1318 -1.4062
 6520SOL     OW19940   2.494   0.168   5.773  0.4475 -0.0061  0.7648
 6520SOL    HW119941   2.577   0.129   5.745  1.4547  3.4210 -1.3044
 6520SOL    HW219942   2.440   0.168   5.694 -0.2878  0.8362  1.2542
 6521SOL     OW19943   4.242   2.987   2.265  0.5095  0.0846  0.0481
 6521SOL    HW119944   4.294   2.950   2.335  0.6897  1.2125  0.5264
 6521SOL    HW219945   4.227   3.078   2.291  0.9082  0.6341 -1.5395
 6522SOL     OW19946   2.102   2.427   5.435  0.3619 -0.3601 -0.4015
 6522SOL    HW119947   2.119   2.467   5.350  1.5949 -0.9206 -0.4224
 6522SOL    HW219948   2.081   2.336   5.415  0.1576 -0.3732 -0.1388
 6523SOL     OW19949   4.278   4.359   0.390  0.0066  0.1008 -0.0047
 6523SOL    HW119950   4.187   4.347   0.415 -0.1530 -1.2381 -1.2288
 6523SOL    HW219951   4.299   4.285   0.334  2.4728 -0.8013  1.9502
 6524SOL     OW19952   5.181   0.877   1.609  0.1212 -0.4926  0.2850
 6524SOL    HW119953   5.257   0.914   1.654 -0.8597 -0.5079  2.0190
 6524SOL    HW219954   5.106   0.913   1.657 -0.9212 -1.8010 -0.3514
 6525SOL     OW19955   6.120   1.381   6.294  0.0757  0.3783 -0.1354
 6525SOL    HW119956   6.107   1.439   6.369 -0.0379 -0.1089  0.2261
 6525SOL    HW219957   6.032   1.350   6.273  0.3939 -1.4029  1.0796
 6526SOL     OW19958   0.442   1.005   6.074  0.7063 -0.1912 -0.0718
 6526SOL    HW119959   0.348   1.008   6.090  0.6988 -1.5740  0.2494
 6526SOL    HW219960   0.478   0.958   6.150  1.4853 -0.9000 -0.8714
 6527SOL     OW19961   3.568   3.150   2.324 -0.1556  0.2521 -0.0853
 6527SOL    HW119962   3.559   3.228   2.270 -1.8507  0.4566  0.4509
 6527SOL    HW219963   3.662   3.138   2.335  0.0893  2.9071  0.8216
 6528SOL     OW19964   1.148   1.339   1.167  0.3437 -0.1777  0.0976
 6528SOL    HW119965   1.206   1.288   1.110  0.0648  2.0454 -2.2978
 6528SOL    HW219966   1.061   1.301   1.154  0.3645  0.0152 -0.6082
 6529SOL     OW19967   4.058   6.021   0.256  0.5473  0.7370  0.5279
 6529SOL    HW119968   3.991   6.088   0.242 -0.0350  0.0664  0.0679
 6529SOL    HW219969   4.111   6.054   0.329  0.1752  1.6208  0.4025
 6530SOL     OW19970   1.814   3.332   5.066  0.3681  0.4181  0.4694
 6530SOL    HW119971   1.856   3.253   5.098  0.8835  0.7092  0.5136
 6530SOL    HW219972   1.844   3.401   5.125 -2.2063  0.2051  2.0938
 6531SOL     OW19973   1.439   5.938   5.019  0.7652  0.2085  0.1261
 6531SOL    HW119974   1.485   5.901   5.094  0.0187  0.0009  0.4817
 6531SOL    HW219975   1.446   6.032   5.030  0.3999  0.1794  0.6140
 6532SOL     OW19976   6.276   1.067   4.075  0.0405 -0.5429 -0.3786
 6532SOL    HW119977   6.202   1.010   4.059 -0.9336  0.5767  0.0719
 6532SOL    HW219978   6.327   1.022   4.142 -1.4492 -0.2429  0.9799
 6533SOL     OW19979   2.797   1.447   2.264  0.5929 -0.0381  0.2378
 6533SOL    HW119980   2.838   1.461   2.349  0.7237 -0.7918  0.3038
 6533SOL    HW219981   2.842   1.508   2.205  1.1142 -0.1462  0.5198
 6534SOL     OW19982   4.839   6.242   4.955 -0.5885 -0.3307 -0.2005
 6534SOL    HW119983   4.823   6.336   4.961 -0.8504 -0.3609 -0.4005
 6534SOL    HW219984   4.824   6.210   5.044  0.9791  0.0353  0.2044
 6535SOL     OW19985   1.255   0.455   2.726  0.9573 -0.2503  0.1319
 6535SOL    HW119986   1.173   0.407   2.737  1.3602 -1.1150 -0.6614
 6535SOL    HW219987   1.267   0.500   2.810 -1.3883  1.5693 -0.4419
 6536SOL     OW19988   5.769   1.125   2.383  0.1002 -0.3372 -0.0750
 6536SOL    HW119989   5.705   1.082   2.326  1.2861 -1.8687 -0.2793
 6536SOL    HW219990   5.726   1.127   2.469 -0.0233 -1.8339 -0.0872
 6537SOL     OW19991   6.086   4.721   6.172 -0.8700  0.1021  0.1833
 6537SOL    HW119992   6.173   4.713   6.132 -1.4301 -0.3744 -0.9503
 6537SOL    HW219993   6.075   4.814   6.188 -0.4002  0.2278 -0.2223
 6538SOL     OW19994   4.972   3.396   2.781 -0.1186  0.9425 -0.7070
 6538SOL    HW119995   4.965   3.481   2.738  3.1630  2.3670  1.3726
 6538SOL    HW219996   5.008   3.338   2.713 -1.6832  1.3482 -1.9176
 6539SOL     OW19997   3.223   0.842   4.899 -0.3294  0.1126 -0.1365
 6539SOL    HW119998   3.246   0.826   4.991 -2.7366  1.8921  0.8219
 6539SOL    HW219999   3.288   0.792   4.849  1.8894  0.2239  2.5070
 6540SOL     OW20000   4.325   2.085   1.176 -0.0318  0.1873 -0.2587
 6540SOL    HW120001   4.329   1.990   1.185 -0.2650  0.2750  0.8819
 6540SOL    HW220002   4.369   2.118   1.255 -0.7447  1.0250 -0.2070
 6541SOL     OW20003   3.828   0.777   0.393  0.5809  0.2639 -0.0071
 6541SOL    HW120004   3.830   0.872   0.386 -2.4607  0.5590  2.1001
 6541SOL    HW220005   3.911   0.754   0.435  1.4486  1.9108 -0.7617
 6542SOL     OW20006   2.124   3.471   1.993 -0.5696  0.2719 -0.2680
 6542SOL    HW120007   2.034   3.478   1.960 -0.8554  0.4542  0.5448
 6542SOL    HW220008   2.114   3.453   2.086  0.2406 -0.0166 -0.2378
 6543SOL     OW20009   2.499   4.105   1.904 -0.3692 -0.0945  0.0260
 6543SOL    HW120010   2.472   4.014   1.917  0.2015 -0.4907 -1.4654
 6543SOL    HW220011   2.595   4.102   1.900 -0.3582  0.5216 -0.3552
 6544SOL     OW20012   4.202   3.460   5.361 -0.2351  0.2203 -0.0384
 6544SOL    HW120013   4.126   3.452   5.303 -0.4181  1.2602  0.0408
 6544SOL    HW220014   4.274   3.423   5.310 -0.4748  0.7574 -0.7803
 6545SOL     OW20015   3.607   5.748   5.127  0.1042  0.4219  0.2158
 6545SOL    HW120016   3.665   5.813   5.087 -1.1512  1.6981  0.4199
 6545SOL    HW220017   3.631   5.665   5.087  3.0745  0.6691  1.3607
 6546SOL     OW20018   3.996   1.813   5.101  0.1856  0.4031 -0.5854
 6546SOL    HW120019   4.081   1.773   5.080 -0.5224 -0.6134 -1.5790
 6546SOL    HW220020   4.018   1.896   5.143  1.6713  0.1778 -0.8910
 6547SOL     OW20021   2.135   0.002   0.768 -0.0776 -0.6536 -0.0658
 6547SOL    HW120022   2.164   0.004   0.676 -0.5237 -1.2915 -0.2231
 6547SOL    HW220023   2.092  -0.083   0.778  0.9646 -1.0688  1.0411
 6548SOL     OW20024   1.834   2.000   3.766 -0.5015  0.4325  0.0611
 6548SOL    HW120025   1.759   2.037   3.811 -1.8207 -0.6356 -1.2225
 6548SOL    HW220026   1.887   2.076   3.742 -2.0917  1.3363 -0.6577
 6549SOL     OW20027   4.249   3.928   3.234  0.1496 -0.3317  0.0276
 6549SOL    HW120028   4.231   4.008   3.185 -0.1611 -0.4264 -0.0098
 6549SOL    HW220029   4.274   3.958   3.322  1.8865 -0.0967 -0.5241
 6550SOL     OW20030   1.602   3.490   3.690  0.0321 -0.4043  0.1004
 6550SOL    HW120031   1.625   3.505   3.781  1.3297 -0.5297 -0.2001
 6550SOL    HW220032   1.524   3.435   3.694 -0.5740  0.4972  1.1352
 6551SOL     OW20033   0.801   5.404   2.348  0.0487  0.2102 -0.4869
 6551SOL    HW120034   0.892   5.384   2.369 -0.1116 -0.7238 -0.6561
 6551SOL    HW220035   0.777   5.475   2.408  0.6760 -0.0141  0.0323
 6552SOL     OW20036   5.605   1.190   5.607  0.1180  0.1499 -0.4824
 6552SOL    HW120037   5.681   1.230   5.649  0.6302  0.0840 -1.3431
 6552SOL    HW220038   5.565   1.261   5.557  0.0531 -0.0056 -0.6488
 6553SOL     OW20039   2.071   6.228   3.865  0.6043  0.0975 -0.6057
 6553SOL    HW120040   2.102   6.304   3.815  2.0526  1.1323  1.7637
 6553SOL    HW220041   2.137   6.161   3.850  1.3645  0.6123  0.3644
 6554SOL     OW20042   2.829   1.323   6.124 -0.0264 -0.3658  0.3714
 6554SOL    HW120043   2.883   1.383   6.073  0.1317 -0.7930  0.0308
 6554SOL    HW220044   2.875   1.313   6.207 -0.9576  1.3651  1.1229
 6555SOL     OW20045   1.980   1.925   2.966  0.2834 -0.4080 -0.2702
 6555SOL    HW120046   2.057   1.944   3.020  1.5524 -2.8539 -1.1265
 6555SOL    HW220047   2.015   1.873   2.893 -2.2018 -1.6390 -0.6294
 6556SOL     OW20048   2.909   3.378   1.810 -0.2568 -0.2477  0.5547
 6556SOL    HW120049   3.000   3.350   1.822  0.3135  1.9486  1.5243
 6556SOL    HW220050   2.867   3.304   1.766  1.8676 -1.4963  0.5668
 6557SOL     OW20051   0.014   4.577   5.758  0.2771 -0.1238 -0.1364
 6557SOL    HW120052   0.065   4.506   5.798  2.3427  1.0071 -0.7192
 6557SOL    HW220053   0.049   4.586   5.670 -0.8088  0.8246 -0.4846
 6558SOL     OW20054   4.312   3.536   1.813 -0.1029 -0.4881  0.4202
 6558SOL    HW120055   4.272   3.619   1.839  3.6980  1.7063 -0.4597
 6558SOL    HW220056   4.329   3.491   1.896 -0.6139  0.3412  0.9891
 6559SOL     OW20057   4.656   5.321   5.024  0.1842 -0.4477  0.0312
 6559SOL    HW120058   4.696   5.247   4.977 -1.9816 -1.1157 -0.8037
 6559SOL    HW220059   4.691   5.313   5.113  0.8722 -1.8079 -0.3352
 6560SOL     OW20060   2.658   5.610   6.344 -0.1608 -0.3243  0.6148
 6560SOL    HW120061   2.614   5.683   6.300 -0.3227 -1.8053 -1.7904
 6560SOL    HW220062   2.631   5.618   6.436  1.1389  3.5639  0.7407
 6561SOL     OW20063   4.615   1.202   5.299 -0.1244  0.1020  0.4553
 6561SOL    HW120064   4.539   1.145   5.301 -0.0884  0.0513  0.3687
 6561SOL    HW220065   4.579   1.289   5.281 -0.1599  0.0732  0.3834
 6562SOL     OW20066   2.622   3.906   2.175  0.2447  0.0884 -0.4530
 6562SOL    HW120067   2.688   3.915   2.243  0.1059 -1.1771 -0.1367
 6562SOL    HW220068   2.542   3.882   2.222  0.2762 -1.3449 -1.0841
 6563SOL     OW20069   1.285   2.098   1.045 -0.0086  0.4851  0.9388
 6563SOL    HW120070   1.198   2.131   1.023 -0.2933  0.3850  1.9237
 6563SOL    HW220071   1.269   2.020   1.097  0.6708  0.7073  1.4812
 6564SOL     OW20072   5.629   4.198   2.436 -0.3894  0.1581 -0.2302
 6564SOL    HW120073   5.682   4.211   2.358 -0.7057 -0.8802 -0.6220
 6564SOL    HW220074   5.628   4.284   2.479  0.5768  0.4891 -0.8616
 6565SOL     OW20075   3.019   5.798   2.199  0.2046  0.4418  0.0793
 6565SOL    HW120076   2.945   5.773   2.253  0.4451 -1.5439 -0.4678
 6565SOL    HW220077   2.981   5.853   2.131 -0.3403  1.6361  1.3340
 6566SOL     OW20078   5.189   3.795   4.961  0.0131  0.3986  0.1864
 6566SOL    HW120079   5.207   3.711   4.919  0.4943 -0.2662  1.6623
 6566SOL    HW220080   5.137   3.773   5.038  1.6062  1.2372  1.5525
 6567SOL     OW20081   0.715   1.418   5.698 -0.0359 -0.0758  0.0541
 6567SOL    HW120082   0.704   1.507   5.663 -1.8788 -0.1880  0.2758
 6567SOL    HW220083   0.791   1.424   5.756 -0.0537  1.3221 -0.0516
 6568SOL     OW20084   5.856   3.522   0.163 -0.2452  0.5581 -0.1064
 6568SOL    HW120085   5.763   3.517   0.182 -0.1314 -0.7240  0.1446
 6568SOL    HW220086   5.889   3.434   0.178  0.7905  0.7036 -1.3788
 6569SOL     OW20087   3.177   4.324   0.273  0.3262  0.4951  0.4590
 6569SOL    HW120088   3.260   4.297   0.314  0.4915 -1.0969 -0.9030
 6569SOL    HW220089   3.196   4.411   0.236  1.2310  0.3672  0.6085
 6570SOL     OW20090   4.665   1.032   1.008 -0.2664  0.7731 -0.1122
 6570SOL    HW120091   4.692   1.019   1.099 -0.4095  1.0793 -0.0246
 6570SOL    HW220092   4.733   1.090   0.972  0.3051 -0.1095 -0.4663
 6571SOL     OW20093   2.337   5.750   5.991 -0.2186 -0.1841  0.2739
 6571SOL    HW120094   2.279   5.677   6.013 -1.0876 -0.1110 -1.6697
 6571SOL    HW220095   2.412   5.708   5.947  1.1356 -0.2583  2.5713
 6572SOL     OW20096   1.603   0.835   3.052 -0.1239  0.6910 -0.2998
 6572SOL    HW120097   1.660   0.864   3.123  2.4421 -0.4567 -1.8231
 6572SOL    HW220098   1.663   0.800   2.986 -2.7282 -2.6904 -0.9812
 6573SOL     OW20099   5.865   0.262   0.283  0.1656  0.5263  0.4743
 6573SOL    HW120100   5.909   0.336   0.324 -3.0842  2.4037  0.8031
 6573SOL    HW220101   5.826   0.299   0.203  0.8737 -1.5289 -0.8717
 6574SOL     OW20102   4.063   5.732   5.482 -0.3104  0.0928 -0.0893
 6574SOL    HW120103   4.108   5.762   5.560  1.9749  1.2636 -1.8043
 6574SOL    HW220104   4.111   5.653   5.456 -0.9236 -0.1672 -0.4510
 6575SOL     OW20105   5.010   3.415   1.676 -0.9807 -0.4347 -0.3942
 6575SOL    HW120106   5.018   3.499   1.721  0.6191 -0.6288 -0.2887
 6575SOL    HW220107   4.981   3.355   1.745 -0.4273 -0.3275 -0.0596
 6576SOL     OW20108   1.770   1.489   1.746 -0.4117 -0.2740  0.0177
 6576SOL    HW120109   1.710   1.437   1.800 -1.3994 -0.7893 -1.5263
 6576SOL    HW220110   1.795   1.431   1.675  1.6620  0.0736  0.4469
 6577SOL     OW20111   3.077   3.446   6.290 -0.1374  0.0261 -0.1586
 6577SOL    HW120112   3.154   3.404   6.329  0.0148 -0.6818 -1.2132
 6577SOL    HW220113   3.078   3.535   6.326  1.4382  0.1622 -0.4901
 6578SOL     OW20114   1.887   1.302   0.946  0.1759 -0.7847  0.3142
 6578SOL    HW120115   1.825   1.266   0.882  1.3270 -1.0474 -0.6699
 6578SOL    HW220116   1.961   1.242   0.945  0.6776 -0.1903  1.1021
 6579SOL     OW20117   0.380   6.203   1.401  0.3646  0.4906  0.7306
 6579SOL    HW120118   0.385   6.299   1.406 -1.7345  0.5457  3.0694
 6579SOL    HW220119   0.288   6.183   1.418  1.1819 -2.0246  2.5759
 6580SOL     OW20120   6.143   0.175   0.065 -0.0369 -0.4804 -0.1369
 6580SOL    HW120121   6.112   0.265   0.060  1.0667  0.0333  1.7746
 6580SOL    HW220122   6.063   0.122   0.058 -0.8444  0.6901  0.0736
 6581SOL     OW20123   3.809   4.633   1.409 -0.1473 -0.3888  0.4458
 6581SOL    HW120124   3.767   4.685   1.478 -0.7259 -0.7233  0.3501
 6581SOL    HW220125   3.777   4.544   1.423 -1.2450 -0.2550 -0.9821
 6582SOL     OW20126   3.951   2.089   2.610  0.9783 -0.0242  0.6188
 6582SOL    HW120127   3.939   2.010   2.663  1.9849  0.4400  1.5759
 6582SOL    HW220128   3.924   2.161   2.668  1.9461  0.4801  0.4713
 6583SOL     OW20129   2.337   5.575   1.473 -0.5102 -0.1395 -0.0487
 6583SOL    HW120130   2.297   5.647   1.521 -2.4102 -1.0222 -0.2602
 6583SOL    HW220131   2.339   5.502   1.535  2.1631  0.2791  0.4379
 6584SOL     OW20132   3.211   5.730   4.837 -0.5743 -0.3822 -0.1162
 6584SOL    HW120133   3.210   5.824   4.852  4.8103  0.3821 -3.2956
 6584SOL    HW220134   3.237   5.692   4.920 -2.4080  0.8734  1.0716
 6585SOL     OW20135   1.860   4.102   2.429  0.1413  0.2834 -0.2352
 6585SOL    HW120136   1.778   4.145   2.406  0.2165  0.5270 -0.0558
 6585SOL    HW220137   1.895   4.155   2.501 -0.9847 -1.5200  1.6835
 6586SOL     OW20138   4.202   0.503   0.687  0.5531 -0.1582  0.2928
 6586SOL    HW120139   4.233   0.574   0.630 -2.3535  0.9297 -0.0207
 6586SOL    HW220140   4.166   0.439   0.626  1.2190 -0.9371  0.7088
 6587SOL     OW20141   2.147   3.741   4.204 -0.0910  0.8348 -0.2888
 6587SOL    HW120142   2.062   3.758   4.244 -0.3971 -1.6728  0.2156
 6587SOL    HW220143   2.199   3.701   4.274  0.7559  0.2728 -1.2231
 6588SOL     OW20144   4.442   3.507   5.948  0.4205 -0.4110 -0.2242
 6588SOL    HW120145   4.390   3.502   6.028 -0.9933  0.5985 -1.0469
 6588SOL    HW220146   4.525   3.546   5.975  0.1865 -0.6748  0.8622
 6589SOL     OW20147   4.368   1.514   1.284 -0.0036  0.5558 -0.3819
 6589SOL    HW120148   4.412   1.564   1.352 -2.4446  0.7129  1.1454
 6589SOL    HW220149   4.303   1.574   1.248 -1.1777 -0.6715 -0.3433
 6590SOL     OW20150   2.678   2.459   4.492  0.2409  0.2297  0.2475
 6590SOL    HW120151   2.753   2.445   4.435 -0.0405 -0.1023 -0.0467
 6590SOL    HW220152   2.679   2.384   4.551  0.0496  0.1423  0.1408
 6591SOL     OW20153   0.635   3.115   3.121 -0.3520 -0.1419  0.1958
 6591SOL    HW120154   0.720   3.160   3.126 -0.5535  0.5617 -2.1744
 6591SOL    HW220155   0.658   3.022   3.118  0.4028  0.0582 -0.9742
 6592SOL     OW20156   4.834   0.601   0.483  0.2297  0.3137 -0.4918
 6592SOL    HW120157   4.820   0.601   0.389  2.9365 -1.7486 -0.9558
 6592SOL    HW220158   4.910   0.659   0.496 -2.0436  3.1306  0.8167
 6593SOL     OW20159   0.321   5.557   3.900 -0.5700 -0.1670  0.0001
 6593SOL    HW120160   0.412   5.527   3.913 -0.0075  1.2712 -0.5900
 6593SOL    HW220161   0.269   5.497   3.954  0.8428 -0.2602  1.2903
 6594SOL     OW20162   1.001   0.901   5.796  0.0564  0.2095 -0.0928
 6594SOL    HW120163   0.948   0.855   5.861  0.0157  1.1284  0.5168
 6594SOL    HW220164   1.030   0.831   5.737 -0.3347 -0.5569  0.6022
 6595SOL     OW20165   5.850   5.145   3.321 -0.4613 -0.6616  0.3645
 6595SOL    HW120166   5.826   5.056   3.297  0.7668 -0.7077 -0.7386
 6595SOL    HW220167   5.783   5.200   3.281 -0.4733 -1.0007 -0.0859
 6596SOL     OW20168   0.228   0.588   0.033  0.4416 -0.0391  0.1912
 6596SOL    HW120169   0.292   0.541   0.087 -1.0791 -2.3526  0.0786
 6596SOL    HW220170   0.153   0.600   0.091  0.1380  0.6708 -0.3444
 6597SOL     OW20171   0.344   3.399   3.648  0.0845 -0.2694 -0.5797
 6597SOL    HW120172   0.358   3.310   3.681 -0.2842  0.2253  0.9539
 6597SOL    HW220173   0.273   3.391   3.585 -1.0408 -0.8304  0.7263
 6598SOL     OW20174   5.358   1.979   2.652  0.0837  0.0575  0.3714
 6598SOL    HW120175   5.432   1.933   2.693 -0.0230 -1.2295 -0.8456
 6598SOL    HW220176   5.396   2.061   2.622  0.7766 -0.1312  0.7028
 6599SOL     OW20177   5.416   3.708   0.933  0.5734  0.6044  0.1199
 6599SOL    HW120178   5.485   3.691   0.869 -0.2681 -0.8561 -0.4186
 6599SOL    HW220179   5.447   3.664   1.013 -0.7751 -2.0835 -0.7746
 6600SOL     OW20180   2.263   1.156   5.819 -0.1245  0.0976 -0.6409
 6600SOL    HW120181   2.296   1.216   5.886  0.1897 -0.7416 -0.0413
 6600SOL    HW220182   2.199   1.101   5.865 -0.6867  0.2079 -1.2728
 6601SOL     OW20183   3.369   6.057   2.361 -0.4077  0.5148 -0.5232
 6601SOL    HW120184   3.363   6.000   2.285 -3.0686  0.6928 -0.5055
 6601SOL    HW220185   3.312   6.015   2.426  1.3969  0.6524  1.1776
 6602SOL     OW20186   5.428   2.111   4.550 -0.2996 -0.1902 -0.1423
 6602SOL    HW120187   5.392   2.120   4.638 -0.6384  0.1257 -0.3138
 6602SOL    HW220188   5.489   2.184   4.541 -0.1453 -0.3145 -0.1124
 6603SOL     OW20189   3.591   1.348   0.757  0.6026  0.0501  0.0740
 6603SOL    HW120190   3.596   1.254   0.778 -0.6221 -0.6130 -2.3876
 6603SOL    HW220191   3.665   1.363   0.699 -0.2969  0.1666 -1.0506
 6604SOL     OW20192   1.084   4.076   3.397 -0.1978  0.3984  0.2329
 6604SOL    HW120193   1.010   4.014   3.399  0.1425  0.0008  0.9139
 6604SOL    HW220194   1.138   4.047   3.324  1.2013 -1.6091  1.9864
 6605SOL     OW20195   3.235   0.151   1.185 -0.9006 -0.4858  0.3313
 6605SOL    HW120196   3.242   0.134   1.279 -0.4395 -3.0247 -0.1399
 6605SOL    HW220197   3.306   0.213   1.166 -0.5010 -0.5767  1.5074
 6606SOL     OW20198   4.781   0.931   5.859  0.4525  0.0496 -0.3313
 6606SOL    HW120199   4.784   0.837   5.875  0.8087  0.2875  1.0535
 6606SOL    HW220200   4.721   0.965   5.926  0.7775  0.8893 -0.4561
 6607SOL     OW20201   1.341   5.979   0.609 -0.2962 -0.1022 -0.4809
 6607SOL    HW120202   1.284   5.921   0.659 -0.0756 -0.0464 -0.1625
 6607SOL    HW220203   1.292   6.061   0.603  0.7252  0.7065  1.8066
 6608SOL     OW20204   5.318   1.537   5.002  0.3418 -0.0020 -0.5768
 6608SOL    HW120205   5.232   1.558   4.966 -0.4238 -0.8628  0.7407
 6608SOL    HW220206   5.372   1.612   4.977 -1.0105  0.9840 -0.6279
 6609SOL     OW20207   1.881   6.264   4.293 -0.8720 -0.1896  0.1941
 6609SOL    HW120208   1.888   6.336   4.230 -1.1231 -0.2159  0.1352
 6609SOL    HW220209   1.964   6.266   4.341 -1.1296  0.5350  0.6182
 6610SOL     OW20210   1.066   5.015   2.246  0.2374  0.1659 -0.2123
 6610SOL    HW120211   1.134   5.046   2.186  0.8252  0.2412  0.4861
 6610SOL    HW220212   0.988   5.005   2.191  0.9087 -0.2934 -1.1013
 6611SOL     OW20213   2.224   0.696   0.737  0.0301  0.5317 -0.0085
 6611SOL    HW120214   2.262   0.768   0.787 -0.8315  1.3099 -0.4582
 6611SOL    HW220215   2.144   0.673   0.785 -0.8838  1.3913 -1.0955
 6612SOL     OW20216   6.257   5.821   3.981 -0.2032 -0.2681  0.1415
 6612SOL    HW120217   6.282   5.895   3.925  0.2063 -0.4417  0.0919
 6612SOL    HW220218   6.178   5.850   4.027  0.9011  0.8114  1.3679
 6613SOL     OW20219   3.387   2.501   5.458 -0.0954 -0.5553 -0.6258
 6613SOL    HW120220   3.319   2.475   5.395 -1.7532 -1.1939  1.3720
 6613SOL    HW220221   3.352   2.579   5.501  0.5348 -0.7586  0.2759
 6614SOL     OW20222   3.150   2.614   2.081 -0.0665 -0.0853  0.4991
 6614SOL    HW120223   3.135   2.596   2.174  0.4286  0.6115  0.7139
 6614SOL    HW220224   3.171   2.707   2.077 -2.0229  0.3532 -0.5471
 6615SOL     OW20225   5.345   0.331   0.456  0.1201  0.0068  0.0014
 6615SOL    HW120226   5.428   0.301   0.421 -0.0050  0.0458 -0.3323
 6615SOL    HW220227   5.366   0.414   0.499  0.6503 -1.0417  1.8121
 6616SOL     OW20228   5.622   4.216   5.505 -0.9237 -0.6161  0.0310
 6616SOL    HW120229   5.548   4.271   5.479 -1.6678 -1.5873  0.1010
 6616SOL    HW220230   5.584   4.130   5.522  0.3438 -1.3503 -0.7584
 6617SOL     OW20231   2.089   0.218   1.519  0.0697 -0.2105 -0.0994
 6617SOL    HW120232   2.072   0.173   1.435 -0.5624 -0.3081  0.0756
 6617SOL    HW220233   2.177   0.190   1.544  1.0300  1.3088 -1.6762
 6618SOL     OW20234   1.348   3.996   2.921 -0.4441 -0.2807  0.1332
 6618SOL    HW120235   1.352   4.038   2.835  0.4795  0.3312  0.4659
 6618SOL    HW220236   1.311   3.909   2.903  1.2327 -0.7741 -1.1290
 6619SOL     OW20237   1.867   4.555   0.190  0.2973 -0.3209  0.3163
 6619SOL    HW120238   1.776   4.571   0.216  0.3726 -0.5282  0.7066
 6619SOL    HW220239   1.901   4.496   0.257  0.6382 -0.4654  0.0167
 6620SOL     OW20240   1.944   0.794   3.661  0.3626 -0.0863 -0.6461
 6620SOL    HW120241   1.944   0.801   3.566 -1.4358 -3.9564 -1.0332
 6620SOL    HW220242   2.025   0.747   3.681  0.0171 -0.5858 -0.4147
 6621SOL     OW20243   4.950   2.462   2.229  0.2390  0.2822  0.0245
 6621SOL    HW120244   4.949   2.368   2.246 -0.3991  0.2634 -0.1241
 6621SOL    HW220245   5.003   2.498   2.300 -1.7911  0.1137  1.6628
 6622SOL     OW20246   2.497   1.507   5.251  0.1880  0.0804 -0.6371
 6622SOL    HW120247   2.464   1.433   5.201  0.1990 -0.1775 -0.2650
 6622SOL    HW220248   2.550   1.468   5.321  1.9007  0.5102 -1.6621
 6623SOL     OW20249   5.488   0.824   3.111  0.0291  0.1744  0.0499
 6623SOL    HW120250   5.422   0.771   3.067  1.0460 -1.3506  0.3040
 6623SOL    HW220251   5.482   0.910   3.070 -2.2062  0.0941  0.1918
 6624SOL     OW20252   2.278   1.751   6.117 -0.1580  0.6411  0.5779
 6624SOL    HW120253   2.254   1.834   6.076  2.7536  1.8183  1.0974
 6624SOL    HW220254   2.347   1.774   6.179  0.8235 -2.1837  0.6286
 6625SOL     OW20255   6.000   2.596   3.057 -0.2258 -0.4130  0.4118
 6625SOL    HW120256   5.911   2.589   3.024 -0.1260 -0.7544  0.2156
 6625SOL    HW220257   5.998   2.671   3.117 -0.4697  0.0441 -0.1631
 6626SOL     OW20258   0.330   6.044   3.688 -0.6508  0.3960 -0.2488
 6626SOL    HW120259   0.304   5.980   3.754 -2.0672 -0.6256 -1.7734
 6626SOL    HW220260   0.398   5.999   3.637 -0.3495  0.7849 -0.1936
 6627SOL     OW20261   0.655   0.562   5.174 -0.2537 -0.1759 -0.4792
 6627SOL    HW120262   0.632   0.652   5.150 -0.5427 -0.8702 -2.8616
 6627SOL    HW220263   0.741   0.548   5.136 -0.2271 -0.9394 -0.1466
 6628SOL     OW20264   0.056   0.561   4.568  0.1639 -0.4762  0.4842
 6628SOL    HW120265   0.030   0.549   4.659  0.2619  1.1778  0.7490
 6628SOL    HW220266   0.136   0.510   4.559  0.1681 -0.6265  1.3461
 6629SOL     OW20267   2.790   2.994   0.031  0.5186  0.0383  0.2242
 6629SOL    HW120268   2.723   2.930   0.053  1.0405  0.0734  1.9835
 6629SOL    HW220269   2.763   3.029  -0.054 -2.0425  0.4970  1.1692
 6630SOL     OW20270   3.492   3.754   0.114  0.3322 -0.1628  0.0309
 6630SOL    HW120271   3.505   3.661   0.135  0.6499 -0.1326 -0.0243
 6630SOL    HW220272   3.553   3.799   0.172  0.9193 -0.0503 -0.6641
 6631SOL     OW20273   0.545   2.766   3.687  0.1933 -0.3482  0.5367
 6631SOL    HW120274   0.506   2.778   3.601  0.8783 -0.4490  0.2146
 6631SOL    HW220275   0.493   2.823   3.745  0.3993  0.5199 -0.1220
 6632SOL     OW20276   4.941   2.149   5.299  0.0419  0.8364  0.2278
 6632SOL    HW120277   4.950   2.148   5.395 -1.3174 -0.5977  0.3703
 6632SOL    HW220278   4.923   2.058   5.276  1.9258  0.8961 -1.5845
 6633SOL     OW20279   4.011   2.089   4.120 -0.2501  0.1321  0.3066
 6633SOL    HW120280   4.025   2.099   4.214 -0.6487 -0.7790  0.4633
 6633SOL    HW220281   4.076   2.025   4.092 -0.8041 -0.3528  0.1375
 6634SOL     OW20282   5.993   4.146   2.421  0.3807  0.1862 -0.6389
 6634SOL    HW120283   6.048   4.219   2.393  0.3132  0.0676 -1.0950
 6634SOL    HW220284   6.030   4.117   2.504 -0.0278  1.2072 -0.0951
 6635SOL     OW20285   0.822   4.825   4.683  0.0297 -0.2501  0.2840
 6635SOL    HW120286   0.749   4.884   4.665  0.6703  0.2536 -0.7082
 6635SOL    HW220287   0.898   4.882   4.689  0.8020 -1.0276 -1.5956
 6636SOL     OW20288   2.734   5.642   2.010 -0.0818  0.2945 -0.0123
 6636SOL    HW120289   2.690   5.648   1.925 -1.3987 -0.3934  0.6121
 6636SOL    HW220290   2.709   5.722   2.056 -0.2340  0.1665  0.1294
 6637SOL     OW20291   5.163   4.548   3.538 -0.0757  0.2828  0.3710
 6637SOL    HW120292   5.180   4.494   3.461 -0.2638  0.5199  0.1615
 6637SOL    HW220293   5.249   4.563   3.577 -0.1124 -0.8716  0.9046
 6638SOL     OW20294   1.451   3.326   0.465  0.3819 -0.4713  0.2873
 6638SOL    HW120295   1.540   3.290   0.469 -0.6861 -3.1008  1.0336
 6638SOL    HW220296   1.459   3.412   0.506  2.8976  0.0120 -1.0861
 6639SOL     OW20297   2.232   3.260   1.170  0.4383  0.2533 -0.5558
 6639SOL    HW120298   2.277   3.210   1.102  1.2954 -1.0933  0.9720
 6639SOL    HW220299   2.290   3.333   1.188 -0.3135  1.2397 -2.0341
 6640SOL     OW20300   3.871   0.273   5.726 -0.1108 -0.5569  0.2683
 6640SOL    HW120301   3.871   0.187   5.768 -0.7508 -0.0978  1.2305
 6640SOL    HW220302   3.841   0.333   5.795 -0.0941  0.3713 -0.5247
 6641SOL     OW20303   5.564   3.240   0.174 -0.1054 -0.2453 -0.1178
 6641SOL    HW120304   5.591   3.310   0.233  0.6130  0.7479 -1.5764
 6641SOL    HW220305   5.478   3.268   0.141 -1.1165 -1.4386  1.4315
 6642SOL     OW20306   1.811   4.950   1.343  0.0004 -0.2180 -0.4620
 6642SOL    HW120307   1.793   4.912   1.258  1.3129  0.0988 -0.8999
 6642SOL    HW220308   1.839   4.875   1.397 -0.9336 -0.4344 -0.2680
 6643SOL     OW20309   4.439   6.235   1.575 -0.1722 -0.3402 -0.1698
 6643SOL    HW120310   4.518   6.284   1.599  0.3446 -0.4475 -1.5821
 6643SOL    HW220311   4.369   6.300   1.574  0.0544 -0.0876  0.2869
 6644SOL     OW20312   2.696   4.496   4.183  0.1766 -0.2562  0.4615
 6644SOL    HW120313   2.792   4.493   4.176  0.3263  0.7195  2.0530
 6644SOL    HW220314   2.669   4.553   4.111  0.7931 -0.4508  0.0711
 6645SOL     OW20315   1.897   4.756   5.276  0.6260  0.4000  0.2917
 6645SOL    HW120316   1.810   4.791   5.294  0.6189  0.4302  0.1976
 6645SOL    HW220317   1.914   4.695   5.348  0.3447  0.0575  0.0699
 6646SOL     OW20318   3.650   3.166   3.029 -0.5542  0.0266 -0.4095
 6646SOL    HW120319   3.651   3.117   3.111 -1.5797 -0.2333 -0.5338
 6646SOL    HW220320   3.678   3.102   2.963  3.8083  1.2037  0.1866
 6647SOL     OW20321   5.140   0.235   3.187  0.1535  0.1254  0.3040
 6647SOL    HW120322   5.152   0.146   3.221 -0.0904  0.4993  1.3561
 6647SOL    HW220323   5.068   0.227   3.124  0.4389 -0.5091  0.0549
 6648SOL     OW20324   0.385   4.580   3.932  0.4584  0.4138 -0.4616
 6648SOL    HW120325   0.410   4.490   3.952  0.4875  0.5335  0.0533
 6648SOL    HW220326   0.449   4.633   3.980  0.4988  0.7067 -0.8422
 6649SOL     OW20327   1.396   5.318   5.842 -0.1504 -0.4810 -0.5549
 6649SOL    HW120328   1.406   5.335   5.749  0.5732  1.3701 -0.1676
 6649SOL    HW220329   1.468   5.367   5.883 -0.6425 -1.0216  0.9889
 6650SOL     OW20330   4.573   0.151   5.447 -0.5865  0.1515  0.1480
 6650SOL    HW120331   4.542   0.219   5.387 -1.2104 -1.3883 -1.3137
 6650SOL    HW220332   4.649   0.190   5.490 -1.5156  2.1189  0.0628
 6651SOL     OW20333   3.794   2.656   5.013 -0.4811  0.1069  0.3288
 6651SOL    HW120334   3.805   2.563   5.031 -1.2951  0.0345  0.4521
 6651SOL    HW220335   3.875   2.681   4.968 -0.1127 -0.5779  0.6005
 6652SOL     OW20336   4.663   3.237   0.145 -0.5901  0.5602  0.3570
 6652SOL    HW120337   4.620   3.317   0.175 -1.1291 -0.5129  2.4686
 6652SOL    HW220338   4.594   3.171   0.145  0.2703 -0.3407  0.3610
 6653SOL     OW20339   6.300   3.439   4.510 -0.2664 -0.2747  0.5632
 6653SOL    HW120340   6.297   3.531   4.537 -0.9139  0.4445 -1.9155
 6653SOL    HW220341   6.268   3.439   4.420  0.4046 -2.8432  0.2974
 6654SOL     OW20342   2.662   3.124   5.640 -0.8620 -0.4874  0.9103
 6654SOL    HW120343   2.587   3.075   5.605 -0.4511 -1.2131  1.0541
 6654SOL    HW220344   2.623   3.202   5.680 -1.3057  0.7775 -1.8525
 6655SOL     OW20345   0.284   1.674   0.574  0.7417  0.0617 -0.3429
 6655SOL    HW120346   0.348   1.615   0.533  0.1835 -0.5705 -0.3160
 6655SOL    HW220347   0.257   1.628   0.654 -0.7162 -0.2873 -1.0113
 6656SOL     OW20348   5.961   1.406   3.404 -0.4313  0.3304  0.5522
 6656SOL    HW120349   5.980   1.415   3.498 -0.5970 -1.1406  0.7448
 6656SOL    HW220350   5.884   1.350   3.401 -0.7921  0.8863 -0.4489
 6657SOL     OW20351   3.721   2.073   4.015  0.3483 -0.3127  0.3519
 6657SOL    HW120352   3.799   2.085   4.070 -0.4552  0.7485  1.2726
 6657SOL    HW220353   3.660   2.023   4.069 -0.1174 -0.0072  0.1135
 6658SOL     OW20354   5.069   2.535   3.961  0.0796 -0.1293 -0.6287
 6658SOL    HW120355   4.989   2.497   3.924 -0.4217 -0.9293  1.2274
 6658SOL    HW220356   5.047   2.628   3.973  0.2835  0.1712 -2.3597
 6659SOL     OW20357   5.919   3.496   2.840 -0.1926  0.6543 -0.2189
 6659SOL    HW120358   5.883   3.575   2.801 -2.8911 -0.9883 -1.2210
 6659SOL    HW220359   5.959   3.449   2.767  2.5657  1.6688  0.6018
 6660SOL     OW20360   5.921   5.317   4.077  0.2013  0.6878 -0.3833
 6660SOL    HW120361   5.967   5.324   3.993 -1.3328  1.2962 -1.1895
 6660SOL    HW220362   5.870   5.236   4.071  0.7596  0.2736  0.3138
 6661SOL     OW20363   1.271   2.833   4.960 -0.8476 -0.0782  0.1668
 6661SOL    HW120364   1.240   2.745   4.940 -0.8201  0.0738 -0.5764
 6661SOL    HW220365   1.352   2.842   4.909  0.0252 -0.2039  1.5043
 6662SOL     OW20366   0.594   3.713   1.082 -0.2444 -0.1730 -0.2333
 6662SOL    HW120367   0.555   3.640   1.035 -1.8862  0.6940 -0.2780
 6662SOL    HW220368   0.575   3.790   1.028 -0.9175  0.6429  1.1224
 6663SOL     OW20369   3.325   0.928   0.795 -0.1171 -0.4773 -0.1200
 6663SOL    HW120370   3.350   0.994   0.730  2.0574 -0.3954  0.7437
 6663SOL    HW220371   3.287   0.979   0.867  1.1812 -0.1883  0.3722
 6664SOL     OW20372   5.730   3.879   5.412  0.4908  0.0125 -0.5585
 6664SOL    HW120373   5.777   3.802   5.444 -0.2406  0.1869  0.9785
 6664SOL    HW220374   5.748   3.881   5.318  0.4249 -2.0979 -0.6347
 6665SOL     OW20375   1.160   0.096   0.069  0.2560  0.2501  0.9370
 6665SOL    HW120376   1.064   0.091   0.071  0.2945 -0.2279  1.7028
 6665SOL    HW220377   1.180   0.183   0.103 -0.0016  1.4240 -1.8263
 6666SOL     OW20378   6.024   4.791   3.939  0.0211  0.3666 -0.4053
 6666SOL    HW120379   5.957   4.827   3.881 -0.9638  2.2570  1.8496
 6666SOL    HW220380   5.975   4.749   4.010  1.2168 -0.4444 -0.0413
 6667SOL     OW20381   1.611   3.842   2.154 -0.1768  0.2706 -0.3958
 6667SOL    HW120382   1.680   3.793   2.199 -1.0507 -1.3661 -0.7898
 6667SOL    HW220383   1.657   3.911   2.107  0.9951  0.4195  0.9290
 6668SOL     OW20384   6.108   6.262   1.555  0.0407  0.2111 -0.4321
 6668SOL    HW120385   6.134   6.265   1.647  0.0545  1.4004 -0.4717
 6668SOL    HW220386   6.170   6.202   1.514  0.1182 -0.2194  0.3042
 6669SOL     OW20387   2.850   5.280   0.636  0.0481 -0.0552  0.3498
 6669SOL    HW120388   2.856   5.198   0.588  1.9476  0.7557 -0.8664
 6669SOL    HW220389   2.814   5.343   0.573 -1.1246  0.1339  1.1820
 6670SOL     OW20390   2.301   6.352   2.203  0.6470  0.1010 -0.5312
 6670SOL    HW120391   2.239   6.379   2.271 -1.3652 -1.6579 -1.6027
 6670SOL    HW220392   2.341   6.434   2.173  1.7240  0.8765  2.8517
 6671SOL     OW20393   5.594   2.723   1.120  0.9951 -0.0438 -0.0444
 6671SOL    HW120394   5.571   2.664   1.192  2.3330 -1.9333 -1.1139
 6671SOL    HW220395   5.689   2.735   1.129  0.8369  1.4893 -0.2122
 6672SOL     OW20396   0.719   6.070   1.742  0.2900 -0.3770 -0.2282
 6672SOL    HW120397   0.777   6.012   1.694 -0.0241 -2.0876  1.3906
 6672SOL    HW220398   0.633   6.057   1.702  0.0600 -1.6790  0.6341
 6673SOL     OW20399   4.140   5.320   2.635  0.0109  0.1750  0.0233
 6673SOL    HW120400   4.141   5.333   2.540  0.4664  2.0036  0.2707
 6673SOL    HW220401   4.049   5.302   2.656  0.3468 -3.2286 -1.1273
 6674SOL     OW20402   1.709   1.138   2.737  0.0249 -0.1362  0.2438
 6674SOL    HW120403   1.668   1.052   2.733  0.2528 -0.1959 -1.0015
 6674SOL    HW220404   1.788   1.130   2.684 -0.0756  0.9004 -0.0797
 6675SOL     OW20405   1.853   0.314   1.636 -0.3548  0.3505  0.0747
 6675SOL    HW120406   1.875   0.403   1.608 -1.2744  0.8544  0.8884
 6675SOL    HW220407   1.904   0.257   1.579 -0.8489  1.3720 -1.4288
 6676SOL     OW20408   0.110   0.450   2.365  0.2942 -0.1411 -0.0468
 6676SOL    HW120409   0.160   0.384   2.318  2.1293  1.7232 -0.7852
 6676SOL    HW220410   0.161   0.467   2.444  0.1660  0.8243 -0.1607
 6677SOL     OW20411   4.260   3.354   3.960  0.1398 -0.0696 -0.1465
 6677SOL    HW120412   4.352   3.351   3.935  0.0145 -1.5245 -0.5117
 6677SOL    HW220413   4.216   3.298   3.896 -1.1771  1.5454 -0.6875
 6678SOL     OW20414   1.523   2.833   4.576  0.2200  0.4036 -0.1669
 6678SOL    HW120415   1.536   2.884   4.656 -1.4471 -0.4019  0.6467
 6678SOL    HW220416   1.502   2.898   4.510  0.7334  0.9997  0.2449
 6679SOL     OW20417   1.715   0.954   4.835 -0.3289 -0.1695 -0.0141
 6679SOL    HW120418   1.771   1.021   4.796 -1.0062 -0.1100 -0.8842
 6679SOL    HW220419   1.626   0.984   4.820 -0.6632 -1.7222 -1.2395
 6680SOL     OW20420   4.128   5.714   4.304  0.1178 -0.1335 -0.3325
 6680SOL    HW120421   4.044   5.748   4.336  1.3987 -0.4136  3.4362
 6680SOL    HW220422   4.134   5.625   4.339  2.9783  0.6632  1.3650
 6681SOL     OW20423   3.157   0.835   3.347 -0.0884 -0.1945  0.3163
 6681SOL    HW120424   3.144   0.816   3.254 -0.2772 -0.1289  0.3275
 6681SOL    HW220425   3.217   0.909   3.348 -0.4392  0.0953  0.2307
 6682SOL     OW20426   1.057   6.327   1.709 -0.5025  0.0625 -0.5820
 6682SOL    HW120427   1.132   6.272   1.684 -1.3182 -1.5840  0.5590
 6682SOL    HW220428   1.091   6.416   1.702  1.6012 -0.6512 -0.0387
 6683SOL     OW20429   1.957   5.816   1.426  0.3408 -0.6530 -0.0372
 6683SOL    HW120430   1.922   5.782   1.509 -0.9749 -0.0099 -0.3189
 6683SOL    HW220431   2.010   5.744   1.392  0.9620 -0.8988  1.4062
 6684SOL     OW20432   0.739   0.564   2.468 -0.0026 -0.6609  0.4355
 6684SOL    HW120433   0.795   0.487   2.466  2.1196  0.8413 -0.6881
 6684SOL    HW220434   0.799   0.636   2.487 -1.8301  0.7939  0.7878
 6685SOL     OW20435   0.802   3.788   0.765 -0.5615  0.2691 -0.4776
 6685SOL    HW120436   0.813   3.695   0.748  0.9824  0.3189  0.2341
 6685SOL    HW220437   0.715   3.795   0.806 -0.9656 -0.7613 -1.1501
 6686SOL     OW20438   5.619   2.113   3.614  0.1462  0.3464 -0.3709
 6686SOL    HW120439   5.634   2.078   3.702  0.1196  0.7746 -0.1950
 6686SOL    HW220440   5.654   2.202   3.618  3.6118 -0.8367 -1.8506
 6687SOL     OW20441   3.811   1.203   2.845 -0.1725 -0.3377  0.0405
 6687SOL    HW120442   3.732   1.201   2.790  0.8367 -1.7046 -1.4187
 6687SOL    HW220443   3.787   1.151   2.922 -0.4177 -1.5315 -0.8160
 6688SOL     OW20444   4.796   3.593   4.326  0.0994  0.1762  0.0113
 6688SOL    HW120445   4.879   3.553   4.302  0.4834  1.6864 -1.2161
 6688SOL    HW220446   4.788   3.669   4.269 -2.6358 -0.5370 -0.6222
 6689SOL     OW20447   6.299   2.346   0.510 -0.7030  0.4001  0.0108
 6689SOL    HW120448   6.370   2.286   0.532 -0.9187  0.0179 -0.3454
 6689SOL    HW220449   6.273   2.384   0.594  0.4151  1.0877  0.0568
 6690SOL     OW20450   3.232   2.255   6.294  0.3441 -0.8565  0.1693
 6690SOL    HW120451   3.298   2.208   6.244  0.2400 -0.9988  0.1666
 6690SOL    HW220452   3.269   2.260   6.383  0.3111 -1.0310  0.1934
 6691SOL     OW20453   5.180   5.724   0.337 -0.3627  0.3939  0.0047
 6691SOL    HW120454   5.108   5.764   0.287 -1.3595 -0.7426  0.5090
 6691SOL    HW220455   5.142   5.644   0.374  1.2698 -0.4037 -0.0038
 6692SOL     OW20456   3.344   1.237   2.242  0.3018  0.0057  0.7826
 6692SOL    HW120457   3.267   1.181   2.228  0.3998  0.3695 -1.4205
 6692SOL    HW220458   3.327   1.314   2.188  1.0306  1.2563  2.3350
 6693SOL     OW20459   3.696   5.326   5.935 -0.4771 -0.1626  0.3935
 6693SOL    HW120460   3.746   5.398   5.972  0.3065 -0.5400  0.0702
 6693SOL    HW220461   3.718   5.250   5.989 -1.5274 -0.1107  0.9190
 6694SOL     OW20462   6.173   5.294   2.933  0.3121 -0.1742 -0.2287
 6694SOL    HW120463   6.237   5.365   2.932 -0.9156  0.9443 -0.4541
 6694SOL    HW220464   6.125   5.303   2.851  0.1668 -1.2857 -0.2721
 6695SOL     OW20465   0.533   0.774   0.829  0.0455  0.2259 -0.0609
 6695SOL    HW120466   0.467   0.704   0.826 -0.7340  0.8435  2.3052
 6695SOL    HW220467   0.592   0.748   0.899  0.0150  1.7231  0.5316
 6696SOL     OW20468   0.070   6.214   3.324 -0.3101 -0.0959 -0.0421
 6696SOL    HW120469   0.096   6.252   3.240  0.0503  0.4558  0.3197
 6696SOL    HW220470   0.098   6.122   3.318 -1.4477 -0.3941 -1.0259
 6697SOL     OW20471   1.944   0.808   4.236  0.4700 -0.1578 -0.3852
 6697SOL    HW120472   1.951   0.725   4.283 -1.0429  0.8669  1.7181
 6697SOL    HW220473   1.923   0.783   4.146  0.7154 -2.0634  0.0660
 6698SOL     OW20474   2.400   5.449   2.708  0.0912 -0.2322  0.7754
 6698SOL    HW120475   2.397   5.520   2.773  0.1112 -1.0092  1.6398
 6698SOL    HW220476   2.492   5.445   2.682  0.2541 -0.5068  1.3754
 6699SOL     OW20477   2.246   5.194   0.264  0.1582  0.0918 -0.1680
 6699SOL    HW120478   2.193   5.131   0.314 -0.8582  1.2500  0.2476
 6699SOL    HW220479   2.275   5.145   0.187  1.1874 -1.5324  1.1914
 6700SOL     OW20480   5.880   1.517   3.881  0.5152 -0.4316  0.4511
 6700SOL    HW120481   5.786   1.497   3.880  0.1599  1.2172 -0.9365
 6700SOL    HW220482   5.913   1.478   3.799  0.9430 -0.4878  0.6477
 6701SOL     OW20483   0.176   3.962   1.322 -0.2922 -0.6872  0.1268
 6701SOL    HW120484   0.123   3.966   1.402  2.8099 -0.9154  2.2796
 6701SOL    HW220485   0.169   3.871   1.293  0.2062 -1.0970  1.2920
 6702SOL     OW20486   1.529   0.588   0.581  0.6075  0.3477  0.5584
 6702SOL    HW120487   1.516   0.538   0.501 -0.2833 -0.2793  1.0905
 6702SOL    HW220488   1.585   0.661   0.555  0.8040 -0.1783 -0.5053
 6703SOL     OW20489   3.575   1.079   0.925  0.3144  0.1045  0.1073
 6703SOL    HW120490   3.554   1.024   0.850  1.8512 -0.2436 -0.0847
 6703SOL    HW220491   3.605   1.018   0.992  2.3265  0.7057 -0.2107
 6704SOL     OW20492   6.024   2.078   2.340  0.0639 -0.0877 -0.3133
 6704SOL    HW120493   6.036   2.070   2.245  0.9564 -0.7349 -0.1604
 6704SOL    HW220494   6.075   2.155   2.364  0.9143 -0.6756 -0.1887
 6705SOL     OW20495   5.122   1.195   0.569 -0.2979  0.4624 -0.3969
 6705SOL    HW120496   5.201   1.155   0.534 -1.9849  0.1097 -3.9948
 6705SOL    HW220497   5.088   1.131   0.631  2.5648  0.9589  1.8135
 6706SOL     OW20498   0.961   0.224   0.460 -0.3344  0.0748  0.0195
 6706SOL    HW120499   1.038   0.230   0.404 -0.0722  2.1595  0.5492
 6706SOL    HW220500   0.899   0.170   0.411  1.3887 -1.4752 -0.4747
 6707SOL     OW20501   2.268   0.867   0.244  0.1618  0.1033  0.2622
 6707SOL    HW120502   2.363   0.871   0.238  0.2356  0.5510  1.6437
 6707SOL    HW220503   2.250   0.786   0.291 -0.1607 -0.2514 -0.4734
 6708SOL     OW20504   2.793   2.627   0.556 -0.0122 -0.0034 -0.3496
 6708SOL    HW120505   2.801   2.553   0.617 -0.0070 -0.4472 -0.8791
 6708SOL    HW220506   2.717   2.676   0.588  1.3203  1.0256  1.3227
 6709SOL     OW20507   0.100   0.693   1.826 -0.9856 -0.7160  0.4500
 6709SOL    HW120508   0.017   0.729   1.857  0.2081  0.0272  2.9362
 6709SOL    HW220509   0.139   0.653   1.904  1.5366  0.0291 -0.3712
 6710SOL     OW20510   5.118   3.230   5.529 -0.0156  0.0855 -0.2310
 6710SOL    HW120511   5.087   3.284   5.457 -1.4673 -1.1672 -0.5808
 6710SOL    HW220512   5.041   3.180   5.557  0.7899 -0.3015  1.4239
 6711SOL     OW20513   3.809   1.038   2.496 -0.0137 -0.5450 -0.7333
 6711SOL    HW120514   3.773   1.006   2.579  2.1523 -0.0725  0.4272
 6711SOL    HW220515   3.830   0.959   2.447 -0.1097 -0.8551 -0.2820
 6712SOL     OW20516   3.508   0.296   2.110  0.0140  0.0509  0.1579
 6712SOL    HW120517   3.470   0.357   2.048 -0.7307 -0.9461 -0.3774
 6712SOL    HW220518   3.539   0.351   2.182 -0.1587  1.0977 -0.5591
 6713SOL     OW20519   2.150   1.799   2.385  0.1268 -0.3698  0.0031
 6713SOL    HW120520   2.090   1.858   2.431 -2.5028 -2.3827 -0.6920
 6713SOL    HW220521   2.200   1.856   2.327 -0.0368  1.5631  1.7156
 6714SOL     OW20522   4.084   5.546   6.019  0.7860 -0.4689 -0.1062
 6714SOL    HW120523   4.105   5.497   6.099  0.2909 -1.9888 -0.9019
 6714SOL    HW220524   3.988   5.554   6.021  0.6455 -1.8792 -1.3559
 6715SOL     OW20525   3.999   3.032   2.720  0.0053 -0.3481 -0.7357
 6715SOL    HW120526   3.965   3.087   2.790  1.6344  1.4760 -1.3381
 6715SOL    HW220527   4.029   2.952   2.764  2.1596  1.2748  0.8723
 6716SOL     OW20528   4.923   6.131   6.197  0.0156  0.4467 -0.1167
 6716SOL    HW120529   4.993   6.173   6.146 -1.5231  2.5130 -0.6106
 6716SOL    HW220530   4.881   6.071   6.136  1.0586 -0.4437  0.0436
 6717SOL     OW20531   5.261   3.757   0.686 -0.0208 -0.3726 -0.0087
 6717SOL    HW120532   5.324   3.729   0.753  0.7430  0.2268 -0.4731
 6717SOL    HW220533   5.304   3.829   0.641 -1.0943  0.1210 -0.2605
 6718SOL     OW20534   5.959   1.050   5.184  0.3867 -0.0350 -0.1819
 6718SOL    HW120535   5.937   1.143   5.171  0.5130 -0.2102 -1.7385
 6718SOL    HW220536   5.887   1.016   5.237 -0.3364  0.6635 -0.6913
 6719SOL     OW20537   0.995   4.666   2.351  0.7429 -0.1840  0.0765
 6719SOL    HW120538   0.956   4.582   2.324 -1.7820  1.1365 -0.5608
 6719SOL    HW220539   1.052   4.690   2.278 -0.6030 -0.0820 -0.9720
 6720SOL     OW20540   4.010   3.787   3.788  0.0093  0.1086  0.1447
 6720SOL    HW120541   4.034   3.694   3.789 -2.3092 -0.5554 -0.7884
 6720SOL    HW220542   3.932   3.792   3.843 -1.2785  1.0619 -1.7182
 6721SOL     OW20543   0.926   3.182   3.963 -0.1361 -0.4567 -0.2081
 6721SOL    HW120544   0.930   3.241   4.038 -1.7915 -1.4979  0.7193
 6721SOL    HW220545   0.965   3.232   3.892 -0.8484  1.4915  0.7301
 6722SOL     OW20546   1.484   3.409   5.271 -0.3478 -0.2032 -0.1160
 6722SOL    HW120547   1.438   3.348   5.214 -0.7982 -0.4533  0.5107
 6722SOL    HW220548   1.515   3.355   5.344  0.2869  0.1001 -0.1527
 6723SOL     OW20549   6.055   5.159   1.296  0.2152 -0.6540  0.0724
 6723SOL    HW120550   5.984   5.223   1.300  2.0903  1.4288  1.6516
 6723SOL    HW220551   6.069   5.145   1.203 -1.8209 -0.6165 -0.2670
 6724SOL     OW20552   4.813   0.555   5.704 -0.1123  0.1626  0.5907
 6724SOL    HW120553   4.881   0.606   5.659 -0.6754  1.5641  1.2977
 6724SOL    HW220554   4.847   0.545   5.793  0.1141 -0.9264  0.3829
 6725SOL     OW20555   1.115   3.534   2.666  0.5028 -0.1846 -0.5751
 6725SOL    HW120556   1.105   3.458   2.609  0.8115 -0.3205 -0.4495
 6725SOL    HW220557   1.126   3.608   2.606 -0.4100 -0.1479 -0.7039
 6726SOL     OW20558   3.615   5.771   4.030 -0.7049 -0.5529 -0.5024
 6726SOL    HW120559   3.631   5.686   3.988  1.5954 -0.4347  0.0894
 6726SOL    HW220560   3.571   5.748   4.112 -0.0043 -1.1948 -0.2961
 6727SOL     OW20561   4.796   4.704   3.343 -0.3712 -0.3580  0.0798
 6727SOL    HW120562   4.798   4.657   3.427 -2.7527 -1.8814 -0.6545
 6727SOL    HW220563   4.869   4.667   3.294  0.4677 -0.1313  1.1299
 6728SOL     OW20564   3.639   0.212   2.377  0.4873  0.2736 -0.1199
 6728SOL    HW120565   3.700   0.158   2.428 -1.7748 -3.3378 -1.0252
 6728SOL    HW220566   3.657   0.188   2.286 -0.8354  0.7504 -0.5105
 6729SOL     OW20567   0.203   1.065   1.241 -0.1573  0.4781 -0.3514
 6729SOL    HW120568   0.216   0.973   1.218 -0.2057  0.4918 -0.4331
 6729SOL    HW220569   0.289   1.105   1.231  0.1447  0.1650  0.9360
 6730SOL     OW20570   4.369   4.027   3.474  0.4383 -0.4601 -0.0838
 6730SOL    HW120571   4.369   4.108   3.422  0.6748  0.4181  1.2348
 6730SOL    HW220572   4.299   4.040   3.538  0.1385 -1.5335 -0.1852
 6731SOL     OW20573   0.801   6.224   6.342 -0.1245 -0.8839  0.0287
 6731SOL    HW120574   0.760   6.261   6.264  0.8195 -0.1630 -0.1403
 6731SOL    HW220575   0.894   6.218   6.320  0.2542 -0.0666  1.3238
 6732SOL     OW20576   1.314   6.181   0.284  0.4587  0.2857  0.0091
 6732SOL    HW120577   1.225   6.162   0.256  1.0326  0.4384 -2.0408
 6732SOL    HW220578   1.311   6.272   0.314 -0.1041  0.2293  0.1345
 6733SOL     OW20579   5.565   1.976   3.189  0.7508 -0.4332 -0.0774
 6733SOL    HW120580   5.657   2.000   3.201  0.8173 -0.4796 -0.4842
 6733SOL    HW220581   5.519   2.060   3.187  0.7104 -0.4361  0.7250
 6734SOL     OW20582   4.910   2.914   5.248  0.0659 -0.2586 -0.4177
 6734SOL    HW120583   4.992   2.940   5.207  0.3758 -1.1762 -0.3853
 6734SOL    HW220584   4.893   2.982   5.314  1.1985 -0.4947  0.1223
 6735SOL     OW20585   1.327   1.810   3.556  0.3825  0.3021  0.3748
 6735SOL    HW120586   1.249   1.793   3.505 -0.0468 -0.7386  1.3590
 6735SOL    HW220587   1.383   1.863   3.498 -0.5006 -0.0239 -0.7862
 6736SOL     OW20588   2.470   2.995   5.495  0.0408 -0.4535  0.6159
 6736SOL    HW120589   2.379   3.018   5.476  0.2947 -0.2356 -0.3644
 6736SOL    HW220590   2.467   2.902   5.520 -0.5795 -0.1796  1.6023
 6737SOL     OW20591   4.306   3.020   3.897  0.1276  0.3052  0.0248
 6737SOL    HW120592   4.258   2.946   3.858 -0.7963  1.1479 -0.4577
 6737SOL    HW220593   4.354   3.058   3.823 -0.7016  1.1961 -0.0523
 6738SOL     OW20594   4.139   1.849   1.337 -0.2841  0.0454 -0.3415
 6738SOL    HW120595   4.198   1.813   1.270 -0.9449 -2.6693  0.4388
 6738SOL    HW220596   4.052   1.819   1.311 -0.8320  0.8871  0.4973
 6739SOL     OW20597   4.851   2.987   0.991  0.4995  0.2721  0.2761
 6739SOL    HW120598   4.837   2.976   1.085 -0.3338 -0.0707  0.1191
 6739SOL    HW220599   4.939   2.951   0.976 -0.3471 -2.0333  0.5378
 6740SOL     OW20600   1.555   2.107   0.009  0.0071  0.5423 -0.0592
 6740SOL    HW120601   1.638   2.089  -0.036 -0.1357 -0.8919  0.2230
 6740SOL    HW220602   1.574   2.181   0.066  0.6247  1.3457 -1.2954
 6741SOL     OW20603   3.735   1.967   5.090  0.6330  0.6820 -0.2887
 6741SOL    HW120604   3.813   1.912   5.086  0.5416  0.5912 -0.8667
 6741SOL    HW220605   3.730   1.995   5.181  2.1717  1.8670 -0.5311
 6742SOL     OW20606   5.034   1.622   6.354 -0.3605 -0.6766  0.0102
 6742SOL    HW120607   5.028   1.687   6.424  0.5729 -1.6703  1.0449
 6742SOL    HW220608   5.113   1.647   6.306 -1.4454  0.4756 -1.1849
 6743SOL     OW20609   2.841   2.686   5.590  0.1450 -0.0587  0.1506
 6743SOL    HW120610   2.808   2.719   5.507 -0.9985 -2.0041 -0.1895
 6743SOL    HW220611   2.892   2.609   5.568 -2.7934 -2.4885  1.4610
 6744SOL     OW20612   4.635   5.842   4.811 -0.4548  0.0304  0.3635
 6744SOL    HW120613   4.586   5.918   4.780  0.1009  0.1124 -0.3126
 6744SOL    HW220614   4.726   5.870   4.810 -0.4361  0.0454  2.1161
 6745SOL     OW20615   3.035   0.120   3.943 -0.5202 -0.1203 -0.0635
 6745SOL    HW120616   3.070   0.073   3.867  0.8277  1.4444 -0.4288
 6745SOL    HW220617   3.009   0.050   4.003  0.1375 -1.3594 -1.1725
 6746SOL     OW20618   4.568   1.374   2.212 -0.4059 -0.1911  0.1312
 6746SOL    HW120619   4.547   1.292   2.166 -0.6456 -0.3718  0.5563
 6746SOL    HW220620   4.594   1.434   2.143 -1.0523 -0.3686 -0.2786
 6747SOL     OW20621   3.923   3.577   0.585  0.1276 -0.4303  0.6367
 6747SOL    HW120622   3.978   3.655   0.575  0.4665 -0.7526  0.0022
 6747SOL    HW220623   3.982   3.504   0.574 -0.5530 -0.7842 -0.7913
 6748SOL     OW20624   3.357   1.672   1.540  0.9797  0.1454  0.5280
 6748SOL    HW120625   3.369   1.600   1.601 -0.8695 -0.8915 -0.2993
 6748SOL    HW220626   3.424   1.658   1.473  0.1603 -1.2549 -0.0251
 6749SOL     OW20627   5.524   0.569   3.639  0.2851  0.1338  0.0990
 6749SOL    HW120628   5.469   0.559   3.718  0.0317  0.4250 -0.0395
 6749SOL    HW220629   5.612   0.582   3.673  0.1990  0.1152  0.3339
 6750SOL     OW20630   2.256   5.779   5.286  0.4436 -0.3535  0.0081
 6750SOL    HW120631   2.301   5.809   5.207  1.5676  0.8938  1.0822
 6750SOL    HW220632   2.191   5.717   5.255 -0.6312  1.7632 -2.1268
 6751SOL     OW20633   2.914   4.857   4.275 -0.3232  0.0385  0.3139
 6751SOL    HW120634   2.903   4.849   4.370 -0.7277  0.4181  0.3019
 6751SOL    HW220635   2.995   4.810   4.256 -0.7755 -0.9240  0.7203
 6752SOL     OW20636   4.143   5.308   2.361  0.6164 -0.8185 -0.0733
 6752SOL    HW120637   4.116   5.217   2.355  0.2042 -0.7210  0.2743
 6752SOL    HW220638   4.209   5.318   2.292  2.9493 -2.1648  1.9032
 6753SOL     OW20639   3.918   0.782   3.529 -0.0465  0.3538 -0.3215
 6753SOL    HW120640   3.863   0.860   3.524 -0.3999  0.2202  1.2999
 6753SOL    HW220641   3.885   0.735   3.605 -1.7946 -2.8929 -2.9603
 6754SOL     OW20642   2.610   0.734   0.999 -0.5071 -0.4383 -0.5286
 6754SOL    HW120643   2.610   0.734   1.094  1.0277 -0.3790 -0.5147
 6754SOL    HW220644   2.703   0.725   0.975 -0.9136 -0.8095 -2.0063
 6755SOL     OW20645   6.264   4.674   1.365  0.3690  0.3637 -0.3803
 6755SOL    HW120646   6.291   4.614   1.296 -1.5819 -1.2628  0.2264
 6755SOL    HW220647   6.295   4.760   1.336  1.8568 -0.6892 -1.9961
 6756SOL     OW20648   4.522   4.148   2.789  0.1062 -0.1134 -0.2691
 6756SOL    HW120649   4.497   4.060   2.760  1.9969 -0.5257 -0.7692
 6756SOL    HW220650   4.444   4.183   2.831 -0.5334 -2.2271  0.3660
 6757SOL     OW20651   0.662   2.067   1.545 -0.6189  0.0716 -0.3307
 6757SOL    HW120652   0.686   1.976   1.559  0.7206  0.4270 -0.2449
 6757SOL    HW220653   0.585   2.081   1.601 -0.5057 -0.8540  0.0618
 6758SOL     OW20654   2.631   2.437   3.361 -0.3515 -0.2658 -0.9553
 6758SOL    HW120655   2.580   2.513   3.390  1.8933  0.7895  0.3860
 6758SOL    HW220656   2.651   2.390   3.442  0.7025 -0.7084 -1.4616
 6759SOL     OW20657   4.075   4.961   4.730  0.1059 -0.6041  0.2813
 6759SOL    HW120658   4.159   4.961   4.684 -0.1619 -0.0880 -0.2184
 6759SOL    HW220659   4.048   4.869   4.730  0.4180 -0.6979 -0.0188
 6760SOL     OW20660   3.128   2.378   1.218 -0.2758  0.1189 -0.0075
 6760SOL    HW120661   3.094   2.400   1.131  0.7426 -1.5285 -0.8725
 6760SOL    HW220662   3.160   2.461   1.253  0.3073  0.6368 -1.6894
 6761SOL     OW20663   4.685   4.150   0.401 -0.6407  0.6164 -0.1209
 6761SOL    HW120664   4.739   4.078   0.434  0.1497  0.7103 -1.1748
 6761SOL    HW220665   4.748   4.214   0.368 -1.3675  1.2587 -0.2897
 6762SOL     OW20666   4.462   6.196   3.890 -0.2187  0.2708  0.1274
 6762SOL    HW120667   4.412   6.134   3.837  1.8595 -0.1023 -1.4129
 6762SOL    HW220668   4.517   6.142   3.946  0.5298  0.6987 -0.1835
 6763SOL     OW20669   2.414   2.104   3.077 -0.0170  0.1465 -0.0883
 6763SOL    HW120670   2.492   2.064   3.040 -0.9960 -2.6367  0.7206
 6763SOL    HW220671   2.447   2.168   3.140  1.6393 -0.9536  0.2044
 6764SOL     OW20672   0.335   0.176   0.374 -0.8780 -0.2266  0.3256
 6764SOL    HW120673   0.242   0.188   0.394 -1.3450 -2.3566 -0.4344
 6764SOL    HW220674   0.362   0.103   0.430  0.1251 -0.1542 -0.0606
 6765SOL     OW20675   5.489   6.298   2.005  0.2451 -0.2562  0.6238
 6765SOL    HW120676   5.414   6.337   2.051  0.0263 -1.1352  1.0255
 6765SOL    HW220677   5.535   6.250   2.073 -0.4280 -2.0976 -0.2002
 6766SOL     OW20678   4.141   5.268   5.417 -0.5069  0.4279 -0.0958
 6766SOL    HW120679   4.123   5.309   5.332  1.6939 -0.2988 -0.9648
 6766SOL    HW220680   4.156   5.176   5.396  2.6090  0.7032  0.6852
 6767SOL     OW20681   1.707   1.680   1.564 -0.4514  0.8941  0.0160
 6767SOL    HW120682   1.740   1.600   1.604 -0.0975  0.1047 -1.7750
 6767SOL    HW220683   1.611   1.671   1.567 -0.4098  0.1955 -0.5502
 6768SOL     OW20684   5.923   4.588   4.507 -0.0870  0.0351  0.1487
 6768SOL    HW120685   5.867   4.525   4.460 -0.1579  1.0499 -1.1431
 6768SOL    HW220686   5.988   4.534   4.551 -0.4753 -0.9825 -0.5125
 6769SOL     OW20687   5.892   0.171   3.817  0.0376  0.1243  0.2711
 6769SOL    HW120688   5.807   0.151   3.858  0.9732 -1.0178  1.7155
 6769SOL    HW220689   5.880   0.258   3.779 -1.2542  0.7237  1.9815
 6770SOL     OW20690   1.234   3.873   5.467 -0.2328  0.3438  0.0442
 6770SOL    HW120691   1.257   3.898   5.378 -0.2461  0.8833  0.1856
 6770SOL    HW220692   1.306   3.907   5.520 -0.9610  1.3817  0.4059
 6771SOL     OW20693   6.313   4.127   0.827  0.1940  0.5001  0.3956
 6771SOL    HW120694   6.301   4.066   0.900 -0.2663 -0.0272 -0.1245
 6771SOL    HW220695   6.407   4.147   0.828  0.8227 -2.1661 -0.9842
 6772SOL     OW20696   2.803   1.832   1.748 -0.2022  0.0645 -0.2729
 6772SOL    HW120697   2.884   1.788   1.774  1.0448 -0.5442 -4.6570
 6772SOL    HW220698   2.833   1.906   1.695 -2.4840  1.3229  0.1585
 6773SOL     OW20699   2.716   0.018   2.879  0.1266 -0.4619  0.2883
 6773SOL    HW120700   2.792   0.023   2.936 -0.2541  1.5884  0.6601
 6773SOL    HW220701   2.649  -0.026   2.931  1.0426 -2.3228 -0.0610
 6774SOL     OW20702   6.020   2.481   5.375 -0.3460 -0.2921  0.1827
 6774SOL    HW120703   5.985   2.411   5.319 -1.0915  0.1846  0.0469
 6774SOL    HW220704   6.039   2.553   5.314 -2.3969  0.7201  0.6790
 6775SOL     OW20705   2.353   4.051   6.239 -0.0331  0.0447  0.0268
 6775SOL    HW120706   2.399   3.970   6.259 -2.6545 -1.4172  0.2897
 6775SOL    HW220707   2.332   4.045   6.146  2.1613  1.6998 -0.6179
 6776SOL     OW20708   1.966   3.588   3.738  0.0537 -0.1704 -0.4807
 6776SOL    HW120709   1.965   3.669   3.688 -1.9251  1.9324  2.7912
 6776SOL    HW220710   2.039   3.538   3.701  1.6538  3.2833 -2.2322
 6777SOL     OW20711   5.335   1.532   4.160 -0.0047 -0.1461 -0.4496
 6777SOL    HW120712   5.349   1.519   4.254 -1.3239 -0.4485 -0.2811
 6777SOL    HW220713   5.367   1.451   4.120  1.0029  0.1801 -0.3027
 6778SOL     OW20714   0.060   6.249   0.412  0.5807 -0.2344 -0.1704
 6778SOL    HW120715   0.014   6.245   0.495 -0.3970 -0.6554 -0.7286
 6778SOL    HW220716   0.150   6.273   0.436  0.1901  0.1511  0.9540
 6779SOL     OW20717   4.298   4.520   1.801 -0.0057  0.1707  0.2208
 6779SOL    HW120718   4.358   4.506   1.727 -1.1295 -0.7322 -0.5317
 6779SOL    HW220719   4.350   4.570   1.864  1.1220  0.5464 -0.9744
 6780SOL     OW20720   3.510   1.687   1.908  0.4671  0.2517 -0.0236
 6780SOL    HW120721   3.561   1.766   1.922  1.3362 -0.4019  0.5176
 6780SOL    HW220722   3.552   1.643   1.834  0.5811 -0.1919  0.3008
 6781SOL     OW20723   5.991   3.342   4.532 -0.0701  0.2888  0.2332
 6781SOL    HW120724   5.943   3.339   4.449 -1.1825  0.3466  0.8686
 6781SOL    HW220725   6.081   3.322   4.508 -0.6896 -1.4015 -0.7542
 6782SOL     OW20726   0.083   5.929   2.471  0.7806  0.2731  0.0453
 6782SOL    HW120727   0.041   5.846   2.495 -0.6342  1.2964  1.1763
 6782SOL    HW220728   0.171   5.922   2.507  1.2771 -1.4597 -1.4119
 6783SOL     OW20729   4.962   0.783   3.941 -0.4076 -0.9280 -0.0524
 6783SOL    HW120730   4.997   0.814   3.858  0.4834  0.4299  0.8107
 6783SOL    HW220731   4.869   0.805   3.938 -0.5181 -1.4832 -0.9446
 6784SOL     OW20732   6.086   4.625   0.963 -0.0356 -0.1929 -0.1248
 6784SOL    HW120733   6.170   4.593   0.930  0.2771  1.1316 -0.6221
 6784SOL    HW220734   6.021   4.572   0.918  0.5656 -2.4943  1.6227
 6785SOL     OW20735   5.799   2.425   0.288  0.2997  0.3142  0.1098
 6785SOL    HW120736   5.762   2.433   0.201  0.3096  1.3675  0.1985
 6785SOL    HW220737   5.723   2.421   0.347  0.2839 -0.7663  0.0383
 6786SOL     OW20738   2.379   3.314   0.479  0.5854 -0.4925 -0.0642
 6786SOL    HW120739   2.373   3.219   0.487  0.1884 -0.4987 -0.4602
 6786SOL    HW220740   2.409   3.343   0.565  0.4282 -0.9494  0.1455
 6787SOL     OW20741   1.822   1.155   4.686  0.2761 -0.3304  0.0498
 6787SOL    HW120742   1.892   1.215   4.659  0.0579 -0.0235  0.1644
 6787SOL    HW220743   1.788   1.120   4.604  0.8398 -0.7962  0.0116
 6788SOL     OW20744   0.343   6.297   4.055 -0.1448  0.1195 -0.8001
 6788SOL    HW120745   0.326   6.325   3.965 -0.9324 -2.7346 -1.5849
 6788SOL    HW220746   0.323   6.204   4.056 -0.9581  0.2490  2.5598
 6789SOL     OW20747   1.407   0.794   1.811  0.2417 -0.0323 -0.0494
 6789SOL    HW120748   1.348   0.739   1.759  0.5105 -0.5630  0.2045
 6789SOL    HW220749   1.495   0.766   1.785  0.3801  0.2245  0.1424
 6790SOL     OW20750   5.746   6.014   0.502  0.0924  0.1749 -0.4269
 6790SOL    HW120751   5.685   5.943   0.480 -0.9405  0.6950  0.6955
 6790SOL    HW220752   5.811   6.012   0.432 -0.1250 -1.6471 -0.6021
 6791SOL     OW20753   1.495   1.802   2.137 -0.0277 -0.2638  0.0683
 6791SOL    HW120754   1.577   1.765   2.171  1.1117 -1.0576 -3.3046
 6791SOL    HW220755   1.429   1.736   2.154  0.6885 -1.0102 -0.0173
 6792SOL     OW20756   1.795   5.466   1.448  0.6661  0.1815 -0.3630
 6792SOL    HW120757   1.813   5.388   1.395 -0.9782 -0.9129  0.6321
 6792SOL    HW220758   1.866   5.469   1.512 -0.2877 -1.6262  0.8237
 6793SOL     OW20759   5.751   4.849   3.598  0.7289  0.5519  0.1988
 6793SOL    HW120760   5.734   4.755   3.592  0.1135  0.6549  0.2485
 6793SOL    HW220761   5.664   4.888   3.607  0.9701  1.1402 -0.0046
 6794SOL     OW20762   3.542   4.876   3.286 -0.1781  0.3171  0.0960
 6794SOL    HW120763   3.562   4.880   3.379  0.3833 -0.3882  0.0106
 6794SOL    HW220764   3.506   4.962   3.265  0.9562  0.9377  0.6767
 6795SOL     OW20765   4.470   4.207   1.450 -0.1594 -0.2064  0.2173
 6795SOL    HW120766   4.510   4.273   1.393 -0.9211 -0.9934 -1.2624
 6795SOL    HW220767   4.501   4.228   1.538  0.7897  1.2186 -0.4555
 6796SOL     OW20768   5.830   1.741   5.488  0.1584  0.3933  0.2703
 6796SOL    HW120769   5.826   1.687   5.409  1.4711 -0.3922  0.7296
 6796SOL    HW220770   5.869   1.824   5.459  0.2622  0.2569  0.0233
 6797SOL     OW20771   2.902   5.266   3.172  0.1651  0.0902 -0.2188
 6797SOL    HW120772   2.895   5.180   3.131  1.5799 -0.3758  0.4999
 6797SOL    HW220773   2.893   5.328   3.099  0.1825 -0.6785 -0.8797
 6798SOL     OW20774   2.122   1.673   4.062  0.0990 -0.2886 -0.0910
 6798SOL    HW120775   2.038   1.643   4.096  0.8526  0.3251  2.3946
 6798SOL    HW220776   2.179   1.596   4.065  0.0292 -0.3581 -0.4730
 6799SOL     OW20777   2.361   1.547   1.326 -0.1353  0.2600 -0.3067
 6799SOL    HW120778   2.348   1.495   1.246  0.0250  0.0687 -0.2111
 6799SOL    HW220779   2.274   1.577   1.350 -0.2101  0.1568 -0.4483
 6800SOL     OW20780   6.041   3.285   5.474 -0.0911 -0.0799  0.6224
 6800SOL    HW120781   6.102   3.325   5.412 -1.8714  0.8991 -0.5226
 6800SOL    HW220782   6.011   3.206   5.430  1.5764 -1.4771  1.8849
 6801SOL     OW20783   5.819   0.041   0.961  0.0205  0.0712 -0.0179
 6801SOL    HW120784   5.788   0.014   0.875 -0.7097  1.5966 -0.2634
 6801SOL    HW220785   5.901  -0.006   0.974 -0.4079 -0.9692 -1.0942
 6802SOL     OW20786   3.968   5.945   4.471  0.2615  0.1141  0.2054
 6802SOL    HW120787   3.947   5.978   4.384  0.2600  0.0100  0.1661
 6802SOL    HW220788   3.885   5.911   4.504 -0.2280  2.1306  1.1147
 6803SOL     OW20789   3.455   1.640   4.826 -0.0694 -0.4229 -0.1039
 6803SOL    HW120790   3.485   1.621   4.914  0.4344 -0.1962 -0.2248
 6803SOL    HW220791   3.499   1.576   4.771  1.5190  0.9708 -0.4962
 6804SOL     OW20792   6.203   5.387   4.236 -0.4188 -0.0128 -0.1551
 6804SOL    HW120793   6.147   5.356   4.164 -1.4943  1.1650  0.1447
 6804SOL    HW220794   6.153   5.459   4.274 -0.2468 -1.1504  2.2981
 6805SOL     OW20795   3.119   1.094   1.227  0.1699 -0.0311  0.3869
 6805SOL    HW120796   3.024   1.095   1.216  0.1790 -2.2488 -0.1604
 6805SOL    HW220797   3.153   1.088   1.138  0.6908 -2.5832  0.7020
 6806SOL     OW20798   4.581   0.686   1.259  0.3346  0.0525 -0.2284
 6806SOL    HW120799   4.519   0.753   1.287  1.7954  0.3829  2.3996
 6806SOL    HW220800   4.663   0.734   1.244  1.0336 -0.9553  0.3346
 6807SOL     OW20801   3.121   6.364   3.689 -0.6497  0.0355  0.0951
 6807SOL    HW120802   3.215   6.370   3.668 -0.9243  0.0137 -1.1580
 6807SOL    HW220803   3.077   6.386   3.608 -1.7561  0.8196  0.8974
 6808SOL     OW20804   5.562   0.655   2.162 -0.4913 -0.3926 -0.0833
 6808SOL    HW120805   5.467   0.665   2.153 -0.3727  0.8974 -0.0653
 6808SOL    HW220806   5.598   0.736   2.125  0.4494  0.7257  3.1196
 6809SOL     OW20807   2.542   2.269   0.593  0.3724 -0.4114 -0.2462
 6809SOL    HW120808   2.519   2.302   0.506 -2.5390  0.7940  0.9119
 6809SOL    HW220809   2.625   2.312   0.614  0.5181  0.1696 -1.9477
 6810SOL     OW20810   4.538   0.190   3.994 -0.6109  0.1131  0.1583
 6810SOL    HW120811   4.589   0.192   4.075  0.2622 -2.6432 -0.2548
 6810SOL    HW220812   4.506   0.279   3.983 -1.1951  0.4326  3.8334
 6811SOL     OW20813   5.248   5.603   2.507 -0.0008  0.5382 -0.1219
 6811SOL    HW120814   5.191   5.625   2.580 -0.8403 -0.6575 -0.4144
 6811SOL    HW220815   5.298   5.527   2.536  0.8451  1.0456 -0.1985
 6812SOL     OW20816   4.671   3.917   1.728  0.0870 -0.4037  0.1143
 6812SOL    HW120817   4.593   3.941   1.678  0.4657 -1.7080 -1.1453
 6812SOL    HW220818   4.737   3.981   1.702  0.0528 -0.6081 -0.4929
 6813SOL     OW20819   4.870   0.576   0.874  0.1553  0.0160  0.2466
 6813SOL    HW120820   4.951   0.613   0.840  1.0559  0.6282  2.9285
 6813SOL    HW220821   4.895   0.490   0.908 -0.7130 -0.5611 -0.5312
 6814SOL     OW20822   4.482   1.292   4.743  0.0621 -0.4840 -0.0627
 6814SOL    HW120823   4.474   1.384   4.719 -2.0561 -0.1983  1.7033
 6814SOL    HW220824   4.408   1.249   4.700  0.6862 -1.2923 -0.3592
 6815SOL     OW20825   5.845   4.770   5.362 -0.1028  0.1155  0.0084
 6815SOL    HW120826   5.770   4.829   5.354  0.1650  0.5558  0.7542
 6815SOL    HW220827   5.878   4.762   5.272 -2.3877 -1.8736 -0.7323
 6816SOL     OW20828   3.500   2.702   0.267  0.6639 -0.4110 -0.2008
 6816SOL    HW120829   3.482   2.655   0.349  1.7836 -1.1196 -0.3529
 6816SOL    HW220830   3.591   2.729   0.274  0.7819 -0.5171 -1.2339
 6817SOL     OW20831   0.848   3.500   0.788 -0.0730  0.1827 -0.2477
 6817SOL    HW120832   0.778   3.438   0.768 -0.6755  0.2781  1.5362
 6817SOL    HW220833   0.917   3.480   0.724 -1.2300 -0.7177 -1.2271
 6818SOL     OW20834   5.702   2.603   2.237  0.3867 -0.1232 -0.6467
 6818SOL    HW120835   5.740   2.664   2.174  1.0861  0.1808  0.0522
 6818SOL    HW220836   5.659   2.537   2.184 -0.6028  1.1254 -1.4191
 6819SOL     OW20837   1.026   3.269   0.343  0.6457 -0.4094  0.0730
 6819SOL    HW120838   1.088   3.321   0.291  0.6501 -0.5182 -0.0285
 6819SOL    HW220839   1.017   3.187   0.295 -0.5254  0.0842 -0.5552
 6820SOL     OW20840   4.975   2.818   0.743  0.4363 -0.0663 -0.9574
 6820SOL    HW120841   4.896   2.769   0.766  0.5928 -0.3253 -0.9724
 6820SOL    HW220842   5.044   2.780   0.797  0.8392 -0.7825 -1.9651
 6821SOL     OW20843   0.036   0.437   3.555  0.4138  0.3584  0.2759
 6821SOL    HW120844  -0.048   0.403   3.585  0.5016  0.1202  0.2461
 6821SOL    HW220845   0.101   0.388   3.604  0.5336  0.6632  0.4252
 6822SOL     OW20846   0.755   6.162   2.321  0.2225  0.1162  0.2471
 6822SOL    HW120847   0.729   6.074   2.293  1.0773  0.1771 -0.7765
 6822SOL    HW220848   0.832   6.182   2.269  1.9656  0.2096  2.7701
 6823SOL     OW20849   3.450   1.295   1.544 -0.0011  0.0982 -0.2129
 6823SOL    HW120850   3.406   1.229   1.490  1.4453 -0.6566 -0.4939
 6823SOL    HW220851   3.384   1.323   1.606 -0.0393 -3.2127  1.3485
 6824SOL     OW20852   3.632   5.550   0.004  0.4222 -0.0780  0.1525
 6824SOL    HW120853   3.585   5.578  -0.075 -2.6639 -0.5246  1.7613
 6824SOL    HW220854   3.695   5.620   0.020 -0.6369  1.2491 -1.3002
 6825SOL     OW20855   6.349   2.676   0.678 -0.3395 -0.1372  0.2878
 6825SOL    HW120856   6.297   2.607   0.720  0.5931 -1.4673 -0.6739
 6825SOL    HW220857   6.288   2.717   0.617  0.0307 -2.6079 -1.8525
 6826SOL     OW20858   6.255   6.266   2.116  0.0101 -0.6239 -0.2623
 6826SOL    HW120859   6.185   6.277   2.181  0.0194  0.7484 -0.4572
 6826SOL    HW220860   6.334   6.294   2.162 -0.2921  2.4502 -1.4752
 6827SOL     OW20861   1.139   3.050   1.036  0.4411 -0.2458  0.1804
 6827SOL    HW120862   1.121   2.962   1.001 -2.5875  0.8638 -1.2205
 6827SOL    HW220863   1.097   3.051   1.121 -0.4945  0.2193 -0.2883
 6828SOL     OW20864   3.021   0.959   0.285  0.6029  0.7192 -1.0013
 6828SOL    HW120865   2.985   1.000   0.364  1.1406  0.7467 -0.7699
 6828SOL    HW220866   3.110   0.933   0.310  0.5498  0.1504 -1.3994
 6829SOL     OW20867   5.104   4.178   6.213  0.0194 -0.1139  0.3109
 6829SOL    HW120868   5.066   4.234   6.145 -0.5207 -0.3324  0.4363
 6829SOL    HW220869   5.160   4.117   6.165 -0.6313 -0.4910  0.0384
 6830SOL     OW20870   4.615   2.742   1.541 -0.5193 -0.0886  0.0253
 6830SOL    HW120871   4.527   2.771   1.519  0.4273  1.5866 -1.7269
 6830SOL    HW220872   4.649   2.811   1.599 -0.0869 -0.3478  0.0822
 6831SOL     OW20873   2.581   1.991   5.766  0.4443 -0.1471  0.5167
 6831SOL    HW120874   2.495   1.971   5.804 -0.2417 -0.8741 -1.3716
 6831SOL    HW220875   2.570   2.077   5.726  0.8346  0.0992  0.9307
 6832SOL     OW20876   5.064   1.025   3.142 -0.2663 -0.0228  0.0480
 6832SOL    HW120877   4.977   1.034   3.103  0.1703  0.6681 -0.7966
 6832SOL    HW220878   5.104   0.951   3.096 -0.5383 -0.5711  0.6895
 6833SOL     OW20879   6.145   1.315   4.179  0.5351  0.3993  0.0717
 6833SOL    HW120880   6.160   1.403   4.144 -0.6283  0.6114  0.0924
 6833SOL    HW220881   6.193   1.257   4.120  1.0927  1.0249 -0.0920
 6834SOL     OW20882   1.548   2.244   1.844  0.0837  0.4494 -0.4471
 6834SOL    HW120883   1.584   2.323   1.885  2.3448 -0.9063  0.2923
 6834SOL    HW220884   1.493   2.205   1.912  2.8418 -1.1286  1.0026
 6835SOL     OW20885   3.596   0.887   0.021  0.9107 -0.6041  0.4567
 6835SOL    HW120886   3.560   0.975   0.006  0.7158 -0.8773 -0.6637
 6835SOL    HW220887   3.691   0.899   0.010  0.6667 -1.0939 -2.5263
 6836SOL     OW20888   1.045   1.763   0.858 -0.1799 -0.0884  0.1323
 6836SOL    HW120889   0.983   1.816   0.808 -0.9829 -0.0707  1.1421
 6836SOL    HW220890   1.130   1.786   0.822 -0.7919 -0.4534 -1.5725
 6837SOL     OW20891   5.635   4.051   1.935  0.5799 -0.6804  0.1004
 6837SOL    HW120892   5.730   4.056   1.943  0.5607  2.3768 -0.8103
 6837SOL    HW220893   5.620   3.987   1.866  2.0381 -0.2827 -0.6082
 6838SOL     OW20894   4.521   1.892   3.403 -0.2269  0.1293 -0.5669
 6838SOL    HW120895   4.477   1.824   3.454 -1.8271  0.4971 -1.4475
 6838SOL    HW220896   4.601   1.911   3.453  0.0347 -2.0934 -0.1056
 6839SOL     OW20897   5.021   3.901   4.298  0.3910  0.2076 -0.2301
 6839SOL    HW120898   5.038   3.988   4.262 -1.0511  0.9850  0.8880
 6839SOL    HW220899   4.966   3.918   4.375 -1.3341 -1.8091 -0.9894
 6840SOL     OW20900   3.480   1.651   3.435  0.2694  0.2743 -0.1442
 6840SOL    HW120901   3.394   1.644   3.394  0.0680  0.3997  0.2499
 6840SOL    HW220902   3.499   1.745   3.436 -1.0456  0.5682  2.6917
 6841SOL     OW20903   2.810   0.769   0.242 -0.1505 -0.0235  0.2843
 6841SOL    HW120904   2.877   0.836   0.229  0.0736 -0.5589 -1.5595
 6841SOL    HW220905   2.859   0.686   0.241 -0.7314 -0.3639 -0.1235
 6842SOL     OW20906   5.191   5.710   3.017  0.3687  0.2467  0.4201
 6842SOL    HW120907   5.279   5.730   2.984  0.5819 -1.9193 -0.3949
 6842SOL    HW220908   5.197   5.621   3.050 -1.6511 -0.0907 -0.0599
 6843SOL     OW20909   0.968   2.024   3.011  0.7043 -0.2116  0.3972
 6843SOL    HW120910   0.912   2.010   3.088  2.3061  0.2591  1.6861
 6843SOL    HW220911   1.052   1.985   3.036  0.7799 -1.4471 -1.7357
 6844SOL     OW20912   4.530   3.910   0.581  0.5240  0.0151 -0.3434
 6844SOL    HW120913   4.474   3.984   0.603 -0.8544 -0.7178 -1.3249
 6844SOL    HW220914   4.568   3.932   0.496  0.0354 -0.4377 -0.6827
 6845SOL     OW20915   3.800   0.718   1.922  0.3787 -0.1289  0.3054
 6845SOL    HW120916   3.810   0.664   1.844  0.3570 -0.2339  0.3749
 6845SOL    HW220917   3.890   0.743   1.945  0.4577 -0.8012  0.7397
 6846SOL     OW20918   3.191   3.315   3.268 -0.7614  0.6817 -0.0586
 6846SOL    HW120919   3.192   3.276   3.181  0.4788  1.8316 -0.5909
 6846SOL    HW220920   3.192   3.409   3.252  2.3135  0.9276  1.1669
 6847SOL     OW20921   0.262   4.353   1.207 -0.0347  0.4336 -0.4894
 6847SOL    HW120922   0.211   4.283   1.167 -0.2516  1.0158 -1.2465
 6847SOL    HW220923   0.346   4.312   1.228 -0.0443  0.0349 -1.2275
 6848SOL     OW20924   2.025   0.285   5.792  0.3394 -0.4640  0.1997
 6848SOL    HW120925   1.976   0.366   5.805  0.7562 -0.0540 -0.7366
 6848SOL    HW220926   2.046   0.255   5.880  0.0329  0.3564  0.5523
 6849SOL     OW20927   2.557   0.606   3.697  0.1621  0.1447 -0.7728
 6849SOL    HW120928   2.512   0.666   3.638 -0.8772 -0.2527 -0.3988
 6849SOL    HW220929   2.532   0.519   3.667  1.1832 -0.0966 -0.9446
 6850SOL     OW20930   2.001   0.112   6.099  0.0476 -0.0565 -0.0641
 6850SOL    HW120931   2.085   0.068   6.115 -0.2995 -0.8476 -0.4209
 6850SOL    HW220932   1.990   0.169   6.175  0.5304 -0.5378  0.3744
 6851SOL     OW20933   4.311   1.136   0.508  0.0529 -0.0499  0.5528
 6851SOL    HW120934   4.231   1.093   0.539 -0.6194  0.3867 -0.5451
 6851SOL    HW220935   4.382   1.080   0.539 -0.7487 -1.2527  0.2504
 6852SOL     OW20936   6.381   4.040   3.099  0.0225  0.1967  0.0457
 6852SOL    HW120937   6.449   4.104   3.119 -0.0039  0.1908  0.1549
 6852SOL    HW220938   6.304   4.093   3.078 -0.7377  0.1915  2.6983
 6853SOL     OW20939   0.204   3.795   4.029  0.3562  0.3887 -0.2283
 6853SOL    HW120940   0.149   3.870   4.006  1.0281  0.5486 -1.3421
 6853SOL    HW220941   0.280   3.834   4.073 -0.3852  0.1697  1.2848
 6854SOL     OW20942   0.194   4.561   5.147 -0.4855  0.3541  0.5599
 6854SOL    HW120943   0.197   4.467   5.166 -1.3775  0.2206  0.0671
 6854SOL    HW220944   0.254   4.572   5.073 -0.3381  0.1833  0.6520
 6855SOL     OW20945   1.292   1.750   6.112  0.2449  0.0873 -0.5020
 6855SOL    HW120946   1.300   1.678   6.050  0.3803 -0.2337 -0.1152
 6855SOL    HW220947   1.199   1.754   6.134  0.2348  0.0412 -0.5375
 6856SOL     OW20948   1.050   2.513   6.047  0.2624 -0.5506  0.0790
 6856SOL    HW120949   1.132   2.529   6.002  0.1359 -0.8527 -0.2611
 6856SOL    HW220950   0.993   2.474   5.981 -0.9823  1.9468 -0.3557
 6857SOL     OW20951   0.110   3.193   4.904  0.4795 -0.6598  0.2502
 6857SOL    HW120952   0.175   3.255   4.936  1.5552 -1.4362 -0.4234
 6857SOL    HW220953   0.128   3.185   4.811  1.2214 -2.9999  0.5651
 6858SOL     OW20954   0.624   1.478   4.640 -0.2664 -0.0759  0.1544
 6858SOL    HW120955   0.710   1.489   4.601 -0.2336 -0.5183  0.1033
 6858SOL    HW220956   0.635   1.409   4.706 -0.8041 -0.8640 -0.5686
 6859SOL     OW20957   1.879   4.274   5.599  0.4411 -0.3590 -0.0807
 6859SOL    HW120958   1.826   4.346   5.634  3.0904  1.1141  1.1339
 6859SOL    HW220959   1.847   4.196   5.644  0.4121  0.7719  1.9408
 6860SOL     OW20960   2.206   5.018   4.945 -0.4663  0.2461 -0.1243
 6860SOL    HW120961   2.142   5.055   5.006 -0.3237 -0.5384  0.5169
 6860SOL    HW220962   2.250   4.950   4.995  1.2025  1.0858 -0.4205
 6861SOL     OW20963   2.425   3.115   4.150  0.2388 -0.0002 -0.1420
 6861SOL    HW120964   2.415   3.198   4.198 -0.4205 -0.3425  0.3209
 6861SOL    HW220965   2.449   3.142   4.061  0.2662  0.6858  0.0706
 6862SOL     OW20966   4.112   4.345   3.654 -0.9108 -0.1291 -0.7279
 6862SOL    HW120967   4.145   4.279   3.716 -1.1607  0.8031  0.4217
 6862SOL    HW220968   4.036   4.383   3.698 -0.8317  0.8556 -1.4199
 6863SOL     OW20969   5.311   4.366   3.141 -0.6135 -0.8470 -0.2226
 6863SOL    HW120970   5.344   4.407   3.221  0.9112  0.2643 -1.3960
 6863SOL    HW220971   5.368   4.291   3.128  0.3733  0.0704 -1.2932
 6864SOL     OW20972   1.074   3.270   1.906 -0.8609  0.6538  0.7905
 6864SOL    HW120973   1.012   3.277   1.833  0.4830  0.2126 -0.4257
 6864SOL    HW220974   1.068   3.354   1.951 -0.6402  1.5053 -0.7232
 6865SOL     OW20975   1.002   2.654   4.708  0.2654  0.1295  0.5231
 6865SOL    HW120976   1.093   2.666   4.680 -0.1630  2.9864  0.1747
 6865SOL    HW220977   0.955   2.632   4.628  0.5209 -0.5535  0.5613
 6866SOL     OW20978   2.881   5.458   1.181 -0.6960  0.2043 -0.0101
 6866SOL    HW120979   2.869   5.482   1.273  1.1147  1.8298 -0.1527
 6866SOL    HW220980   2.947   5.520   1.149 -1.2256 -0.4053 -2.3801
 6867SOL     OW20981   2.079   5.194   1.611  0.4175  0.1423  0.0471
 6867SOL    HW120982   2.028   5.126   1.655 -0.5809  1.1614  0.4935
 6867SOL    HW220983   2.163   5.152   1.590 -0.5435 -1.5076 -0.5496
 6868SOL     OW20984   4.743   1.925   1.410 -0.2052  0.1082  0.4234
 6868SOL    HW120985   4.756   1.958   1.499  0.8860  1.1724 -0.1157
 6868SOL    HW220986   4.819   1.869   1.394 -0.0446  0.4761 -0.0960
 6869SOL     OW20987   5.988   0.991   3.159  0.1298 -0.0814 -0.9770
 6869SOL    HW120988   6.019   0.928   3.093  0.3276  0.8972 -1.8257
 6869SOL    HW220989   6.068   1.035   3.190  0.4276 -2.6172  2.1383
 6870SOL     OW20990   0.751   1.900   2.705 -0.1949 -0.7062  0.9150
 6870SOL    HW120991   0.693   1.921   2.777  0.9872 -0.6975  1.8824
 6870SOL    HW220992   0.771   1.985   2.665  0.9316 -0.4528  1.9843
 6871SOL     OW20993   1.054   6.002   0.743 -0.3569  0.2126 -0.3181
 6871SOL    HW120994   1.101   5.996   0.826 -0.2885 -0.9198 -0.4296
 6871SOL    HW220995   1.086   6.082   0.702  0.3267  0.2573  0.3087
 6872SOL     OW20996   2.676   1.282   0.806 -0.7528  0.1409 -0.1963
 6872SOL    HW120997   2.627   1.333   0.870 -0.0785 -0.8310  1.1246
 6872SOL    HW220998   2.610   1.253   0.743 -1.5123  0.6670  0.3474
 6873SOL     OW20999   2.230   2.746   2.127  0.0521 -0.0655 -0.3546
 6873SOL    HW121000   2.163   2.808   2.158  0.3951 -0.0765  0.4274
 6873SOL    HW221001   2.189   2.702   2.052 -1.7261 -1.7222  1.5217
 6874SOL     OW21002   0.611   5.709   3.757  0.0549  0.6653  0.5840
 6874SOL    HW121003   0.696   5.737   3.790  0.2344  0.5365  0.2284
 6874SOL    HW221004   0.631   5.647   3.687 -0.3301 -1.2929  2.1621
 6875SOL     OW21005   5.486   4.969   5.447  0.2834 -0.3933  0.5509
 6875SOL    HW121006   5.391   4.972   5.450  0.2083 -0.6343 -0.9261
 6875SOL    HW221007   5.509   5.017   5.367  1.3585 -0.8472  0.5741
 6876SOL     OW21008   1.669   3.270   4.864 -0.6512  0.2260  0.3300
 6876SOL    HW121009   1.610   3.344   4.852  0.9977  1.4590 -0.4515
 6876SOL    HW221010   1.726   3.297   4.937 -0.5877 -0.6249  0.5963
 6877SOL     OW21011   5.218   6.135   2.076 -0.1002 -0.3538 -0.0750
 6877SOL    HW121012   5.303   6.141   2.033  0.7675 -2.4529  1.2784
 6877SOL    HW221013   5.155   6.130   2.004  0.8705  1.3915 -1.0850
 6878SOL     OW21014   2.749   6.175   2.337  0.5279  0.1302 -0.3460
 6878SOL    HW121015   2.662   6.148   2.308  0.5014  0.9891 -1.0725
 6878SOL    HW221016   2.740   6.188   2.432  0.0836 -0.6247 -0.2903
 6879SOL     OW21017   2.190   0.835   3.944 -0.3563  0.4395  0.1217
 6879SOL    HW121018   2.238   0.756   3.922 -1.6726 -0.6138  0.9312
 6879SOL    HW221019   2.221   0.859   4.031  0.3903  1.0855 -0.3236
 6880SOL     OW21020   4.231   2.578   0.423  0.8306 -0.2057  0.3916
 6880SOL    HW121021   4.246   2.654   0.480  1.5319 -1.1586  1.5099
 6880SOL    HW221022   4.164   2.527   0.468 -1.2149  0.7805 -1.4112
 6881SOL     OW21023   2.959   4.531   4.184 -0.5145 -0.2937  0.0103
 6881SOL    HW121024   3.044   4.503   4.151 -0.5622 -2.6894  1.6884
 6881SOL    HW221025   2.980   4.598   4.249  0.1693 -1.3212  0.8764
 6882SOL     OW21026   3.363   6.011   4.714 -0.3720  0.7036  0.1334
 6882SOL    HW121027   3.435   5.950   4.727 -0.8346  0.4645  1.5916
 6882SOL    HW221028   3.332   6.031   4.802 -2.4091  0.4214 -0.4944
 6883SOL     OW21029   0.888   1.098   1.358 -0.1079 -0.0050 -0.8181
 6883SOL    HW121030   0.855   1.015   1.393 -0.1545  0.3613  0.0249
 6883SOL    HW221031   0.982   1.096   1.374 -0.1297  0.1634 -0.6587
 6884SOL     OW21032   0.111   4.105   4.720 -0.6527  0.1439 -0.4967
 6884SOL    HW121033   0.038   4.045   4.707  0.0100 -0.6824 -0.4506
 6884SOL    HW221034   0.086   4.159   4.794 -1.8653  0.8683 -1.4099
 6885SOL     OW21035   2.298   1.430   3.962 -0.1868  0.2381  0.1300
 6885SOL    HW121036   2.315   1.517   3.927  0.8188 -0.3339 -0.8271
 6885SOL    HW221037   2.376   1.409   4.014 -0.1860 -0.3156 -0.0899
 6886SOL     OW21038   2.132   0.731   2.105 -0.0765 -0.0265  0.3091
 6886SOL    HW121039   2.177   0.682   2.038 -0.3090  0.0770  0.0764
 6886SOL    HW221040   2.193   0.801   2.130  0.2663 -0.4532  0.6658
 6887SOL     OW21041   0.988   2.423   0.903  0.1466  0.0522 -0.0244
 6887SOL    HW121042   1.026   2.428   0.991 -0.9052  1.6952  0.3789
 6887SOL    HW221043   0.917   2.487   0.905 -2.1160 -2.3408 -1.0086
 6888SOL     OW21044   2.025   3.345   3.405 -0.1815 -0.0360  0.3708
 6888SOL    HW121045   2.015   3.430   3.361  1.2612  0.1172  0.2899
 6888SOL    HW221046   2.005   3.362   3.497  0.2386  0.4327  0.3786
 6889SOL     OW21047   0.635   3.608   5.478 -0.1858 -0.5002  0.6696
 6889SOL    HW121048   0.720   3.605   5.433  0.2641 -0.7485  1.5161
 6889SOL    HW221049   0.571   3.611   5.408  0.4334 -2.5230 -0.0089
 6890SOL     OW21050   1.758   0.223   4.774 -0.0438  0.7458 -0.5519
 6890SOL    HW121051   1.724   0.166   4.705  0.6243  0.4400 -0.6372
 6890SOL    HW221052   1.838   0.179   4.803 -0.3038  0.8988  0.3887
 6891SOL     OW21053   3.495   5.974   0.067  0.1983  0.3238  0.6988
 6891SOL    HW121054   3.580   5.942   0.038  0.5161  0.6309  1.2814
 6891SOL    HW221055   3.516   6.049   0.122 -0.3920 -0.3326  1.8205
 6892SOL     OW21056   0.082   4.877   5.398  0.8864 -0.3535  0.1350
 6892SOL    HW121057   0.113   4.938   5.465  1.2479 -0.6811  0.2675
 6892SOL    HW221058  -0.007   4.854   5.427  1.4334 -1.3230  1.0901
 6893SOL     OW21059   2.465   1.285   3.077  0.1648  0.0763 -0.2045
 6893SOL    HW121060   2.524   1.248   3.010 -0.0647 -0.8304  0.0907
 6893SOL    HW221061   2.399   1.218   3.090  0.1635  0.2851  0.8820
 6894SOL     OW21062   0.848   1.431   6.358  0.3921  0.3644  0.5127
 6894SOL    HW121063   0.853   1.376   6.436  2.4132  1.6339  1.3439
 6894SOL    HW221064   0.876   1.374   6.286 -2.3909 -1.0787  0.5195
 6895SOL     OW21065   5.977   0.764   1.074  0.0081  0.1846 -0.9393
 6895SOL    HW121066   6.062   0.784   1.034  0.4565  0.5821  0.1989
 6895SOL    HW221067   5.997   0.699   1.141 -0.7160 -0.3612 -1.2563
 6896SOL     OW21068   0.248   2.264   0.537 -0.5031  0.4962  0.1686
 6896SOL    HW121069   0.329   2.288   0.580  0.7865 -0.0285 -1.8691
 6896SOL    HW221070   0.200   2.346   0.527 -0.0393  0.8716  1.0413
 6897SOL     OW21071   5.097   4.992   0.669  0.7008 -0.1297 -0.2086
 6897SOL    HW121072   5.060   5.060   0.725  0.7491  0.7244 -1.1814
 6897SOL    HW221073   5.039   4.990   0.593  0.7405 -1.1384 -0.2136
 6898SOL     OW21074   3.476   3.478   4.868 -0.7066  0.4923  0.1849
 6898SOL    HW121075   3.398   3.481   4.813 -0.0949  2.1873 -0.6095
 6898SOL    HW221076   3.540   3.533   4.823  0.4531  0.3431  1.6000
 6899SOL     OW21077   2.320   4.389   3.934  0.3645 -0.7669  0.3290
 6899SOL    HW121078   2.330   4.353   4.022 -1.0798 -1.0572  0.3799
 6899SOL    HW221079   2.307   4.483   3.948  0.7402 -0.7179  0.3761
 6900SOL     OW21080   2.663   4.408   0.403 -0.1741  0.2298  0.7674
 6900SOL    HW121081   2.603   4.386   0.474 -0.8730  0.6113  0.2992
 6900SOL    HW221082   2.709   4.486   0.434  0.0800 -0.0555  1.1215
 6901SOL     OW21083   2.380   5.110   6.362 -0.0973  0.4715 -0.2678
 6901SOL    HW121084   2.346   5.175   6.300 -2.1621 -0.9338 -0.6606
 6901SOL    HW221085   2.356   5.026   6.324  3.4469 -0.6025 -0.2681
 6902SOL     OW21086   0.449   1.126   3.008 -0.1286  0.1705  0.3500
 6902SOL    HW121087   0.355   1.139   3.022 -0.5896 -3.2715  0.9502
 6902SOL    HW221088   0.486   1.120   3.096  0.6814  1.3852  0.1133
 6903SOL     OW21089   6.300   3.441   0.933  0.7215  0.8411  0.4628
 6903SOL    HW121090   6.381   3.492   0.926  2.1898 -1.5009 -0.0899
 6903SOL    HW221091   6.277   3.444   1.026  1.9618  0.7500  0.7766
 6904SOL     OW21092   1.939   6.305   0.228 -0.2392  0.1746  0.5803
 6904SOL    HW121093   1.923   6.353   0.148 -0.2372 -1.3479 -0.3579
 6904SOL    HW221094   2.020   6.256   0.211 -0.9550 -1.1871  1.0013
 6905SOL     OW21095   3.224   4.997   2.123 -0.0295  0.2183  0.2534
 6905SOL    HW121096   3.153   5.029   2.179  0.1464  0.0346  0.5825
 6905SOL    HW221097   3.185   4.924   2.075  0.2029 -0.4768  1.1169
 6906SOL     OW21098   0.029   4.862   1.780 -0.2901 -0.2439  0.0643
 6906SOL    HW121099  -0.015   4.891   1.700 -0.5778 -0.0761  0.2807
 6906SOL    HW221100   0.051   4.771   1.764 -2.2439 -0.8348  0.6076
 6907SOL     OW21101   4.973   3.952   0.247  0.4527  0.2424  0.2101
 6907SOL    HW121102   4.996   3.862   0.273  0.9143  0.6733  1.3110
 6907SOL    HW221103   5.054   4.002   0.261 -0.4616  1.3050  1.8824
 6908SOL     OW21104   6.340   0.672   5.063  0.3432 -0.5012  0.2387
 6908SOL    HW121105   6.289   0.591   5.070 -0.4237 -0.2793 -2.2152
 6908SOL    HW221106   6.370   0.690   5.152  0.5227 -3.4814  0.8058
 6909SOL     OW21107   0.387   4.833   4.554 -0.1768 -0.1493 -0.8447
 6909SOL    HW121108   0.469   4.883   4.549  0.7537 -1.5807  0.0260
 6909SOL    HW221109   0.320   4.899   4.572  1.0153  0.8342  0.0689
 6910SOL     OW21110   1.308   4.444   3.365 -0.1817  0.3679 -0.2922
 6910SOL    HW121111   1.228   4.486   3.332 -0.6887 -0.8490 -0.6391
 6910SOL    HW221112   1.329   4.493   3.444  0.5782  2.7935 -1.9372
 6911SOL     OW21113   2.135   6.281   4.398 -0.1720 -0.5992 -0.3099
 6911SOL    HW121114   2.191   6.298   4.474  1.6153  0.7658 -1.9091
 6911SOL    HW221115   2.166   6.340   4.330 -1.3180 -2.2474 -2.3577
 6912SOL     OW21116   3.793   4.059   5.050 -0.2180 -0.7529  0.7134
 6912SOL    HW121117   3.836   4.028   5.129 -1.3528  0.4776  1.8573
 6912SOL    HW221118   3.712   4.099   5.082 -1.1289 -1.0632 -1.1641
 6913SOL     OW21119   2.239   6.151   5.067 -0.5583  0.4567  0.2052
 6913SOL    HW121120   2.264   6.210   4.996  0.1298  0.5151  0.4922
 6913SOL    HW221121   2.307   6.084   5.067 -0.4819  0.5347  0.8962
 6914SOL     OW21122   4.691   2.497   2.150  0.1883  0.2139 -0.5543
 6914SOL    HW121123   4.660   2.577   2.107  0.9706  0.1242 -1.3047
 6914SOL    HW221124   4.785   2.511   2.162  0.1721 -0.2184  0.1439
 6915SOL     OW21125   5.172   1.692   1.807  0.2093  0.0809  0.0126
 6915SOL    HW121126   5.131   1.771   1.773 -1.5541 -1.0063 -0.4578
 6915SOL    HW221127   5.261   1.694   1.772 -0.0577  1.4757 -0.6033
 6916SOL     OW21128   6.276   4.261   2.654 -0.5439 -0.3505  0.2532
 6916SOL    HW121129   6.369   4.238   2.658 -0.1728  0.6532 -1.8687
 6916SOL    HW221130   6.263   4.292   2.565 -3.2434 -1.7078  0.1333
 6917SOL     OW21131   2.963   3.669   1.554 -0.3843  0.0034  0.3055
 6917SOL    HW121132   3.033   3.732   1.533 -0.3458  0.1328  0.8101
 6917SOL    HW221133   2.933   3.638   1.469  0.6385 -0.4408  0.1025
 6918SOL     OW21134   2.172   4.779   0.140 -0.2252 -0.6746 -0.4518
 6918SOL    HW121135   2.093   4.758   0.090  0.1045 -1.3276 -0.7036
 6918SOL    HW221136   2.212   4.694   0.158  0.9022 -0.2940 -1.0998
 6919SOL     OW21137   1.146   2.340   4.782 -0.0664  0.1860  0.0817
 6919SOL    HW121138   1.219   2.286   4.813  0.0637  0.0534 -0.4515
 6919SOL    HW221139   1.153   2.336   4.686 -0.1755  0.9777  0.0397
 6920SOL     OW21140   3.323   3.653   5.434 -0.0462 -0.0760  0.2114
 6920SOL    HW121141   3.244   3.705   5.424  0.3471  0.5830  0.4270
 6920SOL    HW221142   3.330   3.603   5.353  0.2163  1.1235 -0.5207
 6921SOL     OW21143   3.584   3.812   3.575  0.1802  0.7496  0.2888
 6921SOL    HW121144   3.596   3.880   3.509 -1.3940 -0.8790 -1.7229
 6921SOL    HW221145   3.647   3.743   3.550  0.2498  0.5367  1.0405
 6922SOL     OW21146   4.842   5.190   4.129  0.1818  0.1229  0.7902
 6922SOL    HW121147   4.904   5.263   4.118  1.0607 -0.2454  2.9964
 6922SOL    HW221148   4.884   5.116   4.085  0.9277  0.0797  1.5674
 6923SOL     OW21149   4.005   2.492   0.601 -0.2923  0.0068  0.1194
 6923SOL    HW121150   3.916   2.481   0.568  0.1209 -1.6692 -0.5127
 6923SOL    HW221151   4.008   2.436   0.679  0.5796 -0.9486 -0.5957
 6924SOL     OW21152   0.872   4.282   0.495  0.7128 -0.0031  0.4294
 6924SOL    HW121153   0.897   4.212   0.435 -0.2623 -0.0950  0.1259
 6924SOL    HW221154   0.843   4.236   0.574 -1.3256 -0.0144 -0.2932
 6925SOL     OW21155   0.912   5.030   5.851 -0.0594  0.4248  0.2175
 6925SOL    HW121156   1.006   5.018   5.855  0.0256  1.4090  1.7382
 6925SOL    HW221157   0.896   5.066   5.764  0.9946  0.4978  0.0462
 6926SOL     OW21158   3.684   4.169   0.575  0.0974 -0.0781 -0.3431
 6926SOL    HW121159   3.621   4.099   0.587  0.1994 -0.3373 -1.3099
 6926SOL    HW221160   3.761   4.126   0.536  0.3251  0.4894 -0.5285
 6927SOL     OW21161   6.282   3.266   2.409 -0.3798  0.0513 -0.0096
 6927SOL    HW121162   6.199   3.296   2.446 -0.2778 -0.1697  0.4016
 6927SOL    HW221163   6.338   3.251   2.485 -0.2544 -0.6595 -0.2389
 6928SOL     OW21164   3.065   2.233   4.939  0.3266  0.6166 -0.0790
 6928SOL    HW121165   3.138   2.175   4.958  0.1438  0.0214 -1.1425
 6928SOL    HW221166   3.103   2.305   4.889 -0.0426 -0.4753 -1.9914
 6929SOL     OW21167   0.117   4.588   5.529  0.4714  0.3189 -0.0959
 6929SOL    HW121168   0.107   4.648   5.455  0.6425  0.1151 -0.2859
 6929SOL    HW221169   0.171   4.517   5.495 -0.5492 -0.4340 -0.1656
 6930SOL     OW21170   5.370   3.717   5.801 -0.4371 -0.0079  0.2891
 6930SOL    HW121171   5.375   3.697   5.707 -0.7520  0.6201  0.1315
 6930SOL    HW221172   5.387   3.812   5.806  0.5446 -0.2120  0.9625
 6931SOL     OW21173   5.999   3.622   4.325  0.3049 -0.0614 -0.1448
 6931SOL    HW121174   6.030   3.704   4.286 -0.9080  0.3823 -0.1962
 6931SOL    HW221175   6.055   3.555   4.287  1.0892  0.7132 -0.3650
 6932SOL     OW21176   2.121   1.535   2.460 -0.4889 -0.4673 -0.1351
 6932SOL    HW121177   2.116   1.544   2.556  0.5943  1.3176 -0.2191
 6932SOL    HW221178   2.142   1.623   2.429  1.4426 -1.4732 -1.8389
 6933SOL     OW21179   0.543   6.058   5.693 -0.2801  0.3205 -0.4033
 6933SOL    HW121180   0.627   6.053   5.649  0.7938  0.4584  1.5722
 6933SOL    HW221181   0.488   5.993   5.649  1.2893 -0.7357 -0.8135
 6934SOL     OW21182   0.124   3.763   3.635  0.1642  1.0304  0.2582
 6934SOL    HW121183   0.097   3.761   3.544 -0.5568 -0.6732  0.4817
 6934SOL    HW221184   0.044   3.750   3.685  0.4585  2.5699  1.1727
 6935SOL     OW21185   3.122   1.440   5.226 -0.0344 -0.7721 -0.5770
 6935SOL    HW121186   3.056   1.428   5.294  0.7203  0.9417  0.4844
 6935SOL    HW221187   3.205   1.421   5.270  0.3253 -1.3977 -1.5023
 6936SOL     OW21188   3.972   2.754   0.509 -0.7158 -0.6365  0.2105
 6936SOL    HW121189   4.060   2.791   0.504 -0.8857 -0.3069 -0.3584
 6936SOL    HW221190   3.984   2.670   0.554 -0.6374  1.1007  3.6536
 6937SOL     OW21191   5.841   3.435   5.850 -0.1179  0.3064  0.2520
 6937SOL    HW121192   5.866   3.526   5.862  0.4453  0.4641 -1.9099
 6937SOL    HW221193   5.917   3.395   5.807 -0.1074 -1.3389  1.7503
 6938SOL     OW21194   3.582   0.919   2.143 -0.1967 -0.4464 -0.3069
 6938SOL    HW121195   3.563   0.970   2.222  0.1497  0.6259 -0.9037
 6938SOL    HW221196   3.674   0.935   2.125  0.3648 -2.6309  0.4349
 6939SOL     OW21197   4.407   6.193   4.668 -0.5073  0.2751 -0.3541
 6939SOL    HW121198   4.443   6.204   4.580  0.0262  1.2029 -0.0329
 6939SOL    HW221199   4.344   6.122   4.660  0.5915 -0.6358 -1.1828
 6940SOL     OW21200   2.143   0.987   5.997 -0.1314  0.1874 -0.3355
 6940SOL    HW121201   2.077   0.996   6.067 -1.4032  0.2106 -1.5086
 6940SOL    HW221202   2.224   1.019   6.036 -0.7903  0.0831  1.1760
 6941SOL     OW21203   3.512   5.422   0.563 -0.3376  0.0613  0.3155
 6941SOL    HW121204   3.473   5.446   0.646 -1.5155 -1.1176  0.1068
 6941SOL    HW221205   3.439   5.421   0.501  0.5053  0.8193 -0.7225
 6942SOL     OW21206   3.256   3.345   3.726  0.4864 -0.4436 -0.6517
 6942SOL    HW121207   3.292   3.425   3.765 -0.8354 -0.0572 -0.1910
 6942SOL    HW221208   3.332   3.301   3.688  1.6379 -0.2526  1.3514
 6943SOL     OW21209   3.926   4.858   3.991  0.7800 -0.6893 -0.0263
 6943SOL    HW121210   4.007   4.908   3.977  0.0181  0.5416 -0.0870
 6943SOL    HW221211   3.897   4.833   3.903  0.5235 -0.2156 -0.0762
 6944SOL     OW21212   6.071   2.160   0.988  0.0864 -0.1247  0.3496
 6944SOL    HW121213   6.025   2.206   0.918  1.0189  2.9849  1.6706
 6944SOL    HW221214   6.162   2.155   0.958  0.7613  2.3710  1.7765
 6945SOL     OW21215   5.185   2.896   1.483 -0.2341 -0.2534  0.2935
 6945SOL    HW121216   5.198   2.888   1.388 -1.0027  1.5193  0.0118
 6945SOL    HW221217   5.090   2.908   1.493 -0.4630 -2.7385  1.4890
 6946SOL     OW21218   5.458   5.519   2.717 -0.7043  0.0825  0.3769
 6946SOL    HW121219   5.487   5.518   2.808 -2.3502 -0.0900  0.9136
 6946SOL    HW221220   5.436   5.611   2.700 -1.6968 -0.1156  0.5805
 6947SOL     OW21221   1.328   0.542   6.219  0.0164  0.2941 -0.0789
 6947SOL    HW121222   1.297   0.584   6.139 -1.7563  0.2171  0.5499
 6947SOL    HW221223   1.363   0.614   6.272 -2.0412  0.8637  0.5498
 6948SOL     OW21224   2.190   3.752   5.756 -0.0926 -0.2828 -0.1149
 6948SOL    HW121225   2.139   3.802   5.819 -1.0940 -0.0157 -1.1244
 6948SOL    HW221226   2.275   3.740   5.798  0.1428  2.2208  0.1933
 6949SOL     OW21227   2.219   1.933   3.105  0.3135 -0.5438 -0.2129
 6949SOL    HW121228   2.285   2.001   3.122  1.4959 -1.5239 -0.8109
 6949SOL    HW221229   2.222   1.877   3.183 -0.1039 -0.3619 -0.0641
 6950SOL     OW21230   3.160   4.834   1.147 -0.0373  0.1574  0.3393
 6950SOL    HW121231   3.237   4.779   1.157  0.1490  0.5424  1.0463
 6950SOL    HW221232   3.088   4.781   1.183 -0.5355 -1.1640 -2.4803
 6951SOL     OW21233   2.111   4.376   1.227  0.5411 -0.2347 -0.0209
 6951SOL    HW121234   2.053   4.329   1.167 -0.7994  2.7840 -1.1651
 6951SOL    HW221235   2.052   4.418   1.290  1.7800 -0.8877  1.6160
 6952SOL     OW21236   4.290   5.000   4.304  0.1335 -0.0820  0.4407
 6952SOL    HW121237   4.306   5.068   4.239  0.8533 -1.6058 -1.0189
 6952SOL    HW221238   4.375   4.985   4.345  0.2994 -1.0845 -0.2439
 6953SOL     OW21239   5.455   0.727   1.683 -0.1108  0.3822  0.2283
 6953SOL    HW121240   5.395   0.696   1.750 -1.0747 -1.2531 -1.3485
 6953SOL    HW221241   5.542   0.719   1.723 -0.7633  0.8187  1.7809
 6954SOL     OW21242   3.152   0.638   5.952  0.7221  0.0456  0.4617
 6954SOL    HW121243   3.129   0.669   6.040  0.6089 -2.1370  1.2478
 6954SOL    HW221244   3.238   0.674   5.935 -0.0328  1.9964  0.7052
 6955SOL     OW21245   0.713   4.538   3.235  0.3339  0.3518  0.0693
 6955SOL    HW121246   0.620   4.533   3.215  0.4226  1.0545 -0.5122
 6955SOL    HW221247   0.733   4.454   3.275 -0.1199 -0.5589 -1.5890
 6956SOL     OW21248   3.122   4.351   1.460  0.4347 -0.4682  0.3441
 6956SOL    HW121249   3.191   4.292   1.430  0.6909 -0.2589  0.5241
 6956SOL    HW221250   3.155   4.439   1.440  0.4560 -0.3431  0.9204
 6957SOL     OW21251   3.166   1.172   5.701  0.0014 -0.0304  0.1250
 6957SOL    HW121252   3.186   1.248   5.646  0.3592  0.4451  0.9079
 6957SOL    HW221253   3.130   1.107   5.640 -0.5435  0.8562 -0.5053
 6958SOL     OW21254   5.024   0.289   6.061 -0.3670  0.4848  0.7316
 6958SOL    HW121255   4.944   0.261   6.105 -1.0834  0.2956 -0.6586
 6958SOL    HW221256   5.032   0.382   6.084 -1.2303  0.6155  0.5360
 6959SOL     OW21257   4.058   6.106   1.439  0.5593  0.3438 -0.8293
 6959SOL    HW121258   4.048   6.020   1.482  1.1960  1.1411  0.9399
 6959SOL    HW221259   4.002   6.164   1.490  0.5592  1.1117 -1.7005
 6960SOL     OW21260   1.691   5.800   2.927  0.1261 -0.2830  0.0694
 6960SOL    HW121261   1.670   5.722   2.978  0.5698  0.4468  1.3879
 6960SOL    HW221262   1.607   5.831   2.894 -0.0976 -1.0860 -0.1138
 6961SOL     OW21263   4.667   3.831   2.791 -0.2366 -0.3614 -0.0030
 6961SOL    HW121264   4.674   3.740   2.819  0.1153 -0.3941 -0.1950
 6961SOL    HW221265   4.579   3.858   2.818  0.0033 -0.4759  0.8885
 6962SOL     OW21266   4.955   2.356   0.197  0.0521  0.1213 -0.5212
 6962SOL    HW121267   4.920   2.409   0.125 -3.8063 -0.3106  0.9213
 6962SOL    HW221268   5.029   2.407   0.230 -1.7512  3.2142 -1.0703
 6963SOL     OW21269   0.005   2.207   4.495  0.6181  0.1322 -0.3001
 6963SOL    HW121270   0.061   2.237   4.566 -0.4991  1.4190  0.0598
 6963SOL    HW221271   0.065   2.191   4.422  1.8096 -1.4859  0.9853
 6964SOL     OW21272   3.310   0.017   0.015 -0.3019 -0.2068 -0.3416
 6964SOL    HW121273   3.351  -0.056   0.062  1.0004  1.5691  1.3946
 6964SOL    HW221274   3.295   0.084   0.083 -1.0448  1.3088 -1.9598
 6965SOL     OW21275   0.492   6.335   1.027 -0.2331  0.1212  0.4202
 6965SOL    HW121276   0.484   6.291   1.112 -2.7589 -0.2272  0.0332
 6965SOL    HW221277   0.510   6.426   1.050 -2.5538  0.3787  1.4145
 6966SOL     OW21278   3.696   2.370   0.181 -0.2474  0.1791 -0.3704
 6966SOL    HW121279   3.742   2.333   0.105  0.2235 -0.6882  0.3250
 6966SOL    HW221280   3.622   2.417   0.143  0.1928  0.0698 -1.3962
 6967SOL     OW21281   6.286   2.757   0.971 -0.5514 -0.5919  0.1154
 6967SOL    HW121282   6.373   2.770   0.935 -0.1909  0.0988  1.2347
 6967SOL    HW221283   6.226   2.787   0.902  0.0606 -1.6809 -0.9108
 6968SOL     OW21284   5.880   4.213   0.723 -0.0792  0.3455 -0.9903
 6968SOL    HW121285   5.933   4.284   0.759 -1.6624  1.0143  0.1113
 6968SOL    HW221286   5.943   4.149   0.691  1.3704  1.2866 -0.0654
 6969SOL     OW21287   2.432   3.860   2.399  0.3777 -0.1870 -0.2486
 6969SOL    HW121288   2.383   3.942   2.392  0.7528  0.0446 -0.1743
 6969SOL    HW221289   2.482   3.868   2.480  0.9732 -0.1791 -0.6114
 6970SOL     OW21290   2.185   4.958   3.888  0.2957  0.2480  0.5901
 6970SOL    HW121291   2.144   4.905   3.820  1.0776 -1.7008  1.5868
 6970SOL    HW221292   2.242   5.018   3.841 -1.0628  0.6416 -0.6007
 6971SOL     OW21293   3.304   0.689   0.910 -0.3316 -0.2571 -0.4074
 6971SOL    HW121294   3.394   0.669   0.883  0.1597  0.6853  0.5269
 6971SOL    HW221295   3.284   0.772   0.867  0.2037  0.8949  1.5108
 6972SOL     OW21296   1.842   1.609   3.465  0.1603  0.4157  0.2379
 6972SOL    HW121297   1.775   1.657   3.514  0.9909  0.5543  1.2512
 6972SOL    HW221298   1.856   1.530   3.516 -1.2649 -0.9746 -1.4694
 6973SOL     OW21299   5.095   5.043   4.034 -0.3306  0.9995  0.2822
 6973SOL    HW121300   5.059   5.049   3.946 -0.6731 -1.4390  0.2148
 6973SOL    HW221301   5.185   5.014   4.021 -0.8124 -0.7823  0.7678
 6974SOL     OW21302   3.120   1.074   0.927 -0.4581 -0.4003 -0.1688
 6974SOL    HW121303   3.130   1.168   0.919 -1.7471 -0.2155  0.2643
 6974SOL    HW221304   3.030   1.057   0.899 -0.7423 -1.3078  1.2853
 6975SOL     OW21305   5.416   2.597   0.167  0.3203  0.1929 -0.0756
 6975SOL    HW121306   5.494   2.590   0.222 -1.4634  0.3625  2.5382
 6975SOL    HW221307   5.413   2.689   0.141  0.9182  0.2035 -0.1190
 6976SOL     OW21308   4.531   5.972   4.397  0.2012 -0.1980 -0.3012
 6976SOL    HW121309   4.448   5.928   4.410 -0.4016  0.8918 -0.4130
 6976SOL    HW221310   4.564   5.939   4.313  0.6365 -1.7950  0.4836
 6977SOL     OW21311   1.453   1.449   2.528  0.3491  0.7061  0.3596
 6977SOL    HW121312   1.476   1.406   2.610  0.7921 -0.3718 -0.3249
 6977SOL    HW221313   1.519   1.419   2.466 -2.0190 -1.2681 -1.2852
 6978SOL     OW21314   3.079   0.015   1.597  0.1297  0.8607 -0.4858
 6978SOL    HW121315   2.985   0.030   1.604  0.6774  4.0532  0.8242
 6978SOL    HW221316   3.112   0.029   1.686  1.9819  0.9028 -1.1625
 6979SOL     OW21317   0.332   5.715   6.369 -0.2664  0.0349 -0.2154
 6979SOL    HW121318   0.311   5.809   6.365  0.7762  0.2887  0.1975
 6979SOL    HW221319   0.413   5.711   6.420 -1.4550 -1.2749  1.5880
 6980SOL     OW21320   6.193   0.845   0.607  0.1741  0.6284  0.0147
 6980SOL    HW121321   6.155   0.759   0.589 -1.2503  1.0368  0.9552
 6980SOL    HW221322   6.287   0.833   0.594 -0.2095 -0.5499 -1.8805
 6981SOL     OW21323   1.337   3.102   3.163  0.4808  0.2110 -0.3671
 6981SOL    HW121324   1.273   3.039   3.196 -0.6481  1.0045 -1.0138
 6981SOL    HW221325   1.394   3.050   3.106 -0.0949 -0.3408 -0.4496
 6982SOL     OW21326   2.546   4.843   3.403 -0.5496 -0.1410  0.2690
 6982SOL    HW121327   2.493   4.922   3.393  0.8578  0.9864  1.4039
 6982SOL    HW221328   2.485   4.777   3.435 -1.6499  0.6228 -0.2045
 6983SOL     OW21329   2.394   0.902   0.925  0.2029 -0.0916 -0.4755
 6983SOL    HW121330   2.486   0.875   0.928  0.8467  2.1271  1.5769
 6983SOL    HW221331   2.357   0.870   1.008  0.3862  3.0700  0.9062
 6984SOL     OW21332   2.984   2.976   3.327  0.7021 -0.3032  0.1930
 6984SOL    HW121333   3.070   2.959   3.289  0.5966 -0.9969  0.2497
 6984SOL    HW221334   2.968   3.069   3.311  0.7961 -0.5119 -1.1537
 6985SOL     OW21335   0.360   6.258   2.484  0.1278 -0.1435  0.5484
 6985SOL    HW121336   0.272   6.296   2.487 -0.5393 -1.5261 -0.7316
 6985SOL    HW221337   0.399   6.295   2.406 -0.4139 -1.8044 -0.5334
 6986SOL     OW21338   5.003   4.378   1.023 -0.2671 -0.2275  0.1086
 6986SOL    HW121339   5.080   4.321   1.026  0.3173  0.4329 -1.8934
 6986SOL    HW221340   4.933   4.325   1.061  0.3624 -2.1509 -1.3365
 6987SOL     OW21341   0.585   0.884   3.309  0.4216 -0.2857  0.2232
 6987SOL    HW121342   0.530   0.815   3.273 -0.2436  1.2825 -1.8431
 6987SOL    HW221343   0.524   0.946   3.348  0.7194  1.0555 -1.3629
 6988SOL     OW21344   5.964   5.550   1.323 -0.4972  0.1621 -0.3100
 6988SOL    HW121345   5.975   5.635   1.281  0.0037  0.1154 -0.2820
 6988SOL    HW221346   5.967   5.570   1.417 -1.3089  0.2290 -0.2953
 6989SOL     OW21347   5.370   3.205   4.300 -0.4494 -0.4955  0.6144
 6989SOL    HW121348   5.300   3.167   4.247 -1.5062 -0.6913  2.1159
 6989SOL    HW221349   5.396   3.134   4.360  1.2994 -0.5476 -0.1747
 6990SOL     OW21350   0.480   6.059   0.768  0.0570  0.6461  0.4809
 6990SOL    HW121351   0.522   5.997   0.709  0.7571  2.1292 -0.6296
 6990SOL    HW221352   0.426   6.114   0.711  0.0031  1.4994  1.3341
 6991SOL     OW21353   5.323   2.680   3.966 -0.1645 -0.1019 -0.2240
 6991SOL    HW121354   5.232   2.669   3.936  0.0972 -0.8104 -0.7516
 6991SOL    HW221355   5.330   2.774   3.984 -1.4197 -0.2429  1.1663
 6992SOL     OW21356   2.543   6.321   0.047 -0.0732 -0.3519 -0.5567
 6992SOL    HW121357   2.513   6.253  -0.012  1.6513 -1.5758 -0.0293
 6992SOL    HW221358   2.637   6.309   0.054  0.0535  1.1345  0.7379
 6993SOL     OW21359   4.326   2.070   3.412 -0.5339 -0.1838 -0.6586
 6993SOL    HW121360   4.401   2.010   3.411 -0.3979 -0.0862  1.6328
 6993SOL    HW221361   4.301   2.079   3.319  2.0890 -0.4497 -1.4220
 6994SOL     OW21362   2.755   4.955   4.036 -0.0972 -0.3742 -0.2177
 6994SOL    HW121363   2.814   5.022   4.003  0.4149 -0.7420 -0.0517
 6994SOL    HW221364   2.802   4.915   4.109 -0.5542 -0.6618 -0.0783
 6995SOL     OW21365   3.650   5.557   3.483  0.0679  0.4107 -0.4860
 6995SOL    HW121366   3.584   5.492   3.458 -1.9931  1.9143  0.8471
 6995SOL    HW221367   3.699   5.516   3.554  0.2733 -0.5262 -1.1533
 6996SOL     OW21368   0.970   0.426   4.766 -0.3800 -0.2733 -0.5482
 6996SOL    HW121369   1.009   0.487   4.829  0.0428  0.4422 -1.5058
 6996SOL    HW221370   0.982   0.467   4.681 -0.9075 -1.2685 -1.1158
 6997SOL     OW21371   1.996   4.997   3.593 -0.4855 -0.3126  0.5563
 6997SOL    HW121372   2.006   5.054   3.516  0.4656  0.0946  0.9769
 6997SOL    HW221373   1.932   5.043   3.647 -1.9824 -1.1305 -0.4691
 6998SOL     OW21374   5.188   0.947   2.175 -0.2129  0.2302 -0.2182
 6998SOL    HW121375   5.093   0.948   2.163 -0.1499 -1.6549 -1.2076
 6998SOL    HW221376   5.201   0.952   2.270 -1.3078  0.2921 -0.0653
 6999SOL     OW21377   0.646   6.216   1.216 -0.9194 -0.0073 -0.6819
 6999SOL    HW121378   0.613   6.216   1.306  0.3530  1.0302 -0.2050
 6999SOL    HW221379   0.734   6.252   1.222  1.0777 -4.4222 -1.6663
 7000SOL     OW21380   0.749   0.693   1.010  0.1162  0.0311 -0.2759
 7000SOL    HW121381   0.830   0.721   0.967  0.6297 -0.8631  0.0825
 7000SOL    HW221382   0.735   0.757   1.079  0.5541  0.1655 -0.3079
 7001SOL     OW21383   4.142   6.100   4.960  0.0854 -0.2661 -0.2580
 7001SOL    HW121384   4.227   6.103   5.003  0.4250  1.1624 -1.0173
 7001SOL    HW221385   4.141   6.015   4.915 -0.0859 -1.5772  2.1058
 7002SOL     OW21386   3.639   4.297   1.736 -0.4230 -0.1538 -0.3239
 7002SOL    HW121387   3.733   4.308   1.718 -0.7164  0.5256 -1.5091
 7002SOL    HW221388   3.605   4.386   1.740 -0.9006 -0.3868  0.7882
 7003SOL     OW21389   3.553   1.598   5.094  0.0964 -0.7844 -0.0383
 7003SOL    HW121390   3.622   1.538   5.067  0.7261 -0.9929  1.9256
 7003SOL    HW221391   3.474   1.544   5.097  0.4459 -1.2668  0.6451
 7004SOL     OW21392   3.286   3.623   4.341  0.5863  0.4158 -0.4005
 7004SOL    HW121393   3.285   3.528   4.329  0.4348  0.5410 -1.4463
 7004SOL    HW221394   3.374   3.643   4.372 -0.1858 -0.3607  2.4728
 7005SOL     OW21395   4.242   5.272   0.533 -0.2287 -0.2011 -0.2027
 7005SOL    HW121396   4.267   5.185   0.565  0.9202  0.0797 -0.3379
 7005SOL    HW221397   4.238   5.261   0.438  0.1907 -0.0369 -0.2398
 7006SOL     OW21398   6.247   0.417   1.133  0.5227 -0.5394 -0.0074
 7006SOL    HW121399   6.252   0.348   1.199 -0.2902 -2.9593 -2.3784
 7006SOL    HW221400   6.334   0.420   1.094  0.0186 -1.6473 -1.2559
 7007SOL     OW21401   2.992   2.582   1.495 -0.1317 -0.3240  0.5349
 7007SOL    HW121402   2.943   2.524   1.553 -0.5013 -0.3325  0.2120
 7007SOL    HW221403   3.072   2.533   1.476  0.1531 -0.1751  1.3168
 7008SOL     OW21404   3.541   2.015   0.637 -0.2892  0.2339  0.2891
 7008SOL    HW121405   3.477   1.968   0.585 -0.7490  2.1858 -0.9545
 7008SOL    HW221406   3.592   2.066   0.574  0.3381  1.2383  1.5691
 7009SOL     OW21407   1.461   3.967   2.624 -0.1378  0.1033  0.3562
 7009SOL    HW121408   1.384   4.018   2.599 -2.6140 -3.2268  0.7458
 7009SOL    HW221409   1.427   3.879   2.640  3.9055 -1.6588 -0.0928
 7010SOL     OW21410   5.646   3.075   4.778  0.4037 -0.1344  0.1593
 7010SOL    HW121411   5.734   3.111   4.775 -0.0160  0.8732 -0.1519
 7010SOL    HW221412   5.639   3.034   4.864  0.9092  0.4453  0.4693
 7011SOL     OW21413   5.735   1.255   3.638 -0.0663 -0.1028 -0.0984
 7011SOL    HW121414   5.747   1.161   3.633  1.7988 -0.0816  2.7508
 7011SOL    HW221415   5.645   1.270   3.609  0.0682 -2.5823 -1.8752
 7012SOL     OW21416   4.377   0.489   4.586  0.6508 -0.4354 -0.4909
 7012SOL    HW121417   4.330   0.406   4.575  0.2909 -0.2189 -0.5989
 7012SOL    HW221418   4.469   0.466   4.576  0.4923 -0.6625 -1.5405
 7013SOL     OW21419   4.047   3.041   4.937 -0.1784  0.4660 -0.6767
 7013SOL    HW121420   4.132   3.062   4.898 -0.1877  0.2755 -0.8027
 7013SOL    HW221421   4.008   3.125   4.959  0.9590  0.4986  1.3102
 7014SOL     OW21422   4.406   2.740   6.326 -0.2352  0.1645 -0.1469
 7014SOL    HW121423   4.384   2.768   6.237  0.5667  0.1626 -0.3446
 7014SOL    HW221424   4.322   2.740   6.372 -0.5395  0.9066 -0.6965
 7015SOL     OW21425   1.672   0.421   0.754  0.1994  0.1309 -0.4028
 7015SOL    HW121426   1.728   0.360   0.707  0.1156 -0.4026  0.1906
 7015SOL    HW221427   1.632   0.475   0.685  1.7504  0.7925 -0.8004
 7016SOL     OW21428   0.073   0.371   6.200 -0.1723  0.0178  0.1293
 7016SOL    HW121429   0.138   0.377   6.271 -0.3507  1.1794  0.2000
 7016SOL    HW221430   0.103   0.435   6.135  0.8276 -2.0765 -1.5550
 7017SOL     OW21431   2.575   3.295   1.716 -0.1774  0.4284 -0.6838
 7017SOL    HW121432   2.513   3.235   1.674  0.2817 -0.5841  0.0704
 7017SOL    HW221433   2.661   3.258   1.697  0.0419  0.0944  0.9587
 7018SOL     OW21434   0.808   4.291   5.642 -0.1934  0.3329 -1.0133
 7018SOL    HW121435   0.822   4.198   5.657 -1.3482  0.4767  1.2444
 7018SOL    HW221436   0.878   4.334   5.692  0.6993  0.6627 -2.5408
 7019SOL     OW21437   1.350   4.950   5.380  0.5609 -0.3525 -0.0826
 7019SOL    HW121438   1.279   5.015   5.374 -0.7171 -1.6811  0.1924
 7019SOL    HW221439   1.363   4.921   5.289  0.7801 -0.0631 -0.1413
 7020SOL     OW21440   6.033   0.678   3.360 -0.3981 -0.1183  0.5949
 7020SOL    HW121441   6.113   0.723   3.334 -0.2223 -0.0036  1.3516
 7020SOL    HW221442   6.050   0.585   3.341  0.2132 -0.1969  1.5041
 7021SOL     OW21443   5.322   6.037   6.232 -0.2494 -0.0928  0.2386
 7021SOL    HW121444   5.393   5.976   6.250  0.5785  1.0506  0.9469
 7021SOL    HW221445   5.315   6.039   6.136  2.1687  1.4358  0.0613
 7022SOL     OW21446   5.668   1.960   0.269  0.1129 -0.4915 -0.2273
 7022SOL    HW121447   5.636   1.891   0.211  0.1339 -1.2320  0.6308
 7022SOL    HW221448   5.593   1.984   0.323 -0.4480  1.5952 -1.8879
 7023SOL     OW21449   3.018   5.015   4.857 -0.4011  0.1241 -0.3424
 7023SOL    HW121450   3.043   5.053   4.942 -1.5225  0.1450 -0.0155
 7023SOL    HW221451   3.004   5.091   4.800 -1.1064  0.1530 -0.1294
 7024SOL     OW21452   1.841   2.713   1.099  0.1262  0.5612  0.2777
 7024SOL    HW121453   1.894   2.764   1.160 -0.8940  0.2053  1.4919
 7024SOL    HW221454   1.752   2.746   1.111 -0.4344 -1.0365  0.6014
 7025SOL     OW21455   0.629   2.508   4.568  0.7393  0.3302 -0.5067
 7025SOL    HW121456   0.651   2.415   4.569 -0.3258  0.0584  2.3491
 7025SOL    HW221457   0.585   2.521   4.484  0.5147 -1.8232 -0.7513
 7026SOL     OW21458   2.955   5.146   5.371 -0.5197  0.0127  0.4088
 7026SOL    HW121459   2.893   5.189   5.312  0.1318  0.1329 -0.1821
 7026SOL    HW221460   3.040   5.157   5.330 -0.2067 -0.8968  0.7926
 7027SOL     OW21461   0.378   0.740   3.126 -0.5520 -0.1975 -0.3985
 7027SOL    HW121462   0.297   0.693   3.107 -0.3615 -0.0141 -1.7093
 7027SOL    HW221463   0.421   0.749   3.041  1.8862 -2.1948  0.5515
 7028SOL     OW21464   1.045   0.678   4.258  0.7891  0.5182 -0.0728
 7028SOL    HW121465   1.136   0.659   4.235  0.4888 -0.4801 -0.4796
 7028SOL    HW221466   1.005   0.708   4.176  0.5037 -0.0140 -0.1316
 7029SOL     OW21467   1.082   6.123   0.175 -0.6376 -0.3054  0.1338
 7029SOL    HW121468   1.040   6.146   0.092 -1.9095 -1.5269  0.4330
 7029SOL    HW221469   1.027   6.055   0.212  1.8455 -2.2557  0.3530
 7030SOL     OW21470   2.802   0.950   5.526 -0.1831  0.4020 -0.1693
 7030SOL    HW121471   2.750   1.005   5.585  0.1757  0.8337 -0.2544
 7030SOL    HW221472   2.813   1.003   5.447  0.5566  0.3910 -0.0784
 7031SOL     OW21473   0.332   0.835   1.769 -0.0927  0.3243 -0.1481
 7031SOL    HW121474   0.243   0.800   1.770 -0.6564  1.7061  0.9813
 7031SOL    HW221475   0.360   0.829   1.678 -2.9981  3.8507 -1.4107
 7032SOL     OW21476   3.568   1.520   1.401 -0.0722 -0.0984  0.0146
 7032SOL    HW121477   3.508   1.446   1.411  1.6919 -1.7181 -0.9313
 7032SOL    HW221478   3.555   1.549   1.310 -1.1726  1.1315  0.5597
 7033SOL     OW21479   1.968   3.865   1.213 -0.6985  0.0073  0.0485
 7033SOL    HW121480   1.963   3.807   1.137 -1.0363  0.9566 -0.6569
 7033SOL    HW221481   1.958   3.953   1.177 -1.5936  0.4212  1.2730
 7034SOL     OW21482   4.640   5.469   2.131  0.2464  0.5544 -0.6147
 7034SOL    HW121483   4.704   5.537   2.109  0.2388  0.6538 -0.3313
 7034SOL    HW221484   4.664   5.395   2.075  3.2924 -0.9605  2.5012
 7035SOL     OW21485   3.624   4.309   4.577  0.1322 -0.4479  0.4151
 7035SOL    HW121486   3.708   4.326   4.535  0.4422 -0.8089  0.8802
 7035SOL    HW221487   3.645   4.246   4.647 -0.7145 -1.4323 -0.2059
 7036SOL     OW21488   0.550   1.021   1.524 -0.0954  0.0467  0.7211
 7036SOL    HW121489   0.478   0.960   1.506 -0.8765  1.2757 -0.4800
 7036SOL    HW221490   0.506   1.104   1.544  0.9699  0.7617  0.1453
 7037SOL     OW21491   1.995   6.068   4.670 -0.0763  0.0127 -0.3148
 7037SOL    HW121492   2.056   6.040   4.738  0.6338 -0.3435 -1.0923
 7037SOL    HW221493   2.050   6.086   4.594 -0.7273  1.7532 -0.3899
 7038SOL     OW21494   3.517   2.238   4.349  0.2927 -0.1904 -0.3964
 7038SOL    HW121495   3.605   2.265   4.373 -0.2489  0.5790  0.7338
 7038SOL    HW221496   3.528   2.148   4.317  1.2275 -0.7438  1.4264
 7039SOL     OW21497   0.897   3.817   1.597 -0.1204  0.1157 -0.2601
 7039SOL    HW121498   0.991   3.805   1.612  0.1864  0.9485 -1.4346
 7039SOL    HW221499   0.876   3.900   1.641 -0.2388  0.0949 -0.2772
 7040SOL     OW21500   3.535   0.343   2.701  0.2042  0.1052  0.3416
 7040SOL    HW121501   3.629   0.337   2.680 -0.0768  0.6697 -1.1822
 7040SOL    HW221502   3.500   0.257   2.676 -0.3222  1.1327 -2.6779
 7041SOL     OW21503   1.641   2.267   3.314  0.3131  0.5769  0.0355
 7041SOL    HW121504   1.709   2.310   3.365 -0.6175  1.2820  0.7049
 7041SOL    HW221505   1.572   2.332   3.306 -0.3440 -0.1721 -0.5088
 7042SOL     OW21506   0.129   6.363   2.102  0.0166  0.0185 -0.5632
 7042SOL    HW121507   0.103   6.399   2.017 -0.4298 -0.3211 -0.5702
 7042SOL    HW221508   0.225   6.366   2.101  0.0236 -0.4448 -1.2811
 7043SOL     OW21509   3.149   0.521   2.990  0.1723  0.4043  0.0103
 7043SOL    HW121510   3.234   0.536   3.030  0.3447  1.6512 -0.7952
 7043SOL    HW221511   3.169   0.488   2.902 -0.1884 -0.4364  0.2343
 7044SOL     OW21512   6.252   1.571   4.815  0.4552  0.2143 -1.1920
 7044SOL    HW121513   6.273   1.571   4.722 -0.9420 -1.6007 -1.5327
 7044SOL    HW221514   6.159   1.548   4.819  1.3547 -3.3578  0.7969
 7045SOL     OW21515   3.341   1.358   1.132 -0.4310 -0.0389  0.2858
 7045SOL    HW121516   3.279   1.378   1.202  0.1781  0.2014  0.7593
 7045SOL    HW221517   3.287   1.325   1.060 -1.1446  0.5478  0.5561
 7046SOL     OW21518   2.272   2.920   1.777  0.6362 -0.4291 -0.3991
 7046SOL    HW121519   2.244   2.829   1.786  1.1200 -0.7274 -1.7895
 7046SOL    HW221520   2.194   2.966   1.746  0.3400 -0.3272  0.4831
 7047SOL     OW21521   1.470   4.041   3.615 -0.7925 -0.4194  0.9401
 7047SOL    HW121522   1.401   4.090   3.569  0.9912  1.2913 -0.0136
 7047SOL    HW221523   1.537   4.107   3.635  1.7883 -2.4797 -0.5692
 7048SOL     OW21524   3.143   5.206   2.659 -0.3440 -0.2496 -0.6763
 7048SOL    HW121525   3.164   5.203   2.753 -2.5261  0.0826 -0.1383
 7048SOL    HW221526   3.103   5.292   2.646  0.5738 -0.0115 -2.0832
 7049SOL     OW21527   1.495   3.392   4.548 -0.1186 -0.6096 -0.0274
 7049SOL    HW121528   1.568   3.354   4.500 -0.6701 -0.9083 -0.6360
 7049SOL    HW221529   1.417   3.368   4.497 -0.5734  0.3531  0.2020
 7050SOL     OW21530   4.011   3.712   2.765  0.4239 -0.0967  0.6330
 7050SOL    HW121531   4.078   3.770   2.802  1.1905 -0.6597  0.1379
 7050SOL    HW221532   3.961   3.769   2.705  1.9860 -0.2182 -0.8458
 7051SOL     OW21533   0.232   5.070   1.180  0.9606  0.0659  0.1451
 7051SOL    HW121534   0.184   5.152   1.190  1.2995  0.3933 -0.7947
 7051SOL    HW221535   0.230   5.052   1.086  1.5161 -0.6220  0.2543
 7052SOL     OW21536   4.139   4.627   5.749 -0.0207  0.0261 -0.5913
 7052SOL    HW121537   4.108   4.652   5.836 -1.4162  2.4903 -1.7266
 7052SOL    HW221538   4.127   4.532   5.745 -2.1144  0.1877  1.0797
 7053SOL     OW21539   2.181   4.008   4.770  0.4656  0.1912  0.4695
 7053SOL    HW121540   2.276   4.003   4.787  0.2476  1.6054  2.2059
 7053SOL    HW221541   2.171   4.081   4.709  0.4448  0.3527  0.6665
 7054SOL     OW21542   4.841   5.754   5.369  0.3071  0.5028 -0.6906
 7054SOL    HW121543   4.754   5.794   5.363 -0.4896 -1.0295  0.5402
 7054SOL    HW221544   4.852   5.707   5.286 -1.5133 -2.1858  0.5259
 7055SOL     OW21545   1.669   1.610   2.224  0.5297 -0.2020 -0.1653
 7055SOL    HW121546   1.740   1.546   2.224 -0.0090 -0.8343  1.3546
 7055SOL    HW221547   1.589   1.558   2.219  0.0881  0.3490  0.8824
 7056SOL     OW21548   4.538   6.315   2.838  0.4760  0.1281 -0.2617
 7056SOL    HW121549   4.589   6.353   2.767 -0.4385  2.1172  0.1279
 7056SOL    HW221550   4.507   6.232   2.802  1.8238  0.0918 -1.4098
 7057SOL     OW21551   0.871   2.266   1.570  0.5330 -0.1683  0.6314
 7057SOL    HW121552   0.815   2.189   1.563 -3.0879  2.2670  1.6032
 7057SOL    HW221553   0.907   2.262   1.658  1.7533 -1.5894  0.0992
 7058SOL     OW21554   1.026   1.734   1.336  0.4185 -0.2943 -0.1060
 7058SOL    HW121555   0.943   1.708   1.296  1.3248 -1.8588 -1.0121
 7058SOL    HW221556   1.059   1.805   1.281 -0.3424  0.4013  0.3146
 7059SOL     OW21557   3.502   3.243   3.669  0.3888  0.5554  0.3679
 7059SOL    HW121558   3.475   3.154   3.648  0.8973  0.4428  0.1990
 7059SOL    HW221559   3.563   3.234   3.741  1.4666  0.6619 -0.5196
 7060SOL     OW21560   4.517   1.714   5.955 -0.3718 -0.8962  0.0831
 7060SOL    HW121561   4.506   1.676   6.042  1.2938  2.0046  1.6162
 7060SOL    HW221562   4.477   1.801   5.961  0.6805 -0.2474 -1.7432
 7061SOL     OW21563   2.524   0.332   1.986  0.4152 -0.0076  0.3454
 7061SOL    HW121564   2.458   0.344   2.055  1.5303  0.9451  1.2849
 7061SOL    HW221565   2.595   0.391   2.012  1.5476 -0.8838 -0.7534
 7062SOL     OW21566   1.928   5.244   5.354  0.4866 -0.3022 -0.3623
 7062SOL    HW121567   1.922   5.189   5.432  3.1285  1.3345  1.0462
 7062SOL    HW221568   1.912   5.333   5.386 -0.7163  0.1401 -2.1064
 7063SOL     OW21569   2.907   0.552   1.959  0.2077  0.2272  0.7434
 7063SOL    HW121570   2.891   0.545   2.053 -0.8659  0.6621  0.6104
 7063SOL    HW221571   2.971   0.623   1.950  1.2303 -0.6361  1.2237
 7064SOL     OW21572   6.223   1.287   0.877 -0.3521  0.7909  0.0176
 7064SOL    HW121573   6.238   1.368   0.828 -1.9531  1.8436  1.2333
 7064SOL    HW221574   6.272   1.298   0.958 -2.1483  1.3768  1.0373
 7065SOL     OW21575   3.141   3.160   3.043 -0.3347  0.4414 -0.0639
 7065SOL    HW121576   3.058   3.203   3.024  0.4472  1.8479 -0.3592
 7065SOL    HW221577   3.199   3.185   2.971 -0.1026 -1.8264 -0.7148
 7066SOL     OW21578   2.194   4.705   2.097 -0.1482 -0.5490  0.2963
 7066SOL    HW121579   2.200   4.610   2.103  1.1849 -0.4873  0.1473
 7066SOL    HW221580   2.201   4.736   2.187 -0.6359 -0.5820  0.3501
 7067SOL     OW21581   1.683   2.042   1.561 -0.3762 -0.5290 -0.2822
 7067SOL    HW121582   1.611   2.011   1.506 -0.6454 -0.0985 -0.1821
 7067SOL    HW221583   1.717   2.118   1.514  0.3541 -1.0411 -0.5889
 7068SOL     OW21584   5.730   0.433   5.767  0.3864 -0.0618  0.7094
 7068SOL    HW121585   5.740   0.378   5.690  1.5769  1.9523 -0.6207
 7068SOL    HW221586   5.778   0.387   5.836  1.7651 -0.4668 -0.4989
 7069SOL     OW21587   4.668   1.083   6.363  0.0744  0.8144  0.0072
 7069SOL    HW121588   4.594   1.062   6.307  0.5804  1.4578 -0.9110
 7069SOL    HW221589   4.648   1.170   6.399 -0.9582 -0.2156  2.0384
 7070SOL     OW21590   5.281   5.149   3.050  0.1948 -0.3606  0.1766
 7070SOL    HW121591   5.188   5.129   3.038  0.6182 -0.3450 -3.5346
 7070SOL    HW221592   5.327   5.072   3.017  1.5526  0.5217 -0.0396
 7071SOL     OW21593   5.118   4.273   3.342 -0.3334 -0.3188  0.1143
 7071SOL    HW121594   5.105   4.184   3.310  0.9596 -0.3763 -0.2740
 7071SOL    HW221595   5.158   4.320   3.269  0.6827  0.1017  0.9283
 7072SOL     OW21596   5.913   2.383   1.567  0.3175  0.0206 -0.5995
 7072SOL    HW121597   5.891   2.334   1.488  1.5368 -1.0974 -0.2856
 7072SOL    HW221598   5.889   2.324   1.639 -0.8477  1.0564 -0.1317
 7073SOL     OW21599   0.955   1.664   0.295 -0.7105 -0.3859 -0.0068
 7073SOL    HW121600   1.026   1.600   0.296 -1.3712 -1.1384  0.0505
 7073SOL    HW221601   0.988   1.735   0.241  1.0384  0.4289  2.0548
 7074SOL     OW21602   0.657   0.161   1.152 -0.4492 -0.5067 -0.6102
 7074SOL    HW121603   0.703   0.164   1.068  0.5078  1.4509 -0.0520
 7074SOL    HW221604   0.727   0.164   1.217 -1.2838  0.3608  0.2618
 7075SOL     OW21605   4.051   0.782   1.968  0.0805  0.5027  0.8948
 7075SOL    HW121606   4.111   0.729   2.021 -0.3698 -0.8221  0.1212
 7075SOL    HW221607   4.107   0.832   1.910  0.5029  0.4542  1.2614
 7076SOL     OW21608   3.779   0.219   3.005 -0.0738  0.0756 -0.1609
 7076SOL    HW121609   3.731   0.301   2.996  2.0756  1.3619 -0.3185
 7076SOL    HW221610   3.720   0.161   3.054 -0.8733  2.3349  1.5923
 7077SOL     OW21611   0.236   4.760   1.529 -0.0423 -0.3736 -0.6873
 7077SOL    HW121612   0.197   4.701   1.464 -0.8180 -1.9878  1.2037
 7077SOL    HW221613   0.202   4.729   1.613  1.4791  1.2601  0.5618
 7078SOL     OW21614   0.111   4.732   1.102  0.6358  0.5462 -0.0755
 7078SOL    HW121615   0.054   4.792   1.151  2.2164  2.6150 -0.6915
 7078SOL    HW221616   0.174   4.702   1.167  0.4272  0.2989  0.0139
 7079SOL     OW21617   4.741   4.408   5.136  0.0006  0.0589  0.1016
 7079SOL    HW121618   4.750   4.459   5.056  1.4652 -0.8550 -0.3300
 7079SOL    HW221619   4.779   4.463   5.205  1.1985 -0.2671 -0.2929
 7080SOL     OW21620   4.739   0.112   2.302  0.3598  0.5068  0.1378
 7080SOL    HW121621   4.823   0.066   2.304 -0.1396 -0.5716 -2.2866
 7080SOL    HW221622   4.736   0.160   2.384  1.3585 -2.9802  2.3012
 7081SOL     OW21623   2.188   5.228   4.787  0.3948 -0.0435 -0.3326
 7081SOL    HW121624   2.096   5.209   4.768  0.2570  0.0236  0.2545
 7081SOL    HW221625   2.221   5.148   4.829  0.5539 -0.0003 -0.3751
 7082SOL     OW21626   0.674   4.353   0.873 -0.1850 -0.2997 -0.0917
 7082SOL    HW121627   0.713   4.281   0.824  0.5610  0.4648 -0.6437
 7082SOL    HW221628   0.747   4.391   0.922 -0.4189  0.5660 -0.4126
 7083SOL     OW21629   4.003   0.056   0.201 -0.5136 -0.0912 -0.1206
 7083SOL    HW121630   4.017  -0.002   0.277  1.2113 -2.3778 -2.0993
 7083SOL    HW221631   4.070   0.123   0.209 -0.8550  0.1398  0.8164
 7084SOL     OW21632   1.438   4.330   1.264  0.0735 -0.0309 -0.1931
 7084SOL    HW121633   1.456   4.385   1.340  1.4935  0.6424 -0.9904
 7084SOL    HW221634   1.474   4.245   1.287  1.4033  0.4454 -0.5071
 7085SOL     OW21635   3.197   1.334   0.894  0.6242  0.0791 -0.2562
 7085SOL    HW121636   3.195   1.369   0.805  0.3738 -1.0257 -0.6952
 7085SOL    HW221637   3.123   1.375   0.939  0.3290  0.1085 -0.7688
 7086SOL     OW21638   5.862   1.068   4.654 -0.0217  0.0820  0.2579
 7086SOL    HW121639   5.897   1.081   4.742  1.9426  0.9183 -0.6116
 7086SOL    HW221640   5.938   1.077   4.596 -1.3805  0.1593 -1.5696
 7087SOL     OW21641   0.296   4.214   5.700  0.2739  0.4515  0.1060
 7087SOL    HW121642   0.259   4.273   5.766 -0.6926 -0.3821  0.3211
 7087SOL    HW221643   0.391   4.222   5.711  0.2009  2.9884 -0.7702
 7088SOL     OW21644   6.085   5.627   4.271  0.3286 -0.4045  0.2820
 7088SOL    HW121645   6.064   5.682   4.346 -1.4436 -0.2956 -0.2612
 7088SOL    HW221646   6.008   5.634   4.214  1.9774  0.1794 -1.9421
 7089SOL     OW21647   1.335   3.241   5.143  0.3071  0.1789 -0.0052
 7089SOL    HW121648   1.318   3.263   5.051  0.0828  0.7934  0.1776
 7089SOL    HW221649   1.299   3.153   5.154  0.5182  0.0239 -0.5594
 7090SOL     OW21650   5.291   2.240   4.779 -0.1272 -0.0704  0.2660
 7090SOL    HW121651   5.309   2.258   4.872  2.1750 -0.8420  0.0032
 7090SOL    HW221652   5.320   2.318   4.733 -1.2289  0.2938  0.1822
 7091SOL     OW21653   4.418   4.128   0.272  0.6949 -0.3623 -0.2313
 7091SOL    HW121654   4.427   4.098   0.181  1.9359  3.0069 -1.3012
 7091SOL    HW221655   4.506   4.120   0.309  1.0085  1.5512 -0.4735
 7092SOL     OW21656   1.941   2.567   0.871 -0.5394  0.1810 -0.2566
 7092SOL    HW121657   2.003   2.614   0.816 -0.0108 -1.2432 -0.8911
 7092SOL    HW221658   1.920   2.629   0.941  0.5165  1.1798 -0.8014
 7093SOL     OW21659   1.848   2.389   2.079 -0.1338  0.8719  0.8458
 7093SOL    HW121660   1.767   2.413   2.034 -0.5269  0.6556  1.4441
 7093SOL    HW221661   1.912   2.381   2.008 -0.4271  1.8881  0.4636
 7094SOL     OW21662   2.776   3.191   5.077  0.2517 -0.7220  0.0612
 7094SOL    HW121663   2.793   3.103   5.043 -1.2730  0.0953 -2.9260
 7094SOL    HW221664   2.829   3.249   5.023 -2.7319  0.6719 -1.4830
 7095SOL     OW21665   6.263   5.776   5.110 -0.0974 -0.2181 -0.1872
 7095SOL    HW121666   6.298   5.841   5.049  1.1306  0.2633  1.0044
 7095SOL    HW221667   6.340   5.732   5.146 -0.8761 -1.6234 -0.1943
 7096SOL     OW21668   6.212   1.755   0.552 -0.5218 -0.2132  0.4260
 7096SOL    HW121669   6.297   1.790   0.524 -0.7509 -0.2768 -0.3427
 7096SOL    HW221670   6.172   1.827   0.600 -0.4926  0.1799 -0.1405
 7097SOL     OW21671   1.688   4.078   2.032  0.4145  0.5513 -0.6464
 7097SOL    HW121672   1.667   4.104   1.943  1.8910  0.6199 -0.9907
 7097SOL    HW221673   1.769   4.124   2.052  0.2503  0.3076  0.6268
 7098SOL     OW21674   1.370   3.170   3.497 -0.1099  0.2008 -0.3782
 7098SOL    HW121675   1.291   3.116   3.499  0.5946 -0.7988  0.8809
 7098SOL    HW221676   1.442   3.108   3.501  0.7229  1.2207  1.3051
 7099SOL     OW21677   0.794   1.252   0.179  0.0791 -0.7406  0.4464
 7099SOL    HW121678   0.781   1.165   0.141  1.0744 -1.2965  1.3175
 7099SOL    HW221679   0.885   1.250   0.212  0.5978  1.1175 -0.7919
 7100SOL     OW21680   1.471   5.587   0.713 -0.1989  0.0173  0.5719
 7100SOL    HW121681   1.516   5.658   0.759 -0.9217 -0.3597  1.8873
 7100SOL    HW221682   1.527   5.511   0.725 -0.0553  0.0723  0.2527
 7101SOL     OW21683   2.487   0.659   5.411  0.0084  0.1544 -0.6179
 7101SOL    HW121684   2.403   0.621   5.385  0.7270 -1.0105 -1.2472
 7101SOL    HW221685   2.472   0.691   5.500 -0.8693 -0.7572 -0.4294
 7102SOL     OW21686   3.247   1.395   5.601  0.2557  0.3312  0.2138
 7102SOL    HW121687   3.332   1.417   5.562  0.5181  1.2600  1.2934
 7102SOL    HW221688   3.248   1.437   5.687 -1.3990  0.5317  0.1497
 7103SOL     OW21689   4.938   6.242   4.062  0.0900 -0.4533 -0.7216
 7103SOL    HW121690   4.979   6.227   3.976 -0.0729 -0.2082 -0.8423
 7103SOL    HW221691   4.931   6.337   4.068  0.0047 -0.4772 -0.4809
 7104SOL     OW21692   2.167   5.444   0.322  0.4414  0.3018 -0.1328
 7104SOL    HW121693   2.219   5.367   0.302 -1.2820 -0.9838  0.1908
 7104SOL    HW221694   2.211   5.484   0.397  0.1593 -1.5704  1.0501
 7105SOL     OW21695   0.702   6.052   3.705 -0.2409  0.0710  0.0005
 7105SOL    HW121696   0.711   6.042   3.799 -1.0885  0.3222  0.1102
 7105SOL    HW221697   0.773   5.999   3.668  0.0404 -0.0871  0.7723
 7106SOL     OW21698   0.585   4.494   0.625  0.0313 -0.7034 -0.2380
 7106SOL    HW121699   0.625   4.485   0.712  1.0591 -2.4379 -0.8771
 7106SOL    HW221700   0.564   4.405   0.599 -2.2872 -0.0023 -0.8719
 7107SOL     OW21701   3.768   4.524   4.296  0.2741 -0.2991  0.5245
 7107SOL    HW121702   3.842   4.540   4.355  2.0064 -1.0804 -1.4110
 7107SOL    HW221703   3.777   4.591   4.228  0.7091 -2.0074 -1.1267
 7108SOL     OW21704   6.266   3.167   4.318  0.0241  0.0655 -0.2349
 7108SOL    HW121705   6.330   3.125   4.377 -0.4451 -2.0682 -1.1877
 7108SOL    HW221706   6.192   3.106   4.315 -0.1061  0.2759 -2.7463
 7109SOL     OW21707   2.948   1.382   5.502 -1.2448 -0.0099  0.6480
 7109SOL    HW121708   2.984   1.294   5.492  0.5461  0.7861 -0.0231
 7109SOL    HW221709   2.932   1.391   5.595 -0.2920 -0.6147  0.8745
 7110SOL     OW21710   3.826   2.206   6.092  0.0885 -0.3273  0.1019
 7110SOL    HW121711   3.761   2.141   6.068 -0.3578  0.2145 -0.1591
 7110SOL    HW221712   3.806   2.282   6.038  0.9201 -0.1486  0.0330
 7111SOL     OW21713   6.248   2.435   0.744  0.2198  0.2499 -0.7998
 7111SOL    HW121714   6.319   2.395   0.794 -0.8269 -2.1488 -1.1894
 7111SOL    HW221715   6.169   2.392   0.776 -0.8644  1.5101 -1.7431
 7112SOL     OW21716   1.951   2.760   3.415 -0.0881  0.0375  0.3877
 7112SOL    HW121717   1.955   2.846   3.459 -1.7246 -0.1763  0.9815
 7112SOL    HW221718   1.987   2.776   3.328  0.4350  1.1326  0.7899
 7113SOL     OW21719   5.316   5.966   3.457  0.5744 -0.3561 -0.0773
 7113SOL    HW121720   5.323   6.053   3.418 -2.2310 -0.7080 -1.4834
 7113SOL    HW221721   5.375   5.912   3.404  1.1714  0.3519 -0.1564
 7114SOL     OW21722   4.805   0.832   1.238  0.3513 -0.1930  0.1396
 7114SOL    HW121723   4.845   0.822   1.152 -0.0942 -0.2929 -0.0615
 7114SOL    HW221724   4.873   0.872   1.292  0.9049 -0.9001 -0.0369
 7115SOL     OW21725   0.311   2.829   4.466 -0.2872 -0.3205  0.0225
 7115SOL    HW121726   0.405   2.811   4.471 -0.1130  0.8840  1.6708
 7115SOL    HW221727   0.306   2.921   4.440 -1.0211 -0.5555 -0.6721
 7116SOL     OW21728   4.162   5.405   1.379  0.0066  0.7543 -0.0067
 7116SOL    HW121729   4.181   5.392   1.286 -1.5924 -0.8679 -0.1335
 7116SOL    HW221730   4.078   5.450   1.380 -0.9999 -1.0940  0.6571
 7117SOL     OW21731   2.043   0.983   1.060 -0.0929  0.2839 -0.3062
 7117SOL    HW121732   2.079   1.005   0.974 -1.9165  0.6766 -0.9921
 7117SOL    HW221733   1.968   0.926   1.041 -0.6234  0.5228  1.0225
 7118SOL     OW21734   4.464   2.960   4.101 -0.1069 -0.4245 -0.0984
 7118SOL    HW121735   4.405   2.972   4.027  0.1970 -0.6038 -0.3739
 7118SOL    HW221736   4.499   3.047   4.119 -0.0924 -0.4011 -0.2434
 7119SOL     OW21737   0.168   5.565   0.966  0.3201 -0.5103  0.3913
 7119SOL    HW121738   0.104   5.553   1.036  1.1973 -1.3280  1.0676
 7119SOL    HW221739   0.246   5.599   1.011  0.0743  1.3751 -0.5520
 7120SOL     OW21740   0.669   0.181   0.562 -0.5626  0.3603  0.7708
 7120SOL    HW121741   0.614   0.129   0.620 -2.6469  0.6112 -0.9207
 7120SOL    HW221742   0.686   0.123   0.487 -0.7646  1.2378  0.0435
 7121SOL     OW21743   1.355   2.413   2.253 -0.3646  0.4693  0.4084
 7121SOL    HW121744   1.398   2.365   2.324 -0.1756  1.7042  1.1423
 7121SOL    HW221745   1.350   2.503   2.285 -0.0532  1.0931 -1.2600
 7122SOL     OW21746   0.515   4.514   6.058 -0.0995  0.8229  0.5141
 7122SOL    HW121747   0.432   4.483   6.095 -1.1089  1.0049 -1.4875
 7122SOL    HW221748   0.511   4.609   6.067 -0.3304  0.8645  0.0384
 7123SOL     OW21749   5.623   1.142   5.057 -0.0904  0.1449 -0.0113
 7123SOL    HW121750   5.552   1.206   5.050  0.6855  0.8988 -1.0619
 7123SOL    HW221751   5.624   1.096   4.973 -0.1456 -0.7212  0.4563
 7124SOL     OW21752   5.234   2.266   1.829  0.3121 -0.6255  0.2050
 7124SOL    HW121753   5.177   2.203   1.874 -1.3366  1.7465  1.5528
 7124SOL    HW221754   5.321   2.248   1.864 -0.6570 -0.0490  3.0383
 7125SOL     OW21755   3.421   0.749   2.863 -0.2082 -0.7342  0.1617
 7125SOL    HW121756   3.408   0.687   2.935  1.8143  0.8820  1.9910
 7125SOL    HW221757   3.504   0.723   2.824 -1.5717 -1.9495 -1.9818
 7126SOL     OW21758   0.407   0.844   1.154 -0.2690 -0.2253  0.6950
 7126SOL    HW121759   0.410   0.776   1.221 -0.2472 -0.4020  0.5153
 7126SOL    HW221760   0.499   0.863   1.134 -0.2740 -0.6921  0.1938
 7127SOL     OW21761   1.515   2.422   0.962 -0.0435  0.6555 -0.8876
 7127SOL    HW121762   1.560   2.459   0.886  0.7402  2.4787  0.4636
 7127SOL    HW221763   1.541   2.330   0.962  1.0181  0.9424 -2.0473
 7128SOL     OW21764   3.827   0.425   0.042  0.3263 -0.0386  0.7779
 7128SOL    HW121765   3.854   0.361  -0.023  0.7780 -1.2022  2.0854
 7128SOL    HW221766   3.904   0.481   0.054  0.0369  0.5757 -0.1235
 7129SOL     OW21767   4.365   3.132   5.604  0.6294  0.1952 -0.4098
 7129SOL    HW121768   4.376   3.171   5.691  1.6859 -0.5623 -0.1917
 7129SOL    HW221769   4.327   3.045   5.622 -1.4463  0.9630 -0.8719
 7130SOL     OW21770   0.913   3.901   4.570  0.5527  0.0206  0.0124
 7130SOL    HW121771   0.831   3.866   4.534  1.0813 -0.1073 -1.0874
 7130SOL    HW221772   0.888   3.986   4.606  0.1449  0.4914 -1.3299
 7131SOL     OW21773   5.712   4.886   1.415  0.0703  0.2145 -0.3319
 7131SOL    HW121774   5.665   4.962   1.448 -0.5708 -0.4735  0.3684
 7131SOL    HW221775   5.805   4.908   1.426 -0.0829  1.4527 -1.4478
 7132SOL     OW21776   2.797   0.514   3.760 -0.1642 -0.1641  0.1824
 7132SOL    HW121777   2.718   0.559   3.731 -0.1891  0.2507  0.8751
 7132SOL    HW221778   2.775   0.480   3.847  1.7458  3.5571  2.2428
 7133SOL     OW21779   2.180   6.330   3.109  0.2756  0.0857 -0.0689
 7133SOL    HW121780   2.110   6.375   3.061 -0.5113  1.4644  2.2718
 7133SOL    HW221781   2.146   6.241   3.122 -0.5784  0.4379  0.1398
 7134SOL     OW21782   2.445   1.711   5.820 -0.3995 -0.4525 -0.2626
 7134SOL    HW121783   2.394   1.646   5.772 -0.8051 -1.9153  2.0716
 7134SOL    HW221784   2.424   1.695   5.912  0.9442  1.7661  0.4629
 7135SOL     OW21785   2.867   1.248   3.648  0.4269 -0.0252 -0.3047
 7135SOL    HW121786   2.884   1.238   3.554 -0.8297 -0.5924 -0.4799
 7135SOL    HW221787   2.943   1.207   3.690  0.1932 -1.2918 -1.0828
 7136SOL     OW21788   1.165   6.086   2.150  0.4317  0.0023 -0.3637
 7136SOL    HW121789   1.095   6.152   2.153 -1.6310 -2.1699  0.8447
 7136SOL    HW221790   1.172   6.063   2.058 -0.8420 -0.1389 -0.4350
 7137SOL     OW21791   2.477   4.832   2.323  0.0597  0.0101  0.4230
 7137SOL    HW121792   2.499   4.770   2.253  1.2553 -1.7171  2.2701
 7137SOL    HW221793   2.383   4.820   2.338  0.2892 -1.4457  0.8062
 7138SOL     OW21794   4.974   0.912   1.451  0.7834  0.7108  0.0697
 7138SOL    HW121795   5.041   0.845   1.465 -0.5107 -0.5345  0.3930
 7138SOL    HW221796   4.966   0.956   1.536  0.5123  0.2286  0.2926
 7139SOL     OW21797   1.274   0.833   2.800 -0.5163 -0.1330  0.5458
 7139SOL    HW121798   1.203   0.897   2.800 -1.4772 -1.1416 -1.4061
 7139SOL    HW221799   1.250   0.770   2.867 -0.1758  0.8776  1.6335
 7140SOL     OW21800   0.976   5.558   1.772 -0.3818  0.2317 -0.0408
 7140SOL    HW121801   1.039   5.618   1.734 -0.6334  0.0786 -0.7003
 7140SOL    HW221802   0.948   5.502   1.700 -0.3560 -0.4989  0.5076
 7141SOL     OW21803   3.711   1.838   2.288  0.2560  0.5081 -0.1476
 7141SOL    HW121804   3.701   1.838   2.383  0.5538  0.9135 -0.1127
 7141SOL    HW221805   3.783   1.776   2.271  0.5164  0.7886 -0.0714
 7142SOL     OW21806   2.255   5.283   3.280 -0.7221 -0.1569  0.0023
 7142SOL    HW121807   2.318   5.345   3.244 -1.8239  1.2564  0.4661
 7142SOL    HW221808   2.308   5.207   3.306  0.6082  0.4998 -0.7563
 7143SOL     OW21809   5.966   5.590   3.671  0.1539  0.6122 -0.3665
 7143SOL    HW121810   5.910   5.667   3.672 -0.0821  0.4307  0.3288
 7143SOL    HW221811   5.963   5.559   3.581 -3.3024 -1.1943  0.2914
 7144SOL     OW21812   0.308   2.176   0.975 -0.7282 -0.1053  0.6031
 7144SOL    HW121813   0.238   2.196   1.036 -0.1245 -0.0927  1.3021
 7144SOL    HW221814   0.389   2.193   1.024 -0.1814 -3.3518  0.9607
 7145SOL     OW21815   0.110   2.433   2.972  0.5740  0.2274 -0.0828
 7145SOL    HW121816   0.205   2.432   2.983  0.4016 -0.9723  1.6248
 7145SOL    HW221817   0.096   2.431   2.877  2.2384  2.2886 -0.3831
 7146SOL     OW21818   5.333   1.606   1.486 -0.7429 -0.3015  0.0387
 7146SOL    HW121819   5.338   1.511   1.499  0.2180 -0.4130 -1.1022
 7146SOL    HW221820   5.344   1.643   1.574 -0.2563 -1.2298  0.3720
 7147SOL     OW21821   6.218   3.114   2.134 -0.1296 -0.0721 -0.2351
 7147SOL    HW121822   6.194   3.201   2.165 -1.3802 -0.0647 -1.1570
 7147SOL    HW221823   6.197   3.055   2.206 -2.1984  0.0404 -0.7116
 7148SOL     OW21824   4.898   3.181   0.775  0.6139 -0.1630  0.6537
 7148SOL    HW121825   4.875   3.130   0.853 -1.3287 -0.6463 -0.2230
 7148SOL    HW221826   4.898   3.117   0.704  1.0885  0.5241  0.0307
 7149SOL     OW21827   0.742   4.708   0.488  0.0077 -0.2078 -0.0517
 7149SOL    HW121828   0.670   4.711   0.425  0.3404 -0.6491 -0.4586
 7149SOL    HW221829   0.721   4.634   0.545 -0.5492  0.5002  0.6753
 7150SOL     OW21830   3.669   0.321   4.219  0.0168  0.4111 -0.2429
 7150SOL    HW121831   3.625   0.269   4.286 -0.9800  0.1478 -1.1015
 7150SOL    HW221832   3.709   0.256   4.161  0.7227  0.6362 -0.0126
 7151SOL     OW21833   5.400   4.515   4.592  0.0676  0.4545 -0.7247
 7151SOL    HW121834   5.401   4.462   4.512 -0.6272 -0.8832  0.1370
 7151SOL    HW221835   5.469   4.476   4.646 -2.3396 -1.4258  1.0734
 7152SOL     OW21836   0.053   1.631   4.303 -0.2030 -0.1072  0.2299
 7152SOL    HW121837   0.033   1.721   4.277 -0.7906 -0.0193  0.9656
 7152SOL    HW221838   0.043   1.631   4.398  1.7678 -0.4567  0.4421
 7153SOL     OW21839   4.266   0.217   1.613 -0.0995 -0.1465 -0.2467
 7153SOL    HW121840   4.242   0.126   1.630 -0.1009 -0.4556 -1.8261
 7153SOL    HW221841   4.354   0.213   1.576  0.9049  0.7008  1.9276
 7154SOL     OW21842   5.143   4.228   4.609  0.0657  0.5692  0.0686
 7154SOL    HW121843   5.171   4.184   4.689 -1.3939 -0.9394 -0.2366
 7154SOL    HW221844   5.170   4.319   4.622  1.9556 -0.1200  1.2496
 7155SOL     OW21845   4.508   4.061   2.140  0.0496  0.4411 -0.1627
 7155SOL    HW121846   4.430   4.115   2.131  0.7478  1.6415  0.8297
 7155SOL    HW221847   4.507   4.004   2.063 -2.1558 -0.0466  0.1876
 7156SOL     OW21848   4.169   5.357   5.685  0.1512 -0.0140  0.3585
 7156SOL    HW121849   4.160   5.330   5.593  0.8544  0.1707  0.2331
 7156SOL    HW221850   4.083   5.342   5.722 -0.8504  2.2071 -0.9529
 7157SOL     OW21851   3.786   2.773   4.718 -0.6294 -0.1588 -0.4063
 7157SOL    HW121852   3.872   2.744   4.748 -0.9154 -0.2224  0.3629
 7157SOL    HW221853   3.762   2.843   4.779 -1.0429 -0.0143 -0.7328
 7158SOL     OW21854   2.683   3.857   0.083  0.1686  0.3388  0.0166
 7158SOL    HW121855   2.768   3.900   0.080  0.3804 -0.0310  0.6142
 7158SOL    HW221856   2.703   3.764   0.072 -0.3239  0.4197 -1.7306
 7159SOL     OW21857   0.489   2.640   2.412 -0.1068  0.1796 -0.0239
 7159SOL    HW121858   0.484   2.552   2.450  0.2396 -0.1939 -0.8191
 7159SOL    HW221859   0.515   2.696   2.485  0.2723 -0.4768  0.3556
 7160SOL     OW21860   1.796   2.164   0.665 -0.0617 -0.2483  0.6284
 7160SOL    HW121861   1.715   2.129   0.627 -1.1190  1.1994  1.4696
 7160SOL    HW221862   1.817   2.239   0.610 -0.0940  0.2337  1.2644
 7161SOL     OW21863   3.707   3.908   0.244 -0.3462 -0.4962 -0.4902
 7161SOL    HW121864   3.797   3.939   0.241 -1.7653  3.8753 -0.6267
 7161SOL    HW221865   3.705   3.849   0.320  2.1799  0.8763  0.7039
 7162SOL     OW21866   3.596   3.457   6.151 -0.0184 -0.3487 -0.0691
 7162SOL    HW121867   3.596   3.367   6.183 -0.2825  0.0884  1.2232
 7162SOL    HW221868   3.653   3.456   6.074  1.4363 -1.2598  0.9928
 7163SOL     OW21869   1.224   4.773   5.522  0.3756  0.5562 -0.2517
 7163SOL    HW121870   1.275   4.842   5.480 -0.2405  1.5196  0.5539
 7163SOL    HW221871   1.222   4.798   5.615  2.5070 -2.0273  0.5542
 7164SOL     OW21872   1.018   4.807   2.580 -0.0348 -0.3648 -0.2676
 7164SOL    HW121873   1.089   4.864   2.549 -1.5896  1.3386 -0.7686
 7164SOL    HW221874   1.018   4.734   2.518  0.4551  0.2537 -1.0144
 7165SOL     OW21875   2.752   0.557   2.989  0.8520 -0.2229 -0.0807
 7165SOL    HW121876   2.773   0.472   2.951 -1.5024 -0.5935 -0.5962
 7165SOL    HW221877   2.728   0.538   3.080 -1.5201 -0.3633 -0.7209
 7166SOL     OW21878   0.528   1.722   4.724  0.3075 -0.4616  0.0521
 7166SOL    HW121879   0.572   1.642   4.695  0.4507 -1.1720  2.1858
 7166SOL    HW221880   0.478   1.696   4.801 -1.6021  0.9759 -0.6741
 7167SOL     OW21881   3.836   3.228   3.490 -0.2570 -0.5922  0.1404
 7167SOL    HW121882   3.888   3.287   3.436  0.0790 -0.7449  0.2942
 7167SOL    HW221883   3.794   3.285   3.554 -2.2845 -0.1380 -1.5275
 7168SOL     OW21884   3.715   3.738   0.456  0.0488 -0.4825  0.2285
 7168SOL    HW121885   3.791   3.718   0.510  1.1804  0.2243 -1.0697
 7168SOL    HW221886   3.640   3.721   0.513  1.1894 -0.4343  1.7803
 7169SOL     OW21887   5.578   5.095   4.243  0.0198 -0.2569  0.3558
 7169SOL    HW121888   5.567   5.182   4.282 -2.7362 -1.4522  2.3649
 7169SOL    HW221889   5.672   5.076   4.254  0.3693  1.8263  1.2099
 7170SOL     OW21890   3.935   6.286   1.685 -0.8748 -0.2087  0.4864
 7170SOL    HW121891   3.929   6.370   1.730 -2.0987  0.5175 -0.9682
 7170SOL    HW221892   3.844   6.265   1.661 -0.4967 -1.6104  0.2359
 7171SOL     OW21893   2.063   5.894   0.257 -0.0522 -0.3059 -0.1787
 7171SOL    HW121894   2.039   5.936   0.340  0.6758 -1.1714  0.4765
 7171SOL    HW221895   1.989   5.912   0.199 -0.1130  1.1858  0.3404
 7172SOL     OW21896   0.695   2.205   5.336  0.2827 -0.0095 -0.2042
 7172SOL    HW121897   0.622   2.248   5.379  0.9029  1.4512 -0.6038
 7172SOL    HW221898   0.697   2.242   5.248  0.4059 -1.3447 -0.7760
 7173SOL     OW21899   2.345   3.652   3.855  0.0694 -0.6610 -0.5407
 7173SOL    HW121900   2.328   3.598   3.778  0.0084  0.7953 -1.5742
 7173SOL    HW221901   2.259   3.685   3.881  0.1969 -0.4642 -0.3653
 7174SOL     OW21902   0.845   2.675   3.909  0.4115 -0.1248 -0.1763
 7174SOL    HW121903   0.876   2.597   3.863  1.2707  0.7722 -1.1511
 7174SOL    HW221904   0.912   2.694   3.974 -0.3133 -0.8035  0.7866
 7175SOL     OW21905   3.369   6.211   3.069  0.0078 -0.9432 -0.0461
 7175SOL    HW121906   3.418   6.180   2.993  0.0314 -2.4946  0.5806
 7175SOL    HW221907   3.285   6.239   3.033  0.8107  0.4004 -0.9298
 7176SOL     OW21908   1.641   0.136   1.542 -0.0173 -0.2831  0.5743
 7176SOL    HW121909   1.679   0.220   1.568  3.0097 -1.5866  0.5699
 7176SOL    HW221910   1.552   0.157   1.515  0.4411  2.7977  1.3017
 7177SOL     OW21911   4.211   3.475   1.283  0.0257  0.5454 -0.7475
 7177SOL    HW121912   4.300   3.498   1.257  0.1890  1.0652  0.2445
 7177SOL    HW221913   4.159   3.484   1.203  0.4510  2.3996 -0.8436
 7178SOL     OW21914   2.380   2.867   2.568  0.8696 -0.4000 -0.1685
 7178SOL    HW121915   2.444   2.800   2.590  1.6618  1.0078  1.9781
 7178SOL    HW221916   2.414   2.947   2.608 -0.4473  1.1324 -1.9928
 7179SOL     OW21917   2.747   0.863   4.024  0.2945  0.2574  0.1899
 7179SOL    HW121918   2.748   0.946   3.977 -0.6274  0.3215  0.2665
 7179SOL    HW221919   2.777   0.885   4.112  2.8024 -0.0078 -0.5802
 7180SOL     OW21920   1.818   5.659   1.193  0.6035 -0.4150  0.6125
 7180SOL    HW121921   1.791   5.610   1.270  0.0398  0.1683  0.7921
 7180SOL    HW221922   1.903   5.622   1.169 -0.7060 -2.7948 -0.4360
 7181SOL     OW21923   5.861   6.192   2.233 -0.2987  0.0307  0.0949
 7181SOL    HW121924   5.863   6.151   2.146  0.1044 -2.7070  1.3419
 7181SOL    HW221925   5.778   6.240   2.236  0.1515  1.0348 -2.1496
 7182SOL     OW21926   3.730   2.865   2.864  0.0993  0.1593  0.2867
 7182SOL    HW121927   3.701   2.776   2.841  1.9794 -0.3432 -0.2292
 7182SOL    HW221928   3.714   2.916   2.784 -1.1509  0.3510  0.6412
 7183SOL     OW21929   3.783   1.018   3.514 -0.0545  0.1098 -0.2267
 7183SOL    HW121930   3.753   1.062   3.594  1.5261 -1.2845  1.1644
 7183SOL    HW221931   3.805   1.089   3.454 -1.2175  1.1753  0.5837
 7184SOL     OW21932   3.703   0.228   3.468 -0.4127  0.0576  0.3720
 7184SOL    HW121933   3.787   0.189   3.442 -0.1687  1.1944 -0.5894
 7184SOL    HW221934   3.668   0.168   3.535 -0.6893 -2.5190 -2.0072
 7185SOL     OW21935   5.552   5.129   1.104  0.4066 -0.1414 -0.0845
 7185SOL    HW121936   5.514   5.113   1.018 -0.9308  0.2743  0.4173
 7185SOL    HW221937   5.640   5.090   1.099  0.0986 -0.6962 -1.4101
 7186SOL     OW21938   3.214   1.118   5.130  0.3210  0.7320 -0.1511
 7186SOL    HW121939   3.145   1.053   5.118  0.2038  0.3637  2.4015
 7186SOL    HW221940   3.242   1.108   5.221  1.6089  2.9677 -0.2623
 7187SOL     OW21941   0.100   2.698   2.697  0.8219 -0.5092 -0.1032
 7187SOL    HW121942   0.068   2.684   2.608  0.7184  1.4351 -0.3956
 7187SOL    HW221943   0.083   2.616   2.743  0.7667 -1.4771 -1.8435
 7188SOL     OW21944   0.808   2.250   2.156 -0.2726 -0.2319  0.5091
 7188SOL    HW121945   0.807   2.336   2.114 -1.9271 -0.8796 -0.8162
 7188SOL    HW221946   0.892   2.212   2.129  0.5382  0.9951  1.2219
 7189SOL     OW21947   2.078   5.999   5.250  0.2195 -0.2134  0.0519
 7189SOL    HW121948   2.127   5.928   5.292  2.2064 -0.3841 -2.3924
 7189SOL    HW221949   2.145   6.065   5.230 -0.8445  0.3308 -1.8064
 7190SOL     OW21950   0.930   2.929   5.130  0.1721  0.9444  0.8104
 7190SOL    HW121951   0.933   2.854   5.189  0.2636  0.4735  0.2027
 7190SOL    HW221952   0.942   2.892   5.043 -0.0360  1.6350  0.4866
 7191SOL     OW21953   1.828   6.272   3.971 -0.3472 -0.3684 -0.1757
 7191SOL    HW121954   1.816   6.364   3.948 -1.4759 -0.0114  1.7763
 7191SOL    HW221955   1.911   6.248   3.929  0.3444  1.7372 -0.0899
 7192SOL     OW21956   3.100   2.969   4.043  0.2404 -0.6247  0.2874
 7192SOL    HW121957   3.124   2.904   3.977  0.2564  1.1392 -1.4630
 7192SOL    HW221958   3.164   2.955   4.114  3.4521  0.7750 -2.2032
 7193SOL     OW21959   6.108   5.682   5.920 -0.1793  0.0659  0.3558
 7193SOL    HW121960   6.056   5.639   5.987 -0.4409  1.1380  0.8433
 7193SOL    HW221961   6.199   5.672   5.949 -0.2659  0.1851  0.6637
 7194SOL     OW21962   5.070   4.319   2.515 -0.4059 -0.0823 -0.0725
 7194SOL    HW121963   5.066   4.227   2.542 -0.3147  0.2372  1.0711
 7194SOL    HW221964   4.999   4.361   2.564 -0.5203  0.4444 -0.6766
 7195SOL     OW21965   2.401   1.700   1.696 -0.0753  0.0973 -0.2446
 7195SOL    HW121966   2.473   1.686   1.758 -0.4638 -0.5556  0.0597
 7195SOL    HW221967   2.436   1.762   1.632 -0.1260  1.8470  1.4065
 7196SOL     OW21968   4.795   3.652   0.282  0.1317  0.2964 -0.0819
 7196SOL    HW121969   4.799   3.664   0.187  0.3972  1.9674  0.1170
 7196SOL    HW221970   4.851   3.576   0.299  0.0194 -0.0571 -1.2645
 7197SOL     OW21971   2.693   4.065   1.212  0.3928  0.2556 -0.0317
 7197SOL    HW121972   2.699   3.999   1.281  0.9830 -0.1961 -0.5142
 7197SOL    HW221973   2.764   4.127   1.230  0.7998 -0.0815 -0.4602
 7198SOL     OW21974   2.433   4.876   0.188 -0.1892  0.0575  0.0185
 7198SOL    HW121975   2.345   4.839   0.194 -0.2399  0.1373 -0.2210
 7198SOL    HW221976   2.432   4.926   0.107 -0.2193  0.8533  0.5106
 7199SOL     OW21977   4.458   4.502   2.503 -0.5118  0.0400  0.6255
 7199SOL    HW121978   4.363   4.499   2.491 -0.2535  1.5770 -2.3385
 7199SOL    HW221979   4.472   4.573   2.565 -1.2489  0.1635  0.6577
 7200SOL     OW21980   1.418   4.073   4.028 -0.3715 -0.1227  0.4875
 7200SOL    HW121981   1.503   4.031   4.037  0.3809  1.5774  1.5601
 7200SOL    HW221982   1.432   4.163   4.057 -2.2268  0.5496 -0.5773
 7201SOL     OW21983   6.217   2.384   2.683 -0.2088  0.0400 -0.1362
 7201SOL    HW121984   6.185   2.464   2.724 -0.4663 -0.4132  0.5546
 7201SOL    HW221985   6.311   2.383   2.701 -0.2371  0.0992  0.0133
 7202SOL     OW21986   3.143   5.092   0.487 -0.6574  0.1857 -0.1696
 7202SOL    HW121987   3.155   5.062   0.397  1.4457 -0.3248  0.2547
 7202SOL    HW221988   3.051   5.119   0.491 -1.1627 -1.1271 -2.0596
 7203SOL     OW21989   4.751   1.922   6.204  0.8321  0.0109 -0.0899
 7203SOL    HW121990   4.682   1.968   6.251 -0.0927  0.1800 -1.5950
 7203SOL    HW221991   4.831   1.946   6.250  0.1568  1.6428  0.2775
 7204SOL     OW21992   5.881   4.381   0.056 -0.2924  0.1834 -0.6887
 7204SOL    HW121993   5.914   4.292   0.065  1.7825  0.8091 -1.7471
 7204SOL    HW221994   5.788   4.375   0.080  0.1778 -1.9445  0.7452
 7205SOL     OW21995   0.386   5.813   3.897  0.6699 -0.9622 -0.2172
 7205SOL    HW121996   0.469   5.801   3.852  2.1373  0.4305  2.0259
 7205SOL    HW221997   0.362   5.726   3.927  0.4395 -1.6542 -2.2740
 7206SOL     OW21998   1.097   4.348   5.023  0.3450 -0.1003  0.1278
 7206SOL    HW121999   1.062   4.401   5.095  1.1125  1.7472 -0.8277
 7206SOL    HW222000   1.090   4.404   4.946  1.6418 -1.2121 -0.8215
 7207SOL     OW22001   0.960   5.125   3.704 -0.1319  0.0643 -0.6206
 7207SOL    HW122002   0.990   5.087   3.621 -0.6188 -0.4178 -0.5814
 7207SOL    HW222003   1.040   5.134   3.756  0.2015  0.5305 -1.2060
 7208SOL     OW22004   5.433   5.161   3.359  0.5967 -0.5217  0.8686
 7208SOL    HW122005   5.412   5.081   3.310  0.3246  0.6407 -0.9697
 7208SOL    HW222006   5.485   5.131   3.433 -0.3168 -2.5078  0.7401
 7209SOL     OW22007   4.684   2.505   5.999 -0.6511 -0.1551 -0.3952
 7209SOL    HW122008   4.666   2.499   6.093 -2.2057 -0.8224 -0.7074
 7209SOL    HW222009   4.731   2.587   5.989 -1.2405  0.3599  0.8673
 7210SOL     OW22010   5.032   0.352   0.111  0.2631  0.1698  0.3645
 7210SOL    HW122011   5.111   0.318   0.070  0.0797 -1.2133  1.1090
 7210SOL    HW222012   5.062   0.406   0.184  0.5164 -1.5851  1.5856
 7211SOL     OW22013   1.631   6.374   0.180 -0.3263  0.1079  0.6208
 7211SOL    HW122014   1.690   6.390   0.106 -0.6961  0.8312  0.4724
 7211SOL    HW222015   1.669   6.300   0.226 -0.5916 -0.9321 -0.8203
 7212SOL     OW22016   6.328   2.738   3.755 -0.3952 -0.4251 -0.0281
 7212SOL    HW122017   6.391   2.787   3.701 -0.1204 -0.0377  0.6377
 7212SOL    HW222018   6.357   2.647   3.749 -0.2454 -0.3571 -0.3680
 7213SOL     OW22019   2.239   4.128   4.111 -0.4167 -0.8287 -0.4167
 7213SOL    HW122020   2.320   4.076   4.103 -0.7647 -1.0806 -2.4604
 7213SOL    HW222021   2.262   4.198   4.172  1.4988 -0.6383 -1.3001
 7214SOL     OW22022   5.919   5.343   0.972 -0.7169  0.4117 -0.3472
 7214SOL    HW122023   5.999   5.394   0.965 -0.4676 -0.0161 -0.6393
 7214SOL    HW222024   5.936   5.264   0.920 -0.8606 -0.2649  0.6222
 7215SOL     OW22025   5.776   4.286   3.830 -0.0191  0.6290  0.7196
 7215SOL    HW122026   5.690   4.328   3.821 -0.6824 -0.5860  1.2826
 7215SOL    HW222027   5.768   4.204   3.782  0.1619 -0.4328  2.4738
 7216SOL     OW22028   1.052   1.796   3.420 -0.1532 -0.4058  0.4483
 7216SOL    HW122029   0.979   1.834   3.371  0.6720  0.0547 -0.4440
 7216SOL    HW222030   1.012   1.761   3.499 -1.6067 -1.6446 -0.8050
 7217SOL     OW22031   2.848   3.886   2.779 -0.6434  0.1086 -0.6161
 7217SOL    HW122032   2.942   3.904   2.784 -0.6806  0.1309  0.1616
 7217SOL    HW222033   2.842   3.796   2.745 -0.2512 -0.7264  1.3976
 7218SOL     OW22034   0.974   2.386   5.737 -0.1732 -0.4352 -0.2347
 7218SOL    HW122035   1.068   2.367   5.744 -0.0914 -0.2061 -0.6508
 7218SOL    HW222036   0.962   2.411   5.646 -0.3390  1.1422  0.2062
 7219SOL     OW22037   4.600   2.315   0.873  0.4979 -0.4897 -0.2121
 7219SOL    HW122038   4.580   2.314   0.780  1.1455  2.5777 -0.4181
 7219SOL    HW222039   4.591   2.407   0.899  2.0375 -1.0267  2.3735
 7220SOL     OW22040   0.618   2.614   3.306 -0.3239 -0.4079  1.3329
 7220SOL    HW122041   0.622   2.554   3.232  0.9952  1.4778 -0.1942
 7220SOL    HW222042   0.529   2.648   3.305 -1.0240 -2.1514  2.0931
 7221SOL     OW22043   4.373   3.598   3.249  0.3094  0.2607 -0.6310
 7221SOL    HW122044   4.402   3.590   3.158 -0.4125  0.6277 -0.8980
 7221SOL    HW222045   4.278   3.591   3.245  0.2372  0.7091  0.0454
 7222SOL     OW22046   5.605   1.695   1.093  0.2118  0.1199  0.4532
 7222SOL    HW122047   5.634   1.606   1.073  0.5209  0.1880  0.6121
 7222SOL    HW222048   5.510   1.692   1.080  0.1195 -0.4402  1.2472
 7223SOL     OW22049   0.964   4.294   0.125 -0.3048  0.3218  0.3006
 7223SOL    HW122050   0.929   4.332   0.044 -0.9161  1.9772  1.3116
 7223SOL    HW222051   1.056   4.320   0.126  0.5250 -2.3274 -1.3594
 7224SOL     OW22052   3.071   4.841   3.759  0.0426  0.1411  0.0186
 7224SOL    HW122053   3.040   4.859   3.670 -0.0586 -1.0253 -0.1896
 7224SOL    HW222054   3.026   4.760   3.784  0.6908  0.0210  0.8248
 7225SOL     OW22055   5.017   3.179   6.270 -0.0829  0.2286 -0.3419
 7225SOL    HW122056   4.954   3.249   6.253 -0.2676  0.7553  2.3009
 7225SOL    HW222057   5.018   3.170   6.365  2.3052 -1.2044 -0.4566
 7226SOL     OW22058   2.692   3.404   0.632  0.0493 -0.0340  0.4830
 7226SOL    HW122059   2.699   3.312   0.657 -0.8931 -0.2895 -0.1680
 7226SOL    HW222060   2.684   3.403   0.537 -2.8030  0.5059  0.6544
 7227SOL     OW22061   2.330   0.016   4.225  0.7311 -0.3585  0.1917
 7227SOL    HW122062   2.396   0.084   4.213  0.8077 -0.3672  0.5368
 7227SOL    HW222063   2.371  -0.064   4.191 -0.1116  0.1451 -2.0391
 7228SOL     OW22064   6.365   3.766   2.974 -0.2143  0.8672 -0.4363
 7228SOL    HW122065   6.295   3.798   3.030  0.0228 -1.1110  1.0417
 7228SOL    HW222066   6.322   3.707   2.912 -0.1770  1.4240 -0.9944
 7229SOL     OW22067   5.246   4.068   3.527 -0.8708  0.1145 -0.1730
 7229SOL    HW122068   5.196   4.142   3.492 -1.0811  0.3532  0.6082
 7229SOL    HW222069   5.196   4.040   3.604  0.0384  0.1691  0.4528
 7230SOL     OW22070   4.468   5.287   2.694 -0.5417  0.1200  0.4165
 7230SOL    HW122071   4.449   5.381   2.691  0.0403  0.2831  1.8739
 7230SOL    HW222072   4.415   5.254   2.766 -0.0506 -0.5132  0.4929
 7231SOL     OW22073   1.701   6.015   5.469  0.0578 -0.2143  0.2890
 7231SOL    HW122074   1.781   6.060   5.497  1.0531 -1.7657  0.0175
 7231SOL    HW222075   1.642   6.023   5.544  0.7531  0.2803  0.7923
 7232SOL     OW22076   1.138   5.761   4.817 -0.8717  0.2443  0.2452
 7232SOL    HW122077   1.232   5.764   4.801 -1.1972  0.0370 -1.7678
 7232SOL    HW222078   1.123   5.826   4.886  0.7042  0.4324  0.4093
 7233SOL     OW22079   4.046   4.302   0.767 -0.1342  0.3132  0.1157
 7233SOL    HW122080   4.107   4.330   0.835  0.4949 -0.4850 -0.1195
 7233SOL    HW222081   3.960   4.332   0.798  0.2647  0.6842  0.8588
 7234SOL     OW22082   5.369   5.684   3.801 -0.1576  0.1699 -0.7368
 7234SOL    HW122083   5.279   5.670   3.772 -0.8335 -0.3776  1.5705
 7234SOL    HW222084   5.413   5.600   3.784 -0.3631  0.0782 -0.8162
 7235SOL     OW22085   4.950   0.460   3.886 -0.4240 -0.0511 -0.2460
 7235SOL    HW122086   4.865   0.415   3.879 -1.3899  1.6509  0.2512
 7235SOL    HW222087   4.970   0.488   3.797 -0.5776 -0.1327 -0.3072
 7236SOL     OW22088   0.838   2.095   5.699  0.1719  0.2435  0.4035
 7236SOL    HW122089   0.873   2.182   5.718  1.1227 -0.0204 -0.0585
 7236SOL    HW222090   0.863   2.042   5.774  2.5001 -0.4044 -0.7500
 7237SOL     OW22091   5.940   4.067   5.425  0.2123 -0.2904  0.0165
 7237SOL    HW122092   5.870   4.126   5.396  0.5818  0.3625  0.4238
 7237SOL    HW222093   5.896   3.985   5.444 -0.0929 -0.6826 -2.1604
 7238SOL     OW22094   5.954   1.680   3.361 -0.6217  0.0635  0.0238
 7238SOL    HW122095   6.011   1.739   3.312  0.2299 -1.0425 -0.3330
 7238SOL    HW222096   5.992   1.594   3.348 -0.7530 -0.3226  2.1564
 7239SOL     OW22097   4.579   6.122   4.839  0.1156 -1.1124  0.4132
 7239SOL    HW122098   4.662   6.128   4.791  0.6725 -0.1973  1.4932
 7239SOL    HW222099   4.517   6.173   4.786  0.9291  0.6040  1.0826
 7240SOL     OW22100   4.788   1.909   2.358 -0.0095 -0.0062 -0.0994
 7240SOL    HW122101   4.857   1.848   2.386 -0.0254 -0.1194 -0.3056
 7240SOL    HW222102   4.715   1.892   2.418  0.0915  0.0154  0.0308
 7241SOL     OW22103   0.844   4.950   6.330 -0.0080  0.0659  0.3861
 7241SOL    HW122104   0.801   4.950   6.416 -0.1515  0.6942  0.3187
 7241SOL    HW222105   0.908   5.021   6.336  0.0204  0.0726 -0.0063
 7242SOL     OW22106   4.086   1.480   4.673  0.0588  0.4373  0.3800
 7242SOL    HW122107   4.119   1.403   4.627  1.9011  0.9248  0.8733
 7242SOL    HW222108   3.995   1.488   4.643  0.0660 -1.4961 -0.2219
 7243SOL     OW22109   3.543   4.129   1.983  0.3386  0.4991 -0.3574
 7243SOL    HW122110   3.607   4.161   1.919  1.2843  0.3106  0.4838
 7243SOL    HW222111   3.527   4.038   1.957 -0.1922  0.7777 -1.0342
 7244SOL     OW22112   4.359   2.347   3.152  0.2776  0.1928 -0.2766
 7244SOL    HW122113   4.298   2.273   3.156  0.3711  0.1506  0.3187
 7244SOL    HW222114   4.327   2.408   3.218 -0.2797  1.0594 -1.3195
 7245SOL     OW22115   5.824   0.845   5.619  0.2517  0.0240 -0.2391
 7245SOL    HW122116   5.825   0.783   5.691  2.4556 -0.4426 -0.6348
 7245SOL    HW222117   5.861   0.926   5.656 -1.6641  0.7997  0.0107
 7246SOL     OW22118   0.519   4.998   4.241  0.4071  0.0733  0.2247
 7246SOL    HW122119   0.576   4.969   4.169  0.3075  1.6162 -0.4988
 7246SOL    HW222120   0.548   4.947   4.317  1.2476 -0.7792 -0.6610
 7247SOL     OW22121   0.115   4.979   2.636 -0.0076  0.6067 -0.0356
 7247SOL    HW122122   0.166   4.949   2.560 -0.1769  0.9026 -0.2714
 7247SOL    HW222123   0.174   4.970   2.710  0.3480  0.8437 -0.2916
 7248SOL     OW22124   0.692   6.077   5.326 -0.0415  0.4052  0.7186
 7248SOL    HW122125   0.658   5.988   5.310  1.7534 -0.3190  0.8368
 7248SOL    HW222126   0.614   6.133   5.325 -1.2208 -1.1987  0.8338
 7249SOL     OW22127   1.305   3.394   3.629 -0.2624  0.4371 -0.2844
 7249SOL    HW122128   1.337   3.320   3.578 -1.4888 -1.1086  1.1249
 7249SOL    HW222129   1.333   3.375   3.719 -1.0431  1.3926  0.1703
 7250SOL     OW22130   0.114   1.899   5.303 -0.2874 -0.1537  0.6684
 7250SOL    HW122131   0.173   1.908   5.378  0.4963  0.8592 -0.0487
 7250SOL    HW222132   0.156   1.834   5.247 -2.7693 -3.8326  2.8396
 7251SOL     OW22133   6.068   3.440   2.451 -0.7535  0.1922  0.4128
 7251SOL    HW122134   6.083   3.477   2.364 -0.5445  0.9309  0.7599
 7251SOL    HW222135   5.977   3.463   2.472 -0.5125  0.8063  0.7752
 7252SOL     OW22136   6.250   5.861   4.678  0.1410 -0.3363 -0.3982
 7252SOL    HW122137   6.163   5.873   4.641 -0.5723 -0.6939  1.1137
 7252SOL    HW222138   6.238   5.875   4.772  1.5405 -1.2537 -0.0670
 7253SOL     OW22139   6.266   4.753   3.752 -0.1477  0.2123  0.0592
 7253SOL    HW122140   6.191   4.770   3.809 -1.0647 -0.8715 -0.7842
 7253SOL    HW222141   6.337   4.730   3.811 -1.2918 -1.6263  0.7705
 7254SOL     OW22142   3.735   2.413   4.354  0.5517 -0.2230 -0.2269
 7254SOL    HW122143   3.811   2.389   4.408 -1.4022 -0.2937  2.6473
 7254SOL    HW222144   3.756   2.500   4.320  1.3165  0.4248  1.8081
 7255SOL     OW22145   4.341   5.462   6.048  0.0151  0.1270 -0.3740
 7255SOL    HW122146   4.285   5.539   6.053  0.1313  0.2147 -0.4219
 7255SOL    HW222147   4.311   5.406   6.119 -0.8348 -0.2935 -1.0500
 7256SOL     OW22148   2.232   2.133   0.960  0.4753 -0.4726  0.5219
 7256SOL    HW122149   2.238   2.041   0.985  0.5068 -0.6983 -0.3275
 7256SOL    HW222150   2.157   2.137   0.901  0.1359  0.1447  0.9834
 7257SOL     OW22151   3.124   0.086   5.279 -0.1595 -0.2241  0.4194
 7257SOL    HW122152   3.076   0.167   5.297 -2.0518 -1.5999  1.7175
 7257SOL    HW222153   3.122   0.078   5.183 -0.3325  1.0226  0.3136
 7258SOL     OW22154   0.256   1.471   1.395  0.1022 -0.0525  0.3305
 7258SOL    HW122155   0.282   1.407   1.329 -2.1794  0.7039 -1.3676
 7258SOL    HW222156   0.267   1.556   1.352 -1.7651  0.4300  0.7549
 7259SOL     OW22157   3.226   4.351   2.944 -0.4796  0.3606  0.0207
 7259SOL    HW122158   3.221   4.419   2.877 -0.1760  0.5304  0.1710
 7259SOL    HW222159   3.139   4.311   2.943  0.1174 -0.9742 -1.8746
 7260SOL     OW22160   6.259   2.180   3.169 -0.3000 -0.0817 -0.1647
 7260SOL    HW122161   6.272   2.131   3.088 -0.1995  0.0518 -0.2289
 7260SOL    HW222162   6.203   2.253   3.144 -0.3635 -0.1047 -0.0899
 7261SOL     OW22163   6.024   0.441   6.126 -0.4567  0.0151  0.3693
 7261SOL    HW122164   6.040   0.535   6.114  0.6402 -0.1650  0.4128
 7261SOL    HW222165   6.026   0.428   6.221 -1.0689  0.0205  0.3874
 7262SOL     OW22166   3.540   2.436   1.343  0.2710  0.4447  0.1638
 7262SOL    HW122167   3.570   2.359   1.390  1.7267  0.9135  0.0272
 7262SOL    HW222168   3.488   2.485   1.406  1.0383  0.3696  0.8482
 7263SOL     OW22169   3.000   3.729   1.829 -0.8053  0.0490  0.2191
 7263SOL    HW122170   2.915   3.774   1.836 -1.0456 -0.1279 -1.3927
 7263SOL    HW222171   2.992   3.675   1.751 -0.2021 -2.1798  1.6540
 7264SOL     OW22172   4.613   5.908   4.151 -0.0908 -0.0595  0.3012
 7264SOL    HW122173   4.690   5.893   4.096 -0.1256 -0.8303  0.4581
 7264SOL    HW222174   4.539   5.885   4.094 -0.0350 -3.1046  1.3821
 7265SOL     OW22175   4.158   0.652   1.011 -0.1909 -0.0226  1.4533
 7265SOL    HW122176   4.206   0.628   1.090  1.1342 -0.0236  0.6761
 7265SOL    HW222177   4.225   0.690   0.953 -1.1644  0.1312  0.4040
 7266SOL     OW22178   1.108   3.823   2.637  0.4092 -0.5466  0.1743
 7266SOL    HW122179   1.036   3.840   2.576  0.0678 -1.2898  0.3628
 7266SOL    HW222180   1.184   3.810   2.582  0.7390  1.7537  0.0205
 7267SOL     OW22181   0.691   3.774   4.497  0.6272  0.1721 -0.1456
 7267SOL    HW122182   0.709   3.691   4.541  0.6326  0.8694  1.1717
 7267SOL    HW222183   0.601   3.766   4.466  0.2860  0.0755  0.8668
 7268SOL     OW22184   4.670   0.783   3.927 -0.3682 -0.0470 -0.3613
 7268SOL    HW122185   4.592   0.765   3.979  0.2041 -1.3853  0.0418
 7268SOL    HW222186   4.686   0.702   3.879  0.0865  0.6235 -1.3557
 7269SOL     OW22187   5.535   0.227   3.774 -0.8838 -0.1372  0.5060
 7269SOL    HW122188   5.441   0.210   3.779 -1.0202  0.4801 -0.0667
 7269SOL    HW222189   5.556   0.222   3.681  0.0263 -2.3144  0.7937
 7270SOL     OW22190   4.067   5.191   0.745 -0.0351  0.2038  0.2326
 7270SOL    HW122191   4.120   5.213   0.669  1.4085 -1.5161  0.7116
 7270SOL    HW222192   4.127   5.148   0.805 -1.1089  1.6484  2.4287
 7271SOL     OW22193   0.373   0.090   3.030 -0.6977  0.3532  0.1258
 7271SOL    HW122194   0.395   0.181   3.048 -0.5799  0.5088 -0.7624
 7271SOL    HW222195   0.420   0.070   2.949  0.8544 -1.0983  1.3419
 7272SOL     OW22196   1.990   2.406   5.685  0.3647 -0.0711 -0.6257
 7272SOL    HW122197   2.010   2.498   5.701 -1.3831  0.3729 -0.9040
 7272SOL    HW222198   2.032   2.386   5.602 -0.3767  0.8587 -1.2333
 7273SOL     OW22199   5.909   6.116   3.542 -0.3091 -0.2566  0.1126
 7273SOL    HW122200   5.955   6.158   3.469 -2.8079  1.4388 -0.5902
 7273SOL    HW222201   5.927   6.023   3.532 -0.5608 -0.0504 -2.6540
 7274SOL     OW22202   0.402   2.157   5.545  0.4131 -0.1223  0.2305
 7274SOL    HW122203   0.313   2.182   5.518  0.8364 -0.4648 -1.5976
 7274SOL    HW222204   0.451   2.240   5.544  0.2964 -0.0506  0.4673
 7275SOL     OW22205   2.530   1.475   2.656  0.3770  0.0797 -0.2940
 7275SOL    HW122206   2.457   1.473   2.719  2.2186  0.1179  1.8882
 7275SOL    HW222207   2.497   1.530   2.584 -2.0165 -0.5178  0.2939
 7276SOL     OW22208   4.946   1.828   5.303 -0.1629 -0.0512  0.6973
 7276SOL    HW122209   5.032   1.839   5.343 -1.1278 -1.4184  3.2748
 7276SOL    HW222210   4.952   1.746   5.255 -0.0295 -0.1598  0.9003
 7277SOL     OW22211   2.740   4.397   0.880  0.8231 -0.7254  0.2401
 7277SOL    HW122212   2.777   4.382   0.793  1.3835  0.0747  0.3291
 7277SOL    HW222213   2.646   4.406   0.866  0.6427 -2.8130  0.0119
 7278SOL     OW22214   2.313   5.743   5.537  0.2819 -0.1462 -0.2238
 7278SOL    HW122215   2.280   5.774   5.453 -1.1724  0.7058  0.6444
 7278SOL    HW222216   2.290   5.651   5.540  0.4063 -0.1947 -0.7957
 7279SOL     OW22217   2.531   2.474   5.914 -0.3701  0.1217 -0.1881
 7279SOL    HW122218   2.615   2.445   5.950 -0.8734 -2.4176 -0.9409
 7279SOL    HW222219   2.554   2.544   5.854  1.2898 -0.8786 -0.7718
 7280SOL     OW22220   4.481   0.021   3.281 -0.1938 -0.2428  0.5059
 7280SOL    HW122221   4.408   0.066   3.238 -0.7145 -0.9265  0.6505
 7280SOL    HW222222   4.463   0.030   3.375  1.3306  1.8745  0.6092
 7281SOL     OW22223   2.104   6.189   2.583 -0.4744 -0.0243  0.3010
 7281SOL    HW122224   2.141   6.205   2.670 -2.5079 -1.2866  1.4451
 7281SOL    HW222225   2.091   6.276   2.546 -2.2220  0.6744  2.4487
 7282SOL     OW22226   6.184   3.427   4.245  0.4105  0.2272 -0.3563
 7282SOL    HW122227   6.217   3.339   4.259 -0.8949  0.0912  2.1638
 7282SOL    HW222228   6.227   3.457   4.165  0.9862 -2.6219 -1.1517
 7283SOL     OW22229   1.788   5.749   1.928  0.5392  0.6124 -0.4273
 7283SOL    HW122230   1.724   5.802   1.977  0.4090  1.5089 -1.5354
 7283SOL    HW222231   1.872   5.790   1.948  0.7288 -0.2818  0.6600
 7284SOL     OW22232   0.673   6.154   0.476 -0.0443  0.2003 -0.8238
 7284SOL    HW122233   0.725   6.140   0.555 -2.1406 -3.6011 -0.0164
 7284SOL    HW222234   0.588   6.186   0.508  0.1985  1.8647 -1.7975
 7285SOL     OW22235   5.562   1.202   1.551  0.1806  0.2034 -0.1744
 7285SOL    HW122236   5.641   1.148   1.546  0.8845  0.9772  1.9030
 7285SOL    HW222237   5.497   1.146   1.594  0.5282  0.5386  0.8210
 7286SOL     OW22238   3.704   0.497   0.825 -0.2784 -0.2424  0.4777
 7286SOL    HW122239   3.748   0.426   0.872  4.0424  1.2124 -1.1311
 7286SOL    HW222240   3.674   0.456   0.743  1.3211 -0.4742 -0.0078
 7287SOL     OW22241   5.037   3.622   1.840  0.3225 -0.2520  0.0717
 7287SOL    HW122242   5.099   3.684   1.880 -1.4795 -0.0471  2.6512
 7287SOL    HW222243   4.952   3.666   1.846 -0.1905 -0.7149 -3.0371
 7288SOL     OW22244   5.453   2.215   3.139 -0.0207  0.3994 -0.3614
 7288SOL    HW122245   5.376   2.236   3.192 -0.1306  0.2841 -0.4754
 7288SOL    HW222246   5.425   2.229   3.049  0.2458  0.8488 -0.3744
 7289SOL     OW22247   1.257   4.786   1.086  0.2928  0.1185 -0.4059
 7289SOL    HW122248   1.199   4.752   1.018  0.1967  2.0867 -1.3589
 7289SOL    HW222249   1.289   4.869   1.051 -0.5401  1.6814  2.3426
 7290SOL     OW22250   4.647   0.312   1.902 -0.0728 -0.0089  0.3721
 7290SOL    HW122251   4.695   0.230   1.909 -2.8262 -1.7995 -0.7290
 7290SOL    HW222252   4.709   0.373   1.862  1.6242 -1.8658  0.0892
 7291SOL     OW22253   0.676   2.648   1.309 -0.1928  0.2294 -0.5223
 7291SOL    HW122254   0.759   2.633   1.354  1.2460  0.2451 -3.0534
 7291SOL    HW222255   0.632   2.563   1.311  0.2338  0.0204  0.1557
 7292SOL     OW22256   1.953   0.573   4.378 -0.3148 -0.0265 -0.2663
 7292SOL    HW122257   2.022   0.591   4.441 -0.6335 -0.0447  0.0900
 7292SOL    HW222258   1.914   0.491   4.408 -1.2288  0.5607  0.1865
 7293SOL     OW22259   2.884   0.462   2.583 -0.0235  0.2649 -0.6474
 7293SOL    HW122260   2.809   0.423   2.628  2.7810 -1.8359  2.4786
 7293SOL    HW222261   2.914   0.531   2.641  2.2038 -0.8783 -0.3559
 7294SOL     OW22262   0.083   1.465   5.748  0.1160  0.3228 -0.2893
 7294SOL    HW122263  -0.008   1.454   5.775  0.4196 -0.5055  0.4148
 7294SOL    HW222264   0.108   1.549   5.784 -0.1266  0.1840  0.2141
 7295SOL     OW22265   3.864   6.199   0.173 -0.0076  0.4990 -0.4420
 7295SOL    HW122266   3.909   6.280   0.151 -1.1203  1.4305  0.6238
 7295SOL    HW222267   3.828   6.168   0.090  1.0476  0.7033 -0.9832
 7296SOL     OW22268   3.643   2.086   0.906 -0.3648 -0.1042 -0.0306
 7296SOL    HW122269   3.624   2.015   0.844  1.6847  0.0539 -0.9071
 7296SOL    HW222270   3.686   2.153   0.852  0.9441  0.2701  1.4591
 7297SOL     OW22271   4.351   5.117   2.877  0.2659 -0.2849  0.0526
 7297SOL    HW122272   4.285   5.085   2.939  1.1069 -0.4196  0.8935
 7297SOL    HW222273   4.425   5.059   2.890  0.8621  0.4002 -0.2820
 7298SOL     OW22274   5.183   2.502   0.243  0.0797  0.3177 -0.0028
 7298SOL    HW122275   5.262   2.540   0.204  0.0419 -0.7516 -1.1618
 7298SOL    HW222276   5.124   2.577   0.255  1.4018  1.1943  1.2621
 7299SOL     OW22277   4.028   5.937   1.696 -0.4218 -0.5075  0.4362
 7299SOL    HW122278   3.959   6.003   1.701  0.6920  0.6442  0.8101
 7299SOL    HW222279   4.072   5.941   1.781  0.7385 -0.5145 -0.1461
 7300SOL     OW22280   3.607   6.317   1.994 -0.0822 -0.2557  0.0627
 7300SOL    HW122281   3.656   6.327   2.076  0.2429 -1.6040  0.0531
 7300SOL    HW222282   3.531   6.374   2.004 -1.0015 -1.7467  2.0825
 7301SOL     OW22283   1.593   4.308   4.987 -0.0248  0.0340 -0.4890
 7301SOL    HW122284   1.659   4.241   5.005  0.4021  0.3747 -0.7481
 7301SOL    HW222285   1.578   4.302   4.893 -1.9082 -1.4345 -0.1072
 7302SOL     OW22286   0.723   1.629   0.147  0.0524  0.1988 -0.0327
 7302SOL    HW122287   0.788   1.642   0.216 -0.4372 -1.1468  0.6909
 7302SOL    HW222288   0.767   1.574   0.082  0.0290  0.2626 -0.1034
 7303SOL     OW22289   4.725   3.744   1.367  0.3570  0.1715  0.5555
 7303SOL    HW122290   4.687   3.832   1.373 -1.4953 -0.6676  1.6001
 7303SOL    HW222291   4.717   3.708   1.455 -0.1008 -1.5385 -0.1622
 7304SOL     OW22292   4.606   5.628   5.618 -0.0156 -0.4124  0.3172
 7304SOL    HW122293   4.575   5.538   5.609 -1.6018  0.3122 -1.9528
 7304SOL    HW222294   4.611   5.660   5.528  3.3360  0.8767  0.8811
 7305SOL     OW22295   4.517   0.170   1.540 -0.2656  0.0501  0.2506
 7305SOL    HW122296   4.578   0.194   1.471 -0.6128  0.1634 -0.0181
 7305SOL    HW222297   4.571   0.125   1.605  0.1488  0.3786  0.1365
 7306SOL     OW22298   0.986   0.377   3.046  0.0397 -0.1279  0.0246
 7306SOL    HW122299   0.959   0.468   3.036 -0.2933 -0.0436  1.5610
 7306SOL    HW222300   0.911   0.333   3.086  0.8129 -0.6862  0.9067
 7307SOL     OW22301   1.849   3.502   1.915  0.5533  0.5646 -0.0280
 7307SOL    HW122302   1.824   3.594   1.924  0.9170  0.4199  3.1281
 7307SOL    HW222303   1.767   3.453   1.921  0.3784  0.6458 -1.5414
 7308SOL     OW22304   2.146   6.102   3.544 -0.0905  0.3265 -0.6521
 7308SOL    HW122305   2.161   6.099   3.639 -4.2495  1.2112  0.1348
 7308SOL    HW222306   2.143   6.011   3.517  1.7378  0.0714 -0.1053
 7309SOL     OW22307   5.631   5.944   2.242 -0.5417  0.3006  0.2188
 7309SOL    HW122308   5.580   5.872   2.279 -0.9587  0.9072  0.8366
 7309SOL    HW222309   5.702   5.957   2.305 -0.0008 -0.0859 -0.2940
 7310SOL     OW22310   1.537   1.979   2.762  0.2146 -0.2526 -0.1707
 7310SOL    HW122311   1.575   1.988   2.675  0.9268 -1.9904 -0.0559
 7310SOL    HW222312   1.477   1.905   2.755  0.3457 -0.4644  0.8308
 7311SOL     OW22313   5.624   1.931   0.567  0.1257 -0.4418 -0.3287
 7311SOL    HW122314   5.613   1.859   0.505  2.1084 -1.5706  0.6019
 7311SOL    HW222315   5.537   1.972   0.570 -0.8768 -2.3668 -1.3663
 7312SOL     OW22316   4.572   0.390   0.228  0.3034 -0.5921 -0.1952
 7312SOL    HW122317   4.553   0.483   0.214  1.4871 -0.0010  1.7574
 7312SOL    HW222318   4.499   0.343   0.189 -1.0472  1.2384  0.0926
 7313SOL     OW22319   0.021   2.293   4.182  0.1982  0.5843 -0.5790
 7313SOL    HW122320  -0.028   2.224   4.139 -0.2729 -0.5730  1.7273
 7313SOL    HW222321   0.109   2.288   4.144 -0.9795  1.6342 -3.5794
 7314SOL     OW22322   1.266   5.050   3.354 -0.4120  0.0989 -0.0996
 7314SOL    HW122323   1.301   5.035   3.266  0.3582  0.0037  0.2263
 7314SOL    HW222324   1.311   5.128   3.386  0.2414 -0.5961  0.7050
 7315SOL     OW22325   2.485   1.325   0.229 -0.3884  0.5693 -0.5190
 7315SOL    HW122326   2.513   1.299   0.316  0.1074  2.8386  0.0201
 7315SOL    HW222327   2.481   1.243   0.180 -1.0035 -0.7665  1.7030
 7316SOL     OW22328   6.351   5.531   0.480  0.2355  0.3991 -0.5032
 7316SOL    HW122329   6.408   5.458   0.457  2.8507  2.3808 -0.5051
 7316SOL    HW222330   6.300   5.499   0.555 -1.0510 -2.5267 -2.5561
 7317SOL     OW22331   5.414   5.355   1.192 -0.0093  0.1301  1.2840
 7317SOL    HW122332   5.456   5.279   1.151  2.0898  2.0052 -0.1487
 7317SOL    HW222333   5.475   5.427   1.178 -3.6747  3.0038 -0.8406
 7318SOL     OW22334   1.436   2.446   3.358 -0.3821  0.0602 -0.3243
 7318SOL    HW122335   1.403   2.529   3.323 -2.9655 -0.5592  0.5398
 7318SOL    HW222336   1.455   2.465   3.450  2.5023  0.6046 -0.9777
 7319SOL     OW22337   5.792   2.559   0.594 -0.5892 -0.2689  0.4197
 7319SOL    HW122338   5.819   2.584   0.505  1.4344 -0.4874  0.9595
 7319SOL    HW222339   5.713   2.507   0.580 -1.1326  0.9229 -1.1554
 7320SOL     OW22340   4.323   2.537   2.802 -0.4278 -0.0009  0.2465
 7320SOL    HW122341   4.364   2.618   2.833  1.0961 -0.2249 -1.1578
 7320SOL    HW222342   4.389   2.470   2.815  0.4631 -0.0123 -3.8984
 7321SOL     OW22343   2.912   2.510   3.847 -0.5448  0.2557  0.1745
 7321SOL    HW122344   2.980   2.573   3.822 -0.5041  0.1023 -0.1023
 7321SOL    HW222345   2.909   2.448   3.774  0.4506 -0.9201  1.1267
 7322SOL     OW22346   3.910   5.138   1.880  0.4796  0.0262 -0.0565
 7322SOL    HW122347   3.911   5.210   1.818  2.0348  1.0268  1.0933
 7322SOL    HW222348   3.996   5.097   1.870  0.3045 -0.5117  0.6107
 7323SOL     OW22349   0.699   0.476   3.156 -0.4580 -0.1078 -0.9817
 7323SOL    HW122350   0.640   0.527   3.211  1.8256  1.4729  0.1018
 7323SOL    HW222351   0.746   0.542   3.104  1.4761 -1.1842 -0.6432
 7324SOL     OW22352   2.234   4.626   5.867  0.3344 -0.4298  0.3639
 7324SOL    HW122353   2.181   4.631   5.787 -0.4807 -0.2198  0.9190
 7324SOL    HW222354   2.315   4.583   5.838 -0.7014 -2.0391 -0.1996
 7325SOL     OW22355   5.292   5.246   3.910  0.2515  0.6529 -0.8543
 7325SOL    HW122356   5.279   5.310   3.980 -1.0189  0.1378 -0.5984
 7325SOL    HW222357   5.247   5.284   3.834 -1.7106 -0.5366 -0.3285
 7326SOL     OW22358   4.112   3.212   5.192 -0.2439 -0.4977 -0.3739
 7326SOL    HW122359   4.083   3.122   5.208 -0.7270 -0.2983 -0.1224
 7326SOL    HW222360   4.192   3.221   5.244 -0.8981 -0.3766  0.6306
 7327SOL     OW22361   2.928   5.863   0.512 -0.2455 -0.0062 -0.7465
 7327SOL    HW122362   2.832   5.854   0.507 -0.2623  0.3611 -1.0695
 7327SOL    HW222363   2.950   5.826   0.597 -0.5388 -1.2441 -1.1934
 7328SOL     OW22364   2.716   6.112   4.196 -0.0722 -0.1163 -0.0123
 7328SOL    HW122365   2.621   6.122   4.201 -0.0434  0.1815 -0.0486
 7328SOL    HW222366   2.738   6.057   4.272 -0.4811 -1.7117 -1.0149
 7329SOL     OW22367   0.151   4.605   3.798  0.5585 -0.2129  0.7050
 7329SOL    HW122368   0.148   4.516   3.763 -0.4442  0.0475  0.0979
 7329SOL    HW222369   0.230   4.608   3.851  1.0239 -1.2233  0.0703
 7330SOL     OW22370   4.996   0.148   4.038  0.2300  0.4911 -0.4347
 7330SOL    HW122371   4.960   0.161   3.950  1.9499 -1.0974 -1.4092
 7330SOL    HW222372   4.953   0.215   4.092  0.7171  2.8608 -2.9146
 7331SOL     OW22373   4.322   4.787   5.360 -0.0273  0.6418  0.7140
 7331SOL    HW122374   4.403   4.837   5.350  0.4391  0.3468  2.7536
 7331SOL    HW222375   4.325   4.754   5.450 -1.8198 -0.4259  0.4098
 7332SOL     OW22376   5.604   2.789   3.532 -0.7466  0.0523 -0.2326
 7332SOL    HW122377   5.566   2.729   3.597  0.1235  0.9095  1.0892
 7332SOL    HW222378   5.553   2.869   3.541 -0.7796  0.0898 -0.7763
 7333SOL     OW22379   1.357   2.171   4.820  0.1609  0.4961 -0.3046
 7333SOL    HW122380   1.437   2.132   4.856 -0.1538 -0.8769 -1.0289
 7333SOL    HW222381   1.385   2.209   4.737  0.3126  1.1269  0.0353
 7334SOL     OW22382   1.056   0.605   4.557  0.2075 -0.1033 -0.1194
 7334SOL    HW122383   1.030   0.560   4.477  0.9168 -0.8011  0.0457
 7334SOL    HW222384   1.128   0.662   4.530  0.2610 -0.1273 -0.0251
 7335SOL     OW22385   6.297   2.509   3.142 -0.4814 -0.0243 -0.4397
 7335SOL    HW122386   6.352   2.491   3.066  1.0962  1.9734  0.1744
 7335SOL    HW222387   6.213   2.538   3.105 -0.5167 -1.2895 -1.3865
 7336SOL     OW22388   5.931   5.948   0.330  0.0264  0.1283  0.0478
 7336SOL    HW122389   6.010   5.968   0.280 -0.2643  0.7999 -0.1498
 7336SOL    HW222390   5.936   5.853   0.346 -0.1644 -0.2195 -1.7594
 7337SOL     OW22391   0.885   0.567   6.180 -0.2786  0.1462  0.1645
 7337SOL    HW122392   0.819   0.506   6.147 -0.9784  0.4428  0.9949
 7337SOL    HW222393   0.913   0.529   6.264 -1.8448  1.7467  1.4378
 7338SOL     OW22394   4.752   4.297   2.768  0.0513  0.7169  0.6489
 7338SOL    HW122395   4.819   4.235   2.741 -0.6683 -0.2653  1.0669
 7338SOL    HW222396   4.674   4.243   2.785 -0.2929  1.5966  2.0307
 7339SOL     OW22397   5.974   1.790   4.632 -0.2218  0.2713  0.1455
 7339SOL    HW122398   5.998   1.849   4.704 -0.4684  0.0315  0.4233
 7339SOL    HW222399   5.920   1.723   4.673  1.2961 -1.0015  0.0958
 7340SOL     OW22400   3.519   3.925   2.705  0.0806  0.5125  0.0805
 7340SOL    HW122401   3.451   3.980   2.745 -1.6167 -0.4397 -1.4514
 7340SOL    HW222402   3.525   3.954   2.614  1.6198  0.4574  0.1373
 7341SOL     OW22403   2.009   0.130   2.951  0.1817  0.2404 -0.1291
 7341SOL    HW122404   2.079   0.135   2.886  0.4198  0.2446  0.1289
 7341SOL    HW222405   1.961   0.212   2.940  0.7552  0.6381  0.2999
 7342SOL     OW22406   5.893   2.248   2.037 -0.2993 -0.2488  0.3208
 7342SOL    HW122407   5.873   2.322   1.979 -0.9417 -0.8324 -0.2127
 7342SOL    HW222408   5.935   2.288   2.113  1.5829  0.4109 -1.0291
 7343SOL     OW22409   3.284   2.698   2.332  0.3045  0.0016  0.4528
 7343SOL    HW122410   3.286   2.705   2.427  0.9091  0.1597  0.4265
 7343SOL    HW222411   3.364   2.652   2.309  1.0864  1.6161 -0.1227
 7344SOL     OW22412   3.908   4.116   3.695 -0.1208 -0.8545 -0.0262
 7344SOL    HW122413   3.868   4.118   3.782 -0.4740  0.3143 -0.2003
 7344SOL    HW222414   3.838   4.144   3.636  0.7576  0.6262 -0.4061
 7345SOL     OW22415   5.864   0.042   5.404 -0.2444  0.3823  0.2394
 7345SOL    HW122416   5.894   0.133   5.405  1.0900 -0.0704  2.6497
 7345SOL    HW222417   5.776   0.047   5.366 -0.1853  2.6641  0.3249
 7346SOL     OW22418   2.297   2.261   2.129  0.7802  0.4450  0.3869
 7346SOL    HW122419   2.225   2.296   2.075 -1.2336 -2.0920  1.3314
 7346SOL    HW222420   2.294   2.313   2.209 -0.5274 -0.1565  0.7387
 7347SOL     OW22421   1.931   5.350   2.686  0.1085 -0.0384 -0.1479
 7347SOL    HW122422   1.925   5.325   2.779  0.6221 -1.7619 -0.5620
 7347SOL    HW222423   1.859   5.412   2.674  1.5740  2.2009  2.0093
 7348SOL     OW22424   1.531   3.843   6.233  0.4085  0.3719  0.5329
 7348SOL    HW122425   1.496   3.791   6.306  2.2998 -2.2369 -0.3276
 7348SOL    HW222426   1.458   3.849   6.171 -0.1442 -0.3983  1.0994
 7349SOL     OW22427   3.329   2.839   0.417  0.1752 -0.1577  0.2491
 7349SOL    HW122428   3.365   2.784   0.486 -0.7882 -1.5435 -0.3291
 7349SOL    HW222429   3.377   2.813   0.338  1.1136  1.2525  0.3439
 7350SOL     OW22430   6.355   0.326   1.702  0.3037 -0.6834 -0.2054
 7350SOL    HW122431   6.449   0.341   1.692  0.2613 -0.8117 -0.7912
 7350SOL    HW222432   6.315   0.412   1.685  0.2950 -0.6926 -0.2320
 7351SOL     OW22433   4.536   1.280   5.704 -0.0442 -0.2292 -0.3431
 7351SOL    HW122434   4.450   1.238   5.703 -0.2752  0.1177  1.9811
 7351SOL    HW222435   4.594   1.216   5.663 -1.2680 -0.7723 -1.2629
 7352SOL     OW22436   5.164   2.105   4.388 -0.3601 -0.3531  0.3361
 7352SOL    HW122437   5.222   2.180   4.373 -1.9135  0.6560 -0.7254
 7352SOL    HW222438   5.165   2.093   4.483  0.7713  0.3104  0.4159
 7353SOL     OW22439   1.771   3.100   3.912  0.0745 -0.1914  0.4654
 7353SOL    HW122440   1.703   3.095   3.845  0.7835  0.7157 -0.3382
 7353SOL    HW222441   1.750   3.029   3.973 -2.0132  0.5487  0.6526
 7354SOL     OW22442   1.338   4.298   4.540  0.5013 -0.1436 -0.5703
 7354SOL    HW122443   1.279   4.318   4.613  0.6330 -1.6007 -0.0441
 7354SOL    HW222444   1.416   4.260   4.581  1.7100  1.5171 -1.2896
 7355SOL     OW22445   6.087   5.684   0.665 -0.5221 -0.3421  0.1656
 7355SOL    HW122446   6.035   5.683   0.745  0.0602 -0.5557  0.5499
 7355SOL    HW222447   6.046   5.620   0.607  0.2573 -1.6868  1.0813
 7356SOL     OW22448   4.770   3.980   2.581  0.3547  0.2733  0.1882
 7356SOL    HW122449   4.698   3.984   2.519 -0.3273 -0.1377  0.9447
 7356SOL    HW222450   4.735   3.933   2.657  2.2448 -2.5414 -0.5818
 7357SOL     OW22451   4.028   0.487   4.269  0.1330 -0.1338 -0.1160
 7357SOL    HW122452   4.065   0.565   4.309  0.0965 -0.7924  1.2253
 7357SOL    HW222453   4.064   0.414   4.320 -1.1713 -0.8999 -0.2684
 7358SOL     OW22454   5.527   4.433   2.183  0.0001  0.5356 -0.4883
 7358SOL    HW122455   5.436   4.457   2.203 -0.2943  0.1242 -1.3012
 7358SOL    HW222456   5.572   4.517   2.171 -0.3096  0.7381 -0.2413
 7359SOL     OW22457   6.027   1.383   3.668 -0.1594  0.4442 -1.1348
 7359SOL    HW122458   6.001   1.298   3.704  0.6128 -0.0081 -1.6361
 7359SOL    HW222459   6.103   1.409   3.721  0.0491  0.4845 -1.4535
 7360SOL     OW22460   0.285   1.753   1.840 -0.7718  0.2141 -0.5222
 7360SOL    HW122461   0.309   1.768   1.748 -0.7008 -0.9373 -0.7052
 7360SOL    HW222462   0.196   1.719   1.836 -0.1513 -1.4733 -0.2968
 7361SOL     OW22463   2.102   4.792   6.046 -0.0444 -0.1794  0.4909
 7361SOL    HW122464   2.168   4.735   6.004 -0.2140 -0.1694  0.2079
 7361SOL    HW222465   2.042   4.814   5.975  0.5491  1.1258  0.3849
 7362SOL     OW22466   1.414   4.735   2.993 -0.1116 -0.8369 -0.2313
 7362SOL    HW122467   1.447   4.659   3.042  0.1793  0.2986  1.3556
 7362SOL    HW222468   1.320   4.719   2.986 -0.0867 -1.2416  0.2733
 7363SOL     OW22469   2.360   2.037   3.503 -0.0430  0.0763 -0.0768
 7363SOL    HW122470   2.347   2.107   3.439 -0.5968  0.5575  0.5680
 7363SOL    HW222471   2.330   2.073   3.586 -0.0106 -0.8061  0.3268
 7364SOL     OW22472   6.009   6.143   2.719 -0.1122 -0.3985 -0.0274
 7364SOL    HW122473   5.999   6.229   2.681  2.2175 -1.0029 -2.1257
 7364SOL    HW222474   5.977   6.082   2.652 -0.9671 -1.2073  1.0952
 7365SOL     OW22475   0.497   4.511   1.848  0.1743  0.0009  0.1114
 7365SOL    HW122476   0.480   4.601   1.874  0.6212  0.5482 -1.4127
 7365SOL    HW222477   0.412   4.478   1.820  0.2066  0.2938 -0.3348
 7366SOL     OW22478   1.726   1.787   0.662  0.4082 -0.5360  0.3023
 7366SOL    HW122479   1.673   1.861   0.631  0.8961 -0.0073  0.7185
 7366SOL    HW222480   1.690   1.711   0.616  0.3903  0.0690 -0.6916
 7367SOL     OW22481   5.464   1.772   5.687  0.5299 -0.6733 -0.5680
 7367SOL    HW122482   5.427   1.684   5.700  0.1289 -0.2080  1.7625
 7367SOL    HW222483   5.404   1.830   5.733  2.2394  0.4893  0.2689
 7368SOL     OW22484   1.604   5.907   0.658  0.4171 -0.1225  0.1751
 7368SOL    HW122485   1.518   5.924   0.619  0.9359 -1.0215 -1.3922
 7368SOL    HW222486   1.585   5.888   0.750 -1.0071  0.1714 -0.0472
 7369SOL     OW22487   5.045   0.267   5.753 -0.3837  0.7441 -0.0402
 7369SOL    HW122488   5.082   0.351   5.725  0.1686  0.4542 -0.1827
 7369SOL    HW222489   5.057   0.267   5.848  0.5022  0.3954 -0.1569
 7370SOL     OW22490   2.767   6.235   2.605  0.4670  0.4165  0.1327
 7370SOL    HW122491   2.732   6.278   2.683  0.4554 -1.9710  1.5116
 7370SOL    HW222492   2.861   6.252   2.608  0.2084  1.9947 -0.4264
 7371SOL     OW22493   2.631   5.254   0.076 -0.1624 -0.2771 -0.1657
 7371SOL    HW122494   2.578   5.280   0.000 -1.5544 -3.0655 -0.1789
 7371SOL    HW222495   2.656   5.163   0.058  1.4204 -0.2320  1.6688
 7372SOL     OW22496   5.050   3.700   5.224 -0.1474 -0.2746 -0.0108
 7372SOL    HW122497   4.975   3.734   5.273 -0.0519  0.0864 -0.1122
 7372SOL    HW222498   5.097   3.645   5.286  0.8329  1.4160  0.7570
 7373SOL     OW22499   3.723   3.977   2.207  0.3417 -0.3981  0.0032
 7373SOL    HW122500   3.644   4.031   2.205 -0.0884 -1.0600 -2.6858
 7373SOL    HW222501   3.793   4.034   2.175  0.3214 -0.7858 -0.7302
 7374SOL     OW22502   2.718   3.876   4.815 -0.8843 -0.0660  0.2078
 7374SOL    HW122503   2.719   3.802   4.753 -0.5607 -0.9834  1.3011
 7374SOL    HW222504   2.708   3.953   4.759 -0.1340 -0.8520 -1.0365
 7375SOL     OW22505   1.430   2.195   2.087 -0.0257  0.3030 -0.1069
 7375SOL    HW122506   1.412   2.272   2.142  0.4183  0.7209 -0.5377
 7375SOL    HW222507   1.382   2.124   2.129 -0.4394  0.8144  0.3035
 7376SOL     OW22508   3.387   0.198   0.598 -0.0100  0.0858 -0.2612
 7376SOL    HW122509   3.308   0.224   0.549 -0.5439  0.2159  0.6552
 7376SOL    HW222510   3.356   0.185   0.688  1.3195  1.8228  0.4946
 7377SOL     OW22511   4.369   3.272   5.833  0.0348 -0.1025  0.0750
 7377SOL    HW122512   4.293   3.253   5.888  0.0059 -0.9514 -0.2496
 7377SOL    HW222513   4.401   3.357   5.864 -0.8636  0.1147  0.4115
 7378SOL     OW22514   5.547   4.758   1.744  0.1035  0.0953 -0.2555
 7378SOL    HW122515   5.511   4.754   1.833 -0.2735 -0.3104 -0.4234
 7378SOL    HW222516   5.595   4.676   1.733  1.6211  0.9067  0.1876
 7379SOL     OW22517   4.139   5.430   3.293 -0.4691  0.2536 -0.1428
 7379SOL    HW122518   4.106   5.499   3.235 -0.5584 -0.1891 -0.6288
 7379SOL    HW222519   4.197   5.378   3.236 -0.2551  0.0422  0.2694
 7380SOL     OW22520   5.568   5.195   5.075 -0.3515 -0.1559 -0.1492
 7380SOL    HW122521   5.568   5.254   5.000 -0.2376  0.9983  0.7516
 7380SOL    HW222522   5.598   5.111   5.039  1.0098  0.7314 -1.1370
 7381SOL     OW22523   4.350   0.827   5.959 -0.3074 -0.1608  0.2642
 7381SOL    HW122524   4.262   0.822   5.995 -1.2757 -0.8056 -2.1422
 7381SOL    HW222525   4.369   0.921   5.955 -1.1927  0.0024 -0.0022
 7382SOL     OW22526   2.759   6.258   3.957 -0.5535  0.2319  0.6752
 7382SOL    HW122527   2.750   6.214   4.042  0.3557 -0.9255  0.1804
 7382SOL    HW222528   2.850   6.243   3.931 -1.0206 -0.0594 -0.8483
 7383SOL     OW22529   3.075   6.354   5.622 -0.4041 -0.2241  0.4711
 7383SOL    HW122530   3.026   6.305   5.689  0.4604 -0.1563  1.1675
 7383SOL    HW222531   3.035   6.441   5.623  0.9993  0.4486  2.4726
 7384SOL     OW22532   0.948   4.121   2.564 -0.2583 -0.3470  0.2637
 7384SOL    HW122533   0.891   4.089   2.633 -2.1741 -0.4720 -1.3306
 7384SOL    HW222534   0.958   4.046   2.505  0.7412 -0.0200  0.0064
 7385SOL     OW22535   4.946   4.201   5.084  0.0359  0.4355  0.0198
 7385SOL    HW122536   4.918   4.186   4.993  0.8679  1.2231 -0.3721
 7385SOL    HW222537   4.868   4.235   5.127 -0.0774  1.0621 -0.6634
 7386SOL     OW22538   0.601   3.719   0.346  0.3780  0.0591  0.7044
 7386SOL    HW122539   0.574   3.653   0.283 -0.7979  0.5565  0.6840
 7386SOL    HW222540   0.692   3.737   0.323 -0.5459  1.5243 -2.0098
 7387SOL     OW22541   2.438   2.683   1.232 -0.0292  0.1799 -0.3278
 7387SOL    HW122542   2.413   2.616   1.167  1.3420 -0.1174 -0.5626
 7387SOL    HW222543   2.361   2.739   1.238 -1.1567 -1.3203 -0.2504
 7388SOL     OW22544   5.158   2.186   0.035 -1.2039  0.6729 -0.0167
 7388SOL    HW122545   5.242   2.223   0.062 -0.3088 -0.1700 -1.5481
 7388SOL    HW222546   5.097   2.211   0.104 -0.2717  3.5186 -0.1605
 7389SOL     OW22547   1.769   0.240   5.292  0.3085 -0.2405 -0.4190
 7389SOL    HW122548   1.748   0.300   5.219 -0.2860  0.3725  0.2422
 7389SOL    HW222549   1.821   0.171   5.252 -2.6363 -1.5814 -2.0794
 7390SOL     OW22550   1.019   2.911   6.368  0.7856 -0.0541  0.3280
 7390SOL    HW122551   0.935   2.931   6.327  0.3876 -1.2529  0.5216
 7390SOL    HW222552   1.035   2.819   6.346  1.3608 -0.2445  1.4744
 7391SOL     OW22553   3.309   2.658   3.333  0.3397  0.1498 -0.0151
 7391SOL    HW122554   3.256   2.701   3.266  1.4744 -1.3573 -1.9198
 7391SOL    HW222555   3.383   2.718   3.346  0.4108  0.1787 -0.5382
 7392SOL     OW22556   4.062   5.964   3.762 -0.6068 -0.5513 -0.5935
 7392SOL    HW122557   4.095   5.959   3.852 -0.1080  0.7104 -0.7002
 7392SOL    HW222558   4.116   5.903   3.713 -0.3679 -0.6680 -0.1903
 7393SOL     OW22559   4.230   0.704   3.309  0.1233 -0.1494  0.3988
 7393SOL    HW122560   4.150   0.675   3.352 -0.2019 -0.6965 -0.5816
 7393SOL    HW222561   4.234   0.798   3.327  0.1194 -0.4152  1.8369
 7394SOL     OW22562   3.460   3.671   1.171 -0.3307  0.6363 -0.1143
 7394SOL    HW122563   3.484   3.718   1.251  1.1773  1.1721 -0.8753
 7394SOL    HW222564   3.444   3.581   1.200 -1.8081  1.2712  1.1141
 7395SOL     OW22565   5.374   5.024   4.058  0.0467  0.4955  0.3048
 7395SOL    HW122566   5.370   5.102   4.001  1.1550 -0.6903 -1.4523
 7395SOL    HW222567   5.452   5.036   4.111  0.5068  0.3464 -0.3351
 7396SOL     OW22568   5.903   6.034   0.727 -0.3140 -0.1748 -0.4170
 7396SOL    HW122569   5.887   6.029   0.633 -1.0931 -1.1880 -0.2375
 7396SOL    HW222570   5.883   5.947   0.759  0.8617 -0.0936  0.5578
 7397SOL     OW22571   3.616   0.373   0.608 -0.0814  0.3204  0.2256
 7397SOL    HW122572   3.554   0.308   0.576  0.3448  0.6766 -1.3435
 7397SOL    HW222573   3.657   0.408   0.530 -0.3722  2.5469  1.0295
 7398SOL     OW22574   5.838   0.236   5.944  0.4359  0.0703  0.2572
 7398SOL    HW122575   5.803   0.147   5.949  1.7630 -0.4852 -0.0502
 7398SOL    HW222576   5.892   0.245   6.022  1.4440  0.1023 -0.4389
 7399SOL     OW22577   3.796   3.504   2.755 -0.6065  0.3248 -0.9035
 7399SOL    HW122578   3.871   3.553   2.722 -0.8397 -0.1502 -2.1709
 7399SOL    HW222579   3.830   3.456   2.831  0.1127  0.8903 -0.8627
 7400SOL     OW22580   1.915   1.332   3.538  0.3400  0.4753  0.0514
 7400SOL    HW122581   1.933   1.311   3.446 -0.3242  1.1874 -0.2481
 7400SOL    HW222582   1.820   1.336   3.543  0.3456 -0.4930  0.9851
 7401SOL     OW22583   1.471   2.241   5.806 -0.2209 -0.0077  0.4024
 7401SOL    HW122584   1.428   2.230   5.890  0.7907  0.8908  1.0395
 7401SOL    HW222585   1.520   2.322   5.814  0.2035 -0.1196 -0.9190
 7402SOL     OW22586   1.008   1.276   4.972  0.4449 -0.4110  0.4140
 7402SOL    HW122587   0.968   1.202   5.017  1.1103  0.1663  1.9833
 7402SOL    HW222588   0.935   1.316   4.924  0.4400 -3.1267 -1.9728
 7403SOL     OW22589   0.430   6.345   3.672 -0.3908 -0.4847  0.2255
 7403SOL    HW122590   0.355   6.366   3.727 -0.4092  0.0139  0.0194
 7403SOL    HW222591   0.429   6.250   3.664 -1.4457 -0.4325 -0.3829
 7404SOL     OW22592   0.850   1.899   5.894 -0.1239 -0.4887 -0.4527
 7404SOL    HW122593   0.874   1.880   5.985 -1.8564 -2.4281 -0.3885
 7404SOL    HW222594   0.884   1.825   5.844  2.4102  1.4220 -1.6882
 7405SOL     OW22595   2.711   1.608   4.437 -0.1631 -0.0023  0.1675
 7405SOL    HW122596   2.726   1.690   4.390  0.4885  0.7031  1.5879
 7405SOL    HW222597   2.738   1.540   4.375 -3.4263  0.6766 -2.1545
 7406SOL     OW22598   4.953   5.381   1.118 -0.4255 -0.2238  0.2330
 7406SOL    HW122599   5.012   5.317   1.159  1.4412  1.4636  0.2333
 7406SOL    HW222600   5.004   5.421   1.048 -1.5513  1.3096  0.2459
 7407SOL     OW22601   1.738   5.383   3.172 -0.4376 -0.0872 -0.4229
 7407SOL    HW122602   1.768   5.347   3.088  0.8347 -1.1388  0.4654
 7407SOL    HW222603   1.672   5.320   3.202 -1.4187  0.6674 -0.9559
 7408SOL     OW22604   1.283   2.542   1.946 -0.0308 -0.4565  0.2164
 7408SOL    HW122605   1.227   2.618   1.960 -0.0606 -0.3355 -0.5138
 7408SOL    HW222606   1.283   2.496   2.030  1.8681  1.5976  1.4060
 7409SOL     OW22607   0.245   3.531   3.941  0.2690  0.3419  0.1575
 7409SOL    HW122608   0.275   3.606   3.993  2.8011 -0.0923 -0.6205
 7409SOL    HW222609   0.282   3.545   3.854  0.7016 -1.7602 -0.0338
 7410SOL     OW22610   3.710   1.082   4.600  0.1090  0.5225 -0.0275
 7410SOL    HW122611   3.663   1.075   4.517  0.1342 -1.1473  0.0668
 7410SOL    HW222612   3.644   1.106   4.664  0.0546  1.6390 -0.5074
 7411SOL     OW22613   4.933   3.845   2.970 -0.3922  0.0566  0.5127
 7411SOL    HW122614   4.838   3.845   2.955 -0.0102  0.2394 -2.0453
 7411SOL    HW222615   4.943   3.815   3.061 -2.8808 -0.1222  0.7560
 7412SOL     OW22616   4.605   0.414   5.295 -0.1451 -0.1192 -0.0212
 7412SOL    HW122617   4.690   0.373   5.315 -0.1876 -0.5949 -0.7738
 7412SOL    HW222618   4.603   0.417   5.199 -1.5158 -1.2721 -0.0427
 7413SOL     OW22619   1.421   3.592   1.159  0.2209 -0.3193  0.2634
 7413SOL    HW122620   1.402   3.529   1.089  0.5195 -0.4672  0.3151
 7413SOL    HW222621   1.344   3.589   1.216 -1.0701  1.4690 -1.2796
 7414SOL     OW22622   3.839   0.178   1.214  0.4569  0.0479 -0.1207
 7414SOL    HW122623   3.814   0.206   1.302  1.1452  1.4745 -0.3728
 7414SOL    HW222624   3.933   0.192   1.210  0.4944 -0.4013 -0.9449
 7415SOL     OW22625   1.250   6.016   0.926 -0.1024 -0.0967 -0.4732
 7415SOL    HW122626   1.268   6.097   0.974 -1.1539 -1.4424  2.2635
 7415SOL    HW222627   1.337   5.977   0.912  0.2119  0.3041  0.3241
 7416SOL     OW22628   3.591   5.370   0.943 -0.3190  0.0466  0.3621
 7416SOL    HW122629   3.569   5.336   1.030  0.3669  0.5347  0.7367
 7416SOL    HW222630   3.546   5.454   0.939  2.4101  1.6601  1.6439
 7417SOL     OW22631   5.774   0.826   3.374 -0.0649 -0.1960  0.5977
 7417SOL    HW122632   5.723   0.746   3.363 -0.7705  0.2161  0.8440
 7417SOL    HW222633   5.864   0.796   3.385 -0.0072 -0.8589 -1.4895
 7418SOL     OW22634   0.450   3.268   5.389 -0.3873  0.0900  0.0695
 7418SOL    HW122635   0.460   3.348   5.337  0.2752  0.4947  0.8033
 7418SOL    HW222636   0.521   3.211   5.358 -1.2987 -0.4991 -0.9572
 7419SOL     OW22637   0.867   3.286   2.860  0.0973 -0.1093  0.5155
 7419SOL    HW122638   0.954   3.315   2.888  0.5121  0.0907 -0.9548
 7419SOL    HW222639   0.875   3.191   2.854  0.3869 -0.0374 -0.2101
 7420SOL     OW22640   4.649   5.625   0.778  0.2929  0.5746 -0.4434
 7420SOL    HW122641   4.585   5.695   0.778 -1.2833 -0.8222 -1.0757
 7420SOL    HW222642   4.642   5.586   0.865  1.3660  1.3768  0.0034
 7421SOL     OW22643   5.607   3.403   2.952 -0.4325  0.2470  0.1095
 7421SOL    HW122644   5.590   3.325   3.005 -0.4157 -0.0735 -0.3615
 7421SOL    HW222645   5.682   3.444   2.995 -1.7416  1.1493  1.6238
 7422SOL     OW22646   1.739   3.154   1.236  0.3064 -0.0449  0.5242
 7422SOL    HW122647   1.716   3.228   1.292  0.4722 -0.5919  1.3201
 7422SOL    HW222648   1.813   3.185   1.184 -0.3393  0.7244  0.0487
 7423SOL     OW22649   5.841   5.780   4.997  0.0313  0.5430 -0.2814
 7423SOL    HW122650   5.913   5.806   5.055  0.5715  1.3297 -1.2816
 7423SOL    HW222651   5.882   5.723   4.932 -0.0954  1.5907 -1.2946
 7424SOL     OW22652   6.039   0.074   2.053 -0.2323 -0.3307  0.1909
 7424SOL    HW122653   6.134   0.065   2.046 -0.3171 -0.1926 -1.3304
 7424SOL    HW222654   6.017   0.144   1.991 -1.4446 -1.0792 -0.2276
 7425SOL     OW22655   3.752   3.787   1.878  0.0130 -0.4264  0.1770
 7425SOL    HW122656   3.800   3.845   1.937 -1.6781 -0.4410  1.6052
 7425SOL    HW222657   3.802   3.789   1.796  1.1898  1.2932  0.9128
 7426SOL     OW22658   3.846   2.377   4.996  0.2427 -0.1806 -0.2827
 7426SOL    HW122659   3.903   2.328   4.937  0.7017 -0.7403  0.6065
 7426SOL    HW222660   3.769   2.321   5.007 -0.3042  0.3854 -1.1481
 7427SOL     OW22661   3.385   3.938   0.703  0.1557 -0.1645 -0.4973
 7427SOL    HW122662   3.289   3.938   0.708  0.1651 -0.5764 -0.2790
 7427SOL    HW222663   3.411   4.021   0.741  0.0154 -1.3254  2.2816
 7428SOL     OW22664   1.485   4.464   2.143 -0.0638  0.5000 -0.2926
 7428SOL    HW122665   1.461   4.516   2.220 -2.2390 -1.7676  0.6015
 7428SOL    HW222666   1.414   4.479   2.080  0.7075  0.7584 -1.1293
 7429SOL     OW22667   1.650   1.584   5.117 -0.3045  0.0439  0.1191
 7429SOL    HW122668   1.674   1.673   5.146 -0.2976 -0.2703  1.0974
 7429SOL    HW222669   1.584   1.556   5.180 -0.1982 -0.7037 -0.1034
 7430SOL     OW22670   4.045   0.314   2.810 -0.4027 -0.6333  0.0086
 7430SOL    HW122671   4.091   0.240   2.770 -0.0796 -1.1700  1.3551
 7430SOL    HW222672   3.997   0.354   2.738  1.5666 -0.5405 -1.2615
 7431SOL     OW22673   0.059   0.662   1.545 -0.1433  0.5201 -0.1479
 7431SOL    HW122674   0.077   0.700   1.631  0.9474  2.2324 -1.0879
 7431SOL    HW222675  -0.034   0.642   1.546 -0.4689  2.0103  0.8671
 7432SOL     OW22676   0.530   5.266   0.894 -0.5747  0.4700 -0.2000
 7432SOL    HW122677   0.547   5.237   0.984 -1.4961 -2.6562 -0.9667
 7432SOL    HW222678   0.435   5.274   0.888 -0.6900 -1.5094 -1.4796
 7433SOL     OW22679   5.989   1.536   4.473  0.9261 -0.5274 -0.2361
 7433SOL    HW122680   6.021   1.626   4.470 -1.2404  0.2930  0.0746
 7433SOL    HW222681   5.896   1.543   4.453  0.2537 -2.4544  1.9519
 7434SOL     OW22682   5.016   5.284   5.093 -0.5149  1.0392  0.7096
 7434SOL    HW122683   4.986   5.317   5.178  1.1044  1.1093  1.2767
 7434SOL    HW222684   5.100   5.242   5.113 -0.6098  0.1765 -0.6958
 7435SOL     OW22685   5.228   0.399   4.330 -0.5245 -0.5360  0.1096
 7435SOL    HW122686   5.174   0.377   4.405  1.0756 -3.2692  0.5215
 7435SOL    HW222687   5.290   0.464   4.363 -1.2362 -0.0774  0.5550
 7436SOL     OW22688   0.046   5.870   2.199  0.1886 -0.0747 -0.1004
 7436SOL    HW122689   0.083   5.897   2.283  0.5138 -1.9272  0.3681
 7436SOL    HW222690   0.096   5.919   2.134  1.5371 -0.3917  0.6777
 7437SOL     OW22691   4.105   6.293   3.831  0.0107 -0.9191 -0.4130
 7437SOL    HW122692   4.174   6.245   3.876 -0.0032 -0.8264 -0.2917
 7437SOL    HW222693   4.135   6.298   3.740  0.6184 -0.0682 -0.1763
 7438SOL     OW22694   6.266   1.717   0.217  0.0390  0.0574  0.2238
 7438SOL    HW122695   6.361   1.715   0.222  0.0166 -0.0431  0.6354
 7438SOL    HW222696   6.239   1.774   0.289 -0.1234  1.6200 -1.0327
 7439SOL     OW22697   3.643   5.400   5.481  0.0925  0.4108  0.3472
 7439SOL    HW122698   3.686   5.485   5.486 -0.2845  0.6161  0.1179
 7439SOL    HW222699   3.603   5.388   5.567  2.7335 -0.9302  1.4688
 7440SOL     OW22700   1.392   1.573   2.826 -0.2675  0.2851 -0.0787
 7440SOL    HW122701   1.352   1.593   2.741 -3.5830 -1.5138  0.9742
 7440SOL    HW222702   1.448   1.497   2.810  0.0241  0.6561 -0.8568
 7441SOL     OW22703   2.807   4.149   0.301  0.1035  0.3716  0.3910
 7441SOL    HW122704   2.744   4.084   0.334  0.3436 -0.2011 -0.2817
 7441SOL    HW222705   2.881   4.143   0.361 -0.1202  0.4278  0.6721
 7442SOL     OW22706   2.865   4.939   2.732 -0.5052  0.6050  0.0057
 7442SOL    HW122707   2.803   4.869   2.711 -0.4204  1.3827 -3.0003
 7442SOL    HW222708   2.950   4.905   2.705 -0.3035  1.3936 -0.3743
 7443SOL     OW22709   2.047   0.703   1.740 -0.4022  0.7576  0.4391
 7443SOL    HW122710   1.960   0.735   1.714 -0.8129 -1.0385 -0.4587
 7443SOL    HW222711   2.089   0.779   1.781 -1.5693  2.2772 -1.1063
 7444SOL     OW22712   2.456   2.800   4.859 -0.2557 -0.7239 -0.0099
 7444SOL    HW122713   2.442   2.738   4.787 -0.3119  0.0636 -0.6754
 7444SOL    HW222714   2.395   2.772   4.927 -0.5455 -1.1664 -0.4510
 7445SOL     OW22715   2.131   0.420   3.037 -0.6169 -0.0883  0.7342
 7445SOL    HW122716   2.203   0.361   3.061 -1.2514 -1.4997 -0.7178
 7445SOL    HW222717   2.173   0.491   2.989 -0.0366 -0.1673  1.1127
 7446SOL     OW22718   3.667   1.147   3.717 -0.3146  0.3906  0.4339
 7446SOL    HW122719   3.676   1.219   3.779  0.5834 -0.2855  1.0964
 7446SOL    HW222720   3.591   1.097   3.748  0.4818 -0.2726  1.3222
 7447SOL     OW22721   0.757   2.723   2.836 -0.6990 -0.0781 -0.0899
 7447SOL    HW122722   0.704   2.697   2.761 -0.6765 -0.5476  0.0519
 7447SOL    HW222723   0.829   2.774   2.799 -0.5247 -0.5640 -0.4167
 7448SOL     OW22724   3.662   6.282   5.245  0.5479  0.3721 -0.2352
 7448SOL    HW122725   3.715   6.258   5.169  0.2975 -0.9236  0.0027
 7448SOL    HW222726   3.653   6.202   5.296 -0.2740  0.9559  0.5637
 7449SOL     OW22727   5.314   1.502   2.539  0.1297 -0.1499 -0.5297
 7449SOL    HW122728   5.307   1.542   2.626 -2.6919  0.3109 -0.8991
 7449SOL    HW222729   5.336   1.411   2.556 -0.1087  0.0030  0.6741
 7450SOL     OW22730   3.956   4.123   4.835  0.1992  0.2291  0.0011
 7450SOL    HW122731   4.033   4.069   4.851  0.2253  0.8241  2.0597
 7450SOL    HW222732   3.904   4.116   4.916 -1.4401  0.5806 -1.0003
 7451SOL     OW22733   0.286   2.053   2.850  0.8359  0.3294  0.0346
 7451SOL    HW122734   0.249   2.002   2.923 -0.4217  1.0222 -0.1153
 7451SOL    HW222735   0.358   2.103   2.890  0.2307  0.6146  0.7789
 7452SOL     OW22736   1.173   4.911   4.207  0.2418  0.0660 -0.0358
 7452SOL    HW122737   1.122   4.923   4.126 -1.4529 -3.3485  0.4547
 7452SOL    HW222738   1.120   4.954   4.274  0.0539  0.0948 -0.2013
 7453SOL     OW22739   3.138   4.534   0.948  0.0941  0.3160  0.0368
 7453SOL    HW122740   3.139   4.440   0.969  1.2296  0.5029  0.9051
 7453SOL    HW222741   3.049   4.562   0.970  0.4271 -0.0905  2.0586
 7454SOL     OW22742   2.693   5.163   3.794 -0.3267  0.4978 -0.1981
 7454SOL    HW122743   2.653   5.250   3.785  0.2120  0.5276 -2.6281
 7454SOL    HW222744   2.778   5.179   3.835 -0.6369  0.9857  0.2682
 7455SOL     OW22745   3.426   4.394   0.335 -0.2862 -0.1268 -0.1354
 7455SOL    HW122746   3.430   4.479   0.290  1.3720 -0.5026 -0.7558
 7455SOL    HW222747   3.517   4.376   0.359 -0.5060 -2.1575 -0.7927
 7456SOL     OW22748   3.457   5.781   3.134  0.0620 -0.1002 -0.6287
 7456SOL    HW122749   3.537   5.793   3.186 -0.1887 -0.3809 -0.1801
 7456SOL    HW222750   3.389   5.825   3.185  0.1222  1.0541 -1.5192
 7457SOL     OW22751   4.129   5.622   0.662  0.3500 -0.3586 -0.3812
 7457SOL    HW122752   4.121   5.711   0.629 -1.3433 -1.0602 -1.9740
 7457SOL    HW222753   4.061   5.573   0.616  2.1689 -2.7867 -0.6229
 7458SOL     OW22754   5.463   1.808   4.110 -0.3564  1.0344  0.3438
 7458SOL    HW122755   5.401   1.749   4.153  0.8723 -0.4169  0.1763
 7458SOL    HW222756   5.492   1.867   4.179 -0.7561  0.7312  0.7743
 7459SOL     OW22757   0.579   0.658   2.006  0.2016 -0.2767  0.5368
 7459SOL    HW122758   0.525   0.605   2.064 -0.4083 -0.8949 -0.5854
 7459SOL    HW222759   0.539   0.745   2.010 -1.9085 -1.1063 -1.5520
 7460SOL     OW22760   5.684   5.159   5.805  0.0649  0.3712  0.1526
 7460SOL    HW122761   5.617   5.096   5.779 -1.0407  0.9659  1.5046
 7460SOL    HW222762   5.756   5.144   5.743  0.0122 -2.5195  0.7175
 7461SOL     OW22763   4.208   5.965   2.212 -0.0770  0.0313  0.0496
 7461SOL    HW122764   4.158   5.885   2.197  2.1985 -1.4683  0.1596
 7461SOL    HW222765   4.255   5.979   2.130  2.1264 -0.6787  1.1616
 7462SOL     OW22766   1.065   0.906   0.329  0.0012  0.2798 -0.6180
 7462SOL    HW122767   1.079   0.929   0.421  3.0567  0.8529 -1.1554
 7462SOL    HW222768   0.971   0.895   0.320 -0.6676  3.2517  1.9096
 7463SOL     OW22769   1.141   4.690   0.189  0.3769 -0.6467 -0.0555
 7463SOL    HW122770   1.070   4.716   0.248 -0.0862  0.2940 -1.0074
 7463SOL    HW222771   1.203   4.762   0.194  0.9806 -1.1828  0.2921
 7464SOL     OW22772   5.675   2.214   4.314  0.0595 -0.6813 -0.0314
 7464SOL    HW122773   5.625   2.296   4.316 -0.0954 -0.7855  0.5886
 7464SOL    HW222774   5.749   2.232   4.255  0.1688 -0.0072  0.3037
 7465SOL     OW22775   1.400   0.181   4.741  0.0135 -0.0370  0.1592
 7465SOL    HW122776   1.440   0.099   4.715 -0.4388 -0.0079 -0.6573
 7465SOL    HW222777   1.444   0.205   4.823 -0.0752 -1.2425  0.5681
 7466SOL     OW22778   3.780   5.276   2.504  0.7728  0.1868 -0.3857
 7466SOL    HW122779   3.702   5.237   2.545 -0.6012  1.2275 -1.9396
 7466SOL    HW222780   3.829   5.314   2.577 -0.2356 -0.3908  0.6098
 7467SOL     OW22781   0.667   2.849   3.115  0.4797 -0.0010  0.8072
 7467SOL    HW122782   0.669   2.781   3.183 -2.3075 -1.6779 -0.7127
 7467SOL    HW222783   0.705   2.807   3.038 -3.3256 -0.6421 -0.7888
 7468SOL     OW22784   5.213   3.766   2.023 -0.3551  0.2537  0.5580
 7468SOL    HW122785   5.182   3.716   2.099 -0.5232 -0.2147  0.1888
 7468SOL    HW222786   5.168   3.850   2.029  1.0194  0.9042  1.9814
 7469SOL     OW22787   3.946   4.955   6.335  0.6317 -0.6867 -0.3009
 7469SOL    HW122788   3.928   4.989   6.423  0.8311 -2.1029  0.3047
 7469SOL    HW222789   4.015   5.012   6.301  0.7101 -0.2643  0.5555
 7470SOL     OW22790   6.036   4.891   0.879  0.0572 -0.3579  0.1768
 7470SOL    HW122791   6.122   4.929   0.894  0.0881 -0.1951 -0.3861
 7470SOL    HW222792   6.042   4.803   0.916  0.3174 -0.1885  0.5457
 7471SOL     OW22793   0.531   0.096   5.698 -0.3277  0.0577  0.2976
 7471SOL    HW122794   0.594   0.168   5.692 -2.0272  1.5354 -0.0983
 7471SOL    HW222795   0.569   0.037   5.763  2.2002  0.1668 -1.0388
 7472SOL     OW22796   6.092   6.180   0.509 -0.1587  0.0699  0.4289
 7472SOL    HW122797   6.018   6.153   0.455  0.1068  0.0414  0.0799
 7472SOL    HW222798   6.154   6.107   0.503  0.6872  0.8797 -0.7427
 7473SOL     OW22799   0.120   6.333   0.693 -0.4510 -0.1645  0.4038
 7473SOL    HW122800   0.188   6.292   0.640 -1.5033 -2.3411  0.6622
 7473SOL    HW222801   0.146   6.314   0.783 -0.2345  0.9455  0.5815
 7474SOL     OW22802   4.133   3.865   1.901 -0.2208  0.4209 -0.0493
 7474SOL    HW122803   4.223   3.897   1.897 -0.2915  0.8357  1.2408
 7474SOL    HW222804   4.108   3.850   1.810  0.9606  0.8433 -0.4495
 7475SOL     OW22805   1.639   2.891   1.163  0.6027  0.3172  0.0392
 7475SOL    HW122806   1.658   2.983   1.184 -1.1622  0.8229 -0.4766
 7475SOL    HW222807   1.621   2.891   1.069 -1.6602 -0.1253  0.4362
 7476SOL     OW22808   0.383   3.160   5.981 -0.2584  0.1468 -0.2385
 7476SOL    HW122809   0.356   3.070   5.964  1.2716 -0.4184  0.2734
 7476SOL    HW222810   0.310   3.198   6.031 -0.3963 -1.1407  0.5507
 7477SOL     OW22811   4.901   3.105   5.652 -0.2172 -0.2439  0.4949
 7477SOL    HW122812   4.895   3.088   5.746  0.9930  0.2058  0.6592
 7477SOL    HW222813   4.811   3.095   5.621 -1.4608  3.9319  2.4354
 7478SOL     OW22814   3.949   4.576   5.189  0.1031 -0.0841 -0.0852
 7478SOL    HW122815   3.872   4.629   5.168  0.7597  1.5171  1.4015
 7478SOL    HW222816   4.010   4.593   5.117 -0.9461 -1.4686 -1.3426
 7479SOL     OW22817   3.091   1.140   4.143 -0.1918  0.3597 -0.3052
 7479SOL    HW122818   3.147   1.191   4.202  0.2326 -0.8768  0.3905
 7479SOL    HW222819   3.150   1.113   4.073 -0.5529  1.3163 -0.9762
 7480SOL     OW22820   0.463   5.568   3.425 -0.1259 -0.0745  0.5985
 7480SOL    HW122821   0.388   5.571   3.484 -0.3593  1.8277  0.2531
 7480SOL    HW222822   0.539   5.570   3.483 -0.3399  3.2062  0.8688
 7481SOL     OW22823   5.417   4.404   5.397 -0.0636 -0.0837  0.0639
 7481SOL    HW122824   5.468   4.485   5.404 -1.6329  0.6673  3.8802
 7481SOL    HW222825   5.334   4.431   5.359 -0.4832  0.0392  1.0731
 7482SOL     OW22826   6.317   1.170   5.704  0.3897 -0.3325  0.3275
 7482SOL    HW122827   6.275   1.143   5.786 -0.9430 -0.9732 -0.5518
 7482SOL    HW222828   6.294   1.263   5.696 -2.5981 -1.1161 -1.1168
 7483SOL     OW22829   5.858   5.827   3.648  0.4080  0.1264 -0.1043
 7483SOL    HW122830   5.762   5.830   3.642  0.5618  1.6064 -3.5584
 7483SOL    HW222831   5.880   5.893   3.714 -0.9217  0.8261 -0.3406
 7484SOL     OW22832   0.347   0.913   3.499 -0.2480  0.2506 -0.6865
 7484SOL    HW122833   0.331   0.982   3.434  0.8797  0.8934 -0.2948
 7484SOL    HW222834   0.275   0.851   3.486  0.0120  0.3227 -2.6170
 7485SOL     OW22835   3.847   6.182   3.878  0.0930 -0.1263  0.3165
 7485SOL    HW122836   3.839   6.091   3.851 -1.8570 -0.2880  1.3755
 7485SOL    HW222837   3.937   6.206   3.853  0.3867 -2.0866 -0.6450
 7486SOL     OW22838   3.748   0.093   0.775  0.0963 -0.3312 -0.3650
 7486SOL    HW122839   3.842   0.089   0.756  0.4107 -0.6102  1.1341
 7486SOL    HW222840   3.726   0.186   0.773  0.8446 -0.1059  1.2106
 7487SOL     OW22841   5.319   3.963   5.362  0.1565 -0.4623  0.3686
 7487SOL    HW122842   5.366   3.925   5.288 -0.6409 -0.1213 -0.3102
 7487SOL    HW222843   5.275   4.040   5.326 -0.6438 -0.5859  1.0798
 7488SOL     OW22844   1.044   3.809   0.949  0.1291  0.0972 -0.0855
 7488SOL    HW122845   0.969   3.840   0.899 -0.3237  1.4393  1.3688
 7488SOL    HW222846   1.013   3.807   1.040  1.5198 -0.3531  0.3953
 7489SOL     OW22847   2.808   6.048   4.433 -0.4254  0.5970 -0.2935
 7489SOL    HW122848   2.903   6.061   4.436 -0.4989  1.2459 -0.7238
 7489SOL    HW222849   2.775   6.101   4.505 -0.3788 -0.3968  0.4614
 7490SOL     OW22850   6.316   6.025   3.796 -0.2983  0.2453  0.4396
 7490SOL    HW122851   6.391   6.059   3.747  0.7714 -1.9865  0.4770
 7490SOL    HW222852   6.296   6.095   3.859  1.2345  1.2037 -0.0969
 7491SOL     OW22853   2.711   4.980   1.055 -0.5182 -0.0643  0.0076
 7491SOL    HW122854   2.706   5.063   1.009  0.4090 -0.4863 -0.8875
 7491SOL    HW222855   2.777   4.994   1.123  0.3951 -0.3696 -0.8073
 7492SOL     OW22856   0.434   2.416   2.537  0.1711  0.0473 -0.4138
 7492SOL    HW122857   0.431   2.452   2.626  0.2136  0.1673 -0.4607
 7492SOL    HW222858   0.455   2.323   2.550  0.6984  0.1791 -0.3291
 7493SOL     OW22859   1.781   1.808   2.399 -0.3982 -0.0567  0.0249
 7493SOL    HW122860   1.738   1.741   2.345  3.3137 -0.6628 -2.3771
 7493SOL    HW222861   1.873   1.782   2.399  0.1724  1.6429  4.2714
 7494SOL     OW22862   4.243   2.070   2.883 -0.2680 -1.0545  0.4572
 7494SOL    HW122863   4.201   1.984   2.880 -2.2305 -0.0992  0.2799
 7494SOL    HW222864   4.229   2.101   2.972 -0.6137 -0.4122  0.1840
 7495SOL     OW22865   1.375   6.070   2.614  0.5781  0.2204 -0.5404
 7495SOL    HW122866   1.336   6.155   2.594 -2.1761 -0.7458  0.4887
 7495SOL    HW222867   1.346   6.013   2.543  0.5241 -0.4149 -0.0129
 7496SOL     OW22868   1.642   5.636   4.814 -0.0451  0.4350  0.3645
 7496SOL    HW122869   1.622   5.558   4.762  0.3755  1.3478 -1.1699
 7496SOL    HW222870   1.737   5.641   4.814 -0.1005  1.5662 -0.4529
 7497SOL     OW22871   0.188   2.573   3.641  0.6265  0.3035  0.8041
 7497SOL    HW122872   0.146   2.555   3.557  1.0401 -2.9262  1.2314
 7497SOL    HW222873   0.182   2.668   3.651 -0.4004  0.6225 -2.3456
 7498SOL     OW22874   6.237   4.525   4.808 -0.3136  0.1621  0.1972
 7498SOL    HW122875   6.259   4.604   4.759  0.3893 -0.9754 -1.3357
 7498SOL    HW222876   6.220   4.557   4.897 -1.1740  2.1803 -0.6594
 7499SOL     OW22877   2.759   6.069   6.184 -0.4977 -0.5937  0.0457
 7499SOL    HW122878   2.766   6.136   6.251  1.5169 -2.6884  2.0353
 7499SOL    HW222879   2.830   6.089   6.123 -0.3412 -0.4984  0.2566
 7500SOL     OW22880   5.453   4.705   0.488  0.6964  0.0099  0.2145
 7500SOL    HW122881   5.538   4.749   0.501  0.7446 -0.2441  0.7713
 7500SOL    HW222882   5.446   4.644   0.562  0.6599 -0.9762 -0.6023
 7501SOL     OW22883   6.145   1.644   5.334 -0.3871  0.4218 -0.0222
 7501SOL    HW122884   6.176   1.598   5.256 -0.3322  0.0498  0.2138
 7501SOL    HW222885   6.174   1.734   5.323 -1.9282  0.7919 -1.2851
 7502SOL     OW22886   2.549   5.697   1.801 -0.2883 -0.1652  0.2708
 7502SOL    HW122887   2.521   5.624   1.744  1.0411 -0.1887 -0.3718
 7502SOL    HW222888   2.542   5.774   1.745  0.3539 -0.0926  0.2922
 7503SOL     OW22889   2.623   3.858   1.697  0.0291  0.1909 -0.1086
 7503SOL    HW122890   2.653   3.910   1.772 -0.8074  0.6241 -0.0747
 7503SOL    HW222891   2.664   3.772   1.710  0.6324  0.5399  0.3479
 7504SOL     OW22892   1.445   2.511   2.648 -0.1460 -0.2434  0.2993
 7504SOL    HW122893   1.435   2.443   2.714  1.9447 -0.3990  0.4781
 7504SOL    HW222894   1.390   2.583   2.679 -1.7602 -1.5363  0.5005
 7505SOL     OW22895   3.451   3.025   0.219  1.3157  0.1096 -0.1814
 7505SOL    HW122896   3.525   3.057   0.272  1.5848 -0.8593  0.0379
 7505SOL    HW222897   3.376   3.029   0.278  1.1524  1.2387 -0.4491
 7506SOL     OW22898   5.795   5.749   0.798  0.1501  0.2334 -0.4193
 7506SOL    HW122899   5.755   5.663   0.786 -1.5230  0.9574 -0.1998
 7506SOL    HW222900   5.722   5.811   0.788  1.0885  1.5503  0.7300
 7507SOL     OW22901   5.344   4.910   0.756  0.3712 -0.1488  0.1975
 7507SOL    HW122902   5.323   4.844   0.823  1.6206  1.0339  1.8105
 7507SOL    HW222903   5.262   4.925   0.710  0.2650 -3.5169 -0.8382
 7508SOL     OW22904   4.951   5.106   5.434  0.0182  0.2617  0.1300
 7508SOL    HW122905   4.880   5.098   5.499 -0.0909  1.8794  0.2341
 7508SOL    HW222906   4.946   5.025   5.383 -0.2621 -0.7838  1.7682
 7509SOL     OW22907   0.265   5.033   0.919  0.0947  0.5481 -0.5662
 7509SOL    HW122908   0.321   4.983   0.859 -2.7933 -1.9504 -1.3006
 7509SOL    HW222909   0.227   5.102   0.865 -1.2357 -0.7061 -1.2624
 7510SOL     OW22910   2.911   1.589   2.483  0.1043 -0.1757 -0.4435
 7510SOL    HW122911   2.906   1.680   2.451  0.2061  0.8399  2.2721
 7510SOL    HW222912   2.977   1.593   2.552 -0.1603 -2.2731 -0.0675
 7511SOL     OW22913   4.209   4.838   2.323  0.5542 -0.1035  0.0185
 7511SOL    HW122914   4.259   4.828   2.404 -0.9482 -0.6130  0.8950
 7511SOL    HW222915   4.252   4.910   2.277 -0.2780  2.0889  2.5634
 7512SOL     OW22916   0.767   1.471   1.817  0.0498 -0.2086 -0.0514
 7512SOL    HW122917   0.674   1.479   1.798 -0.2676 -2.7024  0.2721
 7512SOL    HW222918   0.811   1.503   1.738 -1.1121 -0.9285 -1.0035
 7513SOL     OW22919   2.566   2.808   0.585 -0.8197 -0.0853 -0.0844
 7513SOL    HW122920   2.589   2.801   0.678 -2.1943 -3.3804  0.0974
 7513SOL    HW222921   2.471   2.798   0.583 -1.1440  2.8681 -1.6647
 7514SOL     OW22922   6.069   0.280   4.284  0.6511  0.2389  0.4321
 7514SOL    HW122923   6.135   0.283   4.354  0.8011 -1.5634  0.3941
 7514SOL    HW222924   6.002   0.343   4.312  1.2469  0.3533  1.6573
 7515SOL     OW22925   1.421   1.513   3.586  0.1030  0.1955  0.0963
 7515SOL    HW122926   1.413   1.518   3.491  0.1639  1.2677  0.1439
 7515SOL    HW222927   1.394   1.599   3.617 -2.3265 -0.9132  1.2213
 7516SOL     OW22928   4.256   5.349   1.613 -0.0468  0.1868 -0.0011
 7516SOL    HW122929   4.186   5.328   1.675 -0.0675  0.1070 -0.0506
 7516SOL    HW222930   4.210   5.361   1.530  0.2966 -2.7602 -0.6700
 7517SOL     OW22931   5.546   0.636   3.376  0.7644 -0.0189  0.4103
 7517SOL    HW122932   5.547   0.630   3.472 -0.5879 -0.1105  0.4277
 7517SOL    HW222933   5.486   0.709   3.358  0.7719 -0.2101 -0.3816
 7518SOL     OW22934   0.091   2.169   5.708 -0.1558  0.0963  0.3940
 7518SOL    HW122935   0.002   2.134   5.704 -0.4302  0.7690  0.6148
 7518SOL    HW222936   0.105   2.209   5.622  0.7273 -1.9092 -0.4368
 7519SOL     OW22937   2.730   0.648   1.748  0.3817 -0.6505  0.1941
 7519SOL    HW122938   2.789   0.588   1.794 -0.6556 -2.2784 -0.5440
 7519SOL    HW222939   2.786   0.692   1.685  1.3043 -0.2978  1.2469
 7520SOL     OW22940   3.782   1.385   0.572  0.4331  0.1395  0.2043
 7520SOL    HW122941   3.826   1.437   0.505  3.5909 -1.4983  0.8596
 7520SOL    HW222942   3.793   1.294   0.542 -1.3188 -0.3956  1.1182
 7521SOL     OW22943   2.509   0.619   1.249  0.1672 -0.5120  0.0957
 7521SOL    HW122944   2.558   0.561   1.308 -0.0338  1.0565  1.8502
 7521SOL    HW222945   2.423   0.629   1.291 -0.2651 -0.0395 -0.8927
 7522SOL     OW22946   2.635   2.006   2.987 -0.8646  0.0215  0.2236
 7522SOL    HW122947   2.670   1.945   3.052 -0.1842  1.6431  1.3831
 7522SOL    HW222948   2.644   1.959   2.904 -2.0232 -2.2027  1.2935
 7523SOL     OW22949   0.412   3.826   6.252 -0.0906 -0.0153  0.6560
 7523SOL    HW122950   0.454   3.740   6.262  1.0057  0.4461  0.1034
 7523SOL    HW222951   0.338   3.810   6.194 -0.7863 -0.8709  1.7476
 7524SOL     OW22952   5.011   5.466   6.260 -0.4150  0.5354  0.7428
 7524SOL    HW122953   4.984   5.398   6.321 -0.4668  0.9087  1.1342
 7524SOL    HW222954   5.104   5.449   6.243 -0.4912  0.2188  0.6440
 7525SOL     OW22955   2.667   4.904   0.326 -0.4828 -0.6157  0.6534
 7525SOL    HW122956   2.587   4.890   0.275  0.8896  0.1756 -1.8333
 7525SOL    HW222957   2.706   4.817   0.334 -0.2386 -0.6254 -0.5046
 7526SOL     OW22958   3.791   0.899   5.938 -0.3378  0.5424  0.0369
 7526SOL    HW122959   3.743   0.860   5.864 -1.1701  1.4236  0.1019
 7526SOL    HW222960   3.728   0.959   5.978  0.1030  0.0433  1.4941
 7527SOL     OW22961   3.249   1.912   3.351  0.1920 -0.3829 -0.4518
 7527SOL    HW122962   3.318   1.914   3.418 -0.2770  0.0648  0.0253
 7527SOL    HW222963   3.286   1.958   3.276  0.5866 -0.5689 -0.3741
 7528SOL     OW22964   4.428   3.891   5.070  0.0308  0.9459 -0.2368
 7528SOL    HW122965   4.510   3.898   5.120 -0.4914 -0.9584  0.9323
 7528SOL    HW222966   4.371   3.958   5.108  0.2121  0.6289  0.6120
 7529SOL     OW22967   2.793   3.915   3.559 -0.1961 -0.6773 -0.4360
 7529SOL    HW122968   2.868   3.860   3.538 -0.1354 -0.5867 -0.4593
 7529SOL    HW222969   2.815   3.955   3.643 -0.4583 -1.0763 -0.1762
 7530SOL     OW22970   2.729   4.979   5.469  0.3227 -0.1021  0.4440
 7530SOL    HW122971   2.684   4.942   5.545 -0.3671 -0.1944  0.0024
 7530SOL    HW222972   2.678   5.057   5.447  0.6735  0.0711  0.2452
 7531SOL     OW22973   2.079   5.480   6.321  0.3066  0.0183 -0.3208
 7531SOL    HW122974   2.012   5.500   6.255  0.4000  0.9672 -0.1320
 7531SOL    HW222975   2.041   5.513   6.403  0.3126 -0.9023  0.0571
 7532SOL     OW22976   4.345   0.388   5.012  0.4251  0.1262 -0.0586
 7532SOL    HW122977   4.313   0.456   4.953  0.8925 -0.8189 -1.4418
 7532SOL    HW222978   4.438   0.410   5.024  0.2199  0.5895  0.7291
 7533SOL     OW22979   2.581   0.584   2.097 -0.3894  0.0952 -0.6392
 7533SOL    HW122980   2.564   0.677   2.107  1.6820  0.3716  0.7772
 7533SOL    HW222981   2.620   0.558   2.181 -0.6908 -1.9730 -1.1163
 7534SOL     OW22982   5.581   0.441   1.939 -0.0016  0.1106  0.5930
 7534SOL    HW122983   5.541   0.387   2.007 -0.4655 -0.1946  0.0789
 7534SOL    HW222984   5.665   0.400   1.921 -0.6414 -0.8375 -0.2752
 7535SOL     OW22985   4.008   1.733   3.649 -0.3366  0.4912  0.2676
 7535SOL    HW122986   3.996   1.812   3.702 -0.6183  1.5352 -1.3172
 7535SOL    HW222987   4.081   1.755   3.591 -0.7801 -0.2162 -0.5525
 7536SOL     OW22988   3.403   1.032   5.469  0.8056 -0.5849 -0.2969
 7536SOL    HW122989   3.456   1.014   5.547  1.8735 -1.1659 -1.1485
 7536SOL    HW222990   3.357   0.951   5.452  1.0451 -0.6505 -0.6319
 7537SOL     OW22991   5.538   0.321   6.319  0.6287 -0.2740 -0.7624
 7537SOL    HW122992   5.595   0.262   6.268  0.9347 -0.1195 -0.5993
 7537SOL    HW222993   5.456   0.324   6.269  0.3389 -1.4496 -0.3611
 7538SOL     OW22994   2.298   5.315   2.080 -0.7334  0.4803 -0.0136
 7538SOL    HW122995   2.297   5.225   2.049  1.3646  0.6829 -0.7256
 7538SOL    HW222996   2.267   5.309   2.171 -0.4519 -0.9811 -0.0019
 7539SOL     OW22997   4.715   5.880   6.257  0.6162  0.1170 -0.2163
 7539SOL    HW122998   4.775   5.955   6.260  0.7623 -0.0343  0.5167
 7539SOL    HW222999   4.769   5.805   6.281 -0.0712  0.1038  1.3023
 7540SOL     OW23000   1.874   4.401   1.787  0.2718 -0.2519 -0.4351
 7540SOL    HW123001   1.893   4.493   1.766 -2.4447  0.2099 -1.0629
 7540SOL    HW223002   1.835   4.404   1.874  0.0069 -0.8039 -0.5339
 7541SOL     OW23003   3.438   1.544   0.904 -0.4696  0.1959 -0.5093
 7541SOL    HW123004   3.514   1.506   0.859 -0.4328 -0.2262 -0.0920
 7541SOL    HW223005   3.365   1.488   0.880 -0.2726 -0.6248  0.7395
 7542SOL     OW23006   2.322   1.212   6.089 -0.3450 -0.0182 -0.1255
 7542SOL    HW123007   2.257   1.209   6.159  0.5449  3.3133  0.9631
 7542SOL    HW223008   2.405   1.226   6.134  0.4840  0.4827 -1.7517
 7543SOL     OW23009   5.699   3.786   3.080 -0.8012 -0.5908 -0.3960
 7543SOL    HW123010   5.740   3.703   3.102 -0.0069  0.1806  1.1243
 7543SOL    HW223011   5.771   3.843   3.054 -1.1570  0.0746  0.0393
 7544SOL     OW23012   5.759   1.018   1.370 -0.2217 -0.1842 -0.2402
 7544SOL    HW123013   5.822   1.090   1.373  0.3912 -0.7325  0.2059
 7544SOL    HW223014   5.747   0.994   1.462 -2.8616  1.4410 -0.1182
 7545SOL     OW23015   4.776   0.310   5.597  0.6577 -0.0804  0.3717
 7545SOL    HW123016   4.859   0.283   5.637  1.1977 -1.1988 -1.4465
 7545SOL    HW223017   4.755   0.393   5.640  1.8179 -0.6362  2.0957
 7546SOL     OW23018   5.112   5.865   3.577 -0.3327 -0.1458 -0.2606
 7546SOL    HW123019   5.194   5.887   3.532 -0.2111 -2.2375 -1.1184
 7546SOL    HW223020   5.082   5.948   3.614  2.5431  0.5518  0.6862
 7547SOL     OW23021   4.208   3.387   2.619 -0.4939  0.0588  0.7676
 7547SOL    HW123022   4.243   3.307   2.580  0.3408  1.5016 -1.5085
 7547SOL    HW223023   4.119   3.394   2.584  0.1326  1.1641 -0.6604
 7548SOL     OW23024   0.189   4.231   2.707 -0.2079 -0.2834  0.1022
 7548SOL    HW123025   0.166   4.162   2.769 -0.4572  0.1377  0.4837
 7548SOL    HW223026   0.285   4.227   2.702 -0.1862 -0.3267  0.5114
 7549SOL     OW23027   4.395   1.891   5.262 -0.8329 -0.0527 -0.2747
 7549SOL    HW123028   4.375   1.860   5.350 -1.5048 -0.1275 -0.4516
 7549SOL    HW223029   4.442   1.973   5.276 -0.2686 -0.4387  0.1639
 7550SOL     OW23030   0.766   2.528   0.590 -0.1203  0.2872 -0.5979
 7550SOL    HW123031   0.749   2.549   0.498  0.7687  1.7852 -0.4299
 7550SOL    HW223032   0.861   2.521   0.595 -0.2122 -0.4715  0.0742
 7551SOL     OW23033   3.663   2.045   0.199 -0.7276 -0.3979 -0.0686
 7551SOL    HW123034   3.725   2.009   0.262  0.3941 -0.8375 -1.3945
 7551SOL    HW223035   3.685   2.138   0.194 -0.4422 -0.4702 -0.2105
 7552SOL     OW23036   1.415   2.210   3.076 -0.5222  0.0027 -0.0933
 7552SOL    HW123037   1.335   2.214   3.128 -0.0288  0.7680  0.6151
 7552SOL    HW223038   1.486   2.205   3.140 -0.0658 -2.3785 -0.7262
 7553SOL     OW23039   5.391   1.914   0.017 -0.4341 -0.0897  0.2287
 7553SOL    HW123040   5.350   1.921   0.103 -2.4294 -1.3330 -0.5857
 7553SOL    HW223041   5.406   2.005  -0.010 -0.7853  0.3250  1.4202
 7554SOL     OW23042   1.816   3.366   3.135 -0.5696  0.5850 -0.4005
 7554SOL    HW123043   1.893   3.361   3.079 -0.3456 -0.7567  0.0059
 7554SOL    HW223044   1.837   3.435   3.199 -0.1458  0.9520 -0.9339
 7555SOL     OW23045   1.460   0.202   3.548 -0.7155  0.6506  0.3551
 7555SOL    HW123046   1.551   0.207   3.579 -0.7785 -1.7372  0.9570
 7555SOL    HW223047   1.462   0.246   3.463  1.1823 -0.0643 -0.0002
 7556SOL     OW23048   4.186   5.274   4.859  0.0708 -0.3841  0.4906
 7556SOL    HW123049   4.242   5.284   4.936  1.7603 -0.4201 -0.7112
 7556SOL    HW223050   4.126   5.203   4.882  0.3381 -0.1740  1.8877
 7557SOL     OW23051   3.988   1.852   6.211  0.5653 -0.8233  0.7802
 7557SOL    HW123052   3.910   1.862   6.267  0.6488 -0.0578  0.7588
 7557SOL    HW223053   4.060   1.888   6.263  0.6750 -0.2874  0.2547
 7558SOL     OW23054   4.619   0.475   1.543 -0.1879 -0.0481 -0.2239
 7558SOL    HW123055   4.663   0.559   1.535  0.9293 -0.5103  0.8087
 7558SOL    HW223056   4.642   0.428   1.463  1.0923 -0.2175  0.2292
 7559SOL     OW23057   3.348   5.534   3.495  0.3755  0.8292  0.0171
 7559SOL    HW123058   3.419   5.593   3.520 -0.1949  0.9389  1.4202
 7559SOL    HW223059   3.359   5.458   3.552 -0.3424  0.6388 -0.0985
 7560SOL     OW23060   0.683   5.075   1.679 -0.1365 -0.6059 -0.4158
 7560SOL    HW123061   0.688   4.982   1.702 -0.2610 -0.3242  0.8170
 7560SOL    HW223062   0.598   5.103   1.713  0.5084  0.2750  0.5091
 7561SOL     OW23063   0.636   0.566   0.160 -0.2573  0.4919  0.1563
 7561SOL    HW123064   0.671   0.486   0.198 -0.7168  0.1009 -0.2375
 7561SOL    HW223065   0.546   0.573   0.195 -0.5825  0.2777 -0.6315
 7562SOL     OW23066   4.226   6.366   6.348 -0.0275 -0.1250  0.6271
 7562SOL    HW123067   4.176   6.305   6.402  2.2214 -1.9393  0.7374
 7562SOL    HW223068   4.215   6.334   6.258 -1.1694  1.0105  0.3535
 7563SOL     OW23069   2.126   4.903   5.639  0.1713  0.5659  0.2759
 7563SOL    HW123070   2.069   4.977   5.616 -0.4474  0.5902  1.8245
 7563SOL    HW223071   2.209   4.944   5.663  0.4176  0.6258 -0.6683
 7564SOL     OW23072   5.105   5.159   2.503  0.1085 -0.0514 -0.7529
 7564SOL    HW123073   5.060   5.129   2.582  2.2862 -0.2717  0.4731
 7564SOL    HW223074   5.082   5.252   2.496 -0.5188 -0.1601 -0.1440
 7565SOL     OW23075   1.511   1.309   0.553 -0.1442 -0.1804  0.2307
 7565SOL    HW123076   1.481   1.277   0.638  1.2546  1.1646  1.2434
 7565SOL    HW223077   1.607   1.303   0.557 -0.0076  1.2430 -0.7197
 7566SOL     OW23078   3.101   2.262   5.373  0.2716 -0.4863  0.5314
 7566SOL    HW123079   3.162   2.201   5.331  0.6437  0.0674  0.2645
 7566SOL    HW223080   3.046   2.294   5.302  1.1195  0.7066  0.4016
 7567SOL     OW23081   4.613   5.817   2.211  0.0601  0.1827  0.0747
 7567SOL    HW123082   4.545   5.839   2.148  0.8896 -0.4121 -1.0523
 7567SOL    HW223083   4.648   5.902   2.239 -1.2486  0.4928  0.7999
 7568SOL     OW23084   4.357   5.712   0.136  0.2515  0.6657 -0.1632
 7568SOL    HW123085   4.384   5.665   0.057 -0.7523 -0.9904  0.4511
 7568SOL    HW223086   4.421   5.688   0.203 -0.3978 -0.0440  0.2158
 7569SOL     OW23087   1.697   4.021   2.794 -0.0156  0.8140  0.2203
 7569SOL    HW123088   1.748   4.005   2.714 -0.3399  0.3496  0.0999
 7569SOL    HW223089   1.609   3.992   2.772  0.1445 -0.4336  1.1161
 7570SOL     OW23090   1.402   1.533   2.211 -0.3539  0.2995 -0.1384
 7570SOL    HW123091   1.338   1.512   2.278  0.0726  0.6402  0.3763
 7570SOL    HW223092   1.394   1.463   2.146  0.0096 -0.6276  0.8150
 7571SOL     OW23093   6.081   1.736   2.123  0.2912 -0.0704  0.4181
 7571SOL    HW123094   6.005   1.706   2.072  0.8749 -0.6670 -0.1117
 7571SOL    HW223095   6.067   1.698   2.211 -0.4813  0.5781  0.5774
 7572SOL     OW23096   6.271   1.418   0.244 -0.0502 -0.0965 -0.1808
 7572SOL    HW123097   6.198   1.388   0.298 -0.9572  1.6056 -0.4100
 7572SOL    HW223098   6.239   1.500   0.206  2.2232  0.9828  0.2116
 7573SOL     OW23099   1.476   1.316   0.880 -0.7498  0.1359 -0.3647
 7573SOL    HW123100   1.444   1.404   0.903 -2.3700 -1.0869  2.2320
 7573SOL    HW223101   1.398   1.269   0.851 -0.5739 -1.5081  1.6868
 7574SOL     OW23102   2.976   1.045   0.545  0.2405 -0.0057 -0.1465
 7574SOL    HW123103   3.023   1.128   0.544  1.0295 -0.4517 -0.5219
 7574SOL    HW223104   2.977   1.019   0.637  1.1460 -0.2448 -0.2208
 7575SOL     OW23105   2.773   1.110   3.920 -0.9025  0.5476  0.0331
 7575SOL    HW123106   2.867   1.122   3.918 -0.9335  0.9463  0.9903
 7575SOL    HW223107   2.748   1.102   3.828 -0.0369  1.1783 -0.2587
 7576SOL     OW23108   3.371   0.993   2.570  0.5046  0.4586  0.4327
 7576SOL    HW123109   3.344   0.902   2.566 -2.4200  1.3173 -0.5424
 7576SOL    HW223110   3.421   1.000   2.652  0.4902 -1.9116  0.6619
 7577SOL     OW23111   1.631   5.490   5.040 -0.4158  0.1194 -0.1163
 7577SOL    HW123112   1.608   5.541   5.117 -1.1315 -2.5750  1.5232
 7577SOL    HW223113   1.608   5.546   4.966  0.6626  2.9110  1.5940
 7578SOL     OW23114   1.223   5.747   3.468 -0.1537  0.2574  0.3706
 7578SOL    HW123115   1.253   5.837   3.480 -1.3736  0.9486 -1.6814
 7578SOL    HW223116   1.141   5.755   3.420 -0.4995 -1.9346  0.5664
 7579SOL     OW23117   2.438   1.922   1.950 -0.1666 -0.0630  0.9624
 7579SOL    HW123118   2.491   1.950   2.025 -1.6273 -0.2417  2.0859
 7579SOL    HW223119   2.350   1.911   1.986 -0.7866 -0.6198 -0.6892
 7580SOL     OW23120   0.018   3.739   3.370  0.1231 -0.2316 -0.1700
 7580SOL    HW123121   0.056   3.801   3.308 -2.9492 -0.1473 -2.0512
 7580SOL    HW223122   0.051   3.653   3.343  0.1174 -0.0078 -0.8772
 7581SOL     OW23123   4.805   4.833   1.711 -0.4027 -0.5408 -0.1013
 7581SOL    HW123124   4.777   4.850   1.621 -2.7716  1.7830  0.9922
 7581SOL    HW223125   4.770   4.747   1.732 -0.6762 -0.6709 -1.0867
 7582SOL     OW23126   6.075   1.699   3.972  0.3277 -0.1614 -0.0952
 7582SOL    HW123127   6.006   1.644   3.934  1.3760 -0.9448 -0.9248
 7582SOL    HW223128   6.145   1.637   3.994  1.5842  0.8373 -1.1491
 7583SOL     OW23129   4.189   1.966   0.006  0.3645 -0.2956  0.1624
 7583SOL    HW123130   4.176   2.046   0.056 -0.5864  0.1402 -0.7760
 7583SOL    HW223131   4.278   1.974  -0.029  0.0928  0.5665 -0.3305
 7584SOL     OW23132   4.860   4.477   2.589 -0.3256  0.0289 -0.1557
 7584SOL    HW123133   4.802   4.434   2.653  0.3159 -1.2140 -0.4091
 7584SOL    HW223134   4.812   4.472   2.506 -0.3846  0.0759 -0.1247
 7585SOL     OW23135   1.898   3.117   6.277  0.4600  0.3075 -0.5505
 7585SOL    HW123136   1.849   3.104   6.196 -0.7096 -0.9023  0.3148
 7585SOL    HW223137   1.834   3.154   6.338  1.3002  1.1083 -0.1492
 7586SOL     OW23138   1.394   2.206   5.104 -0.2325  1.2171  0.4837
 7586SOL    HW123139   1.467   2.183   5.046  0.5605 -0.3876  2.0672
 7586SOL    HW223140   1.316   2.192   5.051  0.5196  0.5302 -0.4637
 7587SOL     OW23141   5.626   2.750   4.865  0.3901 -0.5280 -0.0589
 7587SOL    HW123142   5.690   2.781   4.929  0.3667 -1.2416  0.3224
 7587SOL    HW223143   5.658   2.663   4.840 -0.2593 -0.7595 -0.0975
 7588SOL     OW23144   6.307   1.560   4.074  0.0786 -0.0250 -0.5573
 7588SOL    HW123145   6.364   1.583   4.147 -0.4069  0.9200 -0.4640
 7588SOL    HW223146   6.364   1.561   3.997  0.5797 -0.9717 -0.2060
 7589SOL     OW23147   3.484   2.123   5.763 -0.3537 -0.0732  0.7426
 7589SOL    HW123148   3.405   2.170   5.791 -0.2901 -0.3102  1.3242
 7589SOL    HW223149   3.462   2.031   5.776  0.8082 -0.0662  3.0512
 7590SOL     OW23150   2.944   3.259   5.917 -0.0847  0.5393 -0.4328
 7590SOL    HW123151   2.995   3.195   5.867  1.0503  0.2540  1.0299
 7590SOL    HW223152   3.010   3.316   5.956 -1.0471  1.9286 -0.8187
 7591SOL     OW23153   3.242   0.768   1.163 -0.3159  0.2064 -0.0634
 7591SOL    HW123154   3.248   0.674   1.183  0.5462 -0.0718 -1.5152
 7591SOL    HW223155   3.244   0.772   1.067 -0.8728  1.6835 -0.0269
 7592SOL     OW23156   4.369   0.061   4.817  0.3063 -0.3970  0.2696
 7592SOL    HW123157   4.451   0.054   4.866  1.8260 -0.5057 -2.2177
 7592SOL    HW223158   4.366  -0.020   4.765 -1.0554 -0.0912 -0.1354
 7593SOL     OW23159   3.336   5.976   3.544 -0.2274 -0.1167  0.5740
 7593SOL    HW123160   3.367   5.930   3.622  0.4780 -1.2122 -0.3389
 7593SOL    HW223161   3.359   6.068   3.560 -2.2105  0.0740  2.6997
 7594SOL     OW23162   3.058   5.164   3.649  0.1464  0.4229  0.1788
 7594SOL    HW123163   2.986   5.213   3.688 -0.0914  0.8538 -0.7908
 7594SOL    HW223164   3.028   5.143   3.561  1.0528  0.2819 -0.1056
 7595SOL     OW23165   1.594   2.948   3.543  0.4225 -0.2467  0.6829
 7595SOL    HW123166   1.564   2.878   3.600  0.4465 -1.0161 -0.2357
 7595SOL    HW223167   1.602   2.907   3.457  3.1230  0.2104  0.6879
 7596SOL     OW23168   5.652   5.456   1.007 -0.0180  0.3005  0.5217
 7596SOL    HW123169   5.681   5.543   1.034  0.0656  0.1484  0.9424
 7596SOL    HW223170   5.731   5.401   1.018  0.2479  0.4012 -0.8458
 7597SOL     OW23171   3.945   1.197   1.792  0.1068  0.1075  0.1313
 7597SOL    HW123172   3.984   1.284   1.800  0.0946  0.3225 -1.9090
 7597SOL    HW223173   3.853   1.214   1.768  0.2463 -0.4438 -0.8391
 7598SOL     OW23174   1.388   0.891   5.671  0.0527 -0.0422  0.3029
 7598SOL    HW123175   1.438   0.856   5.597  0.1302  0.7593 -0.0355
 7598SOL    HW223176   1.452   0.943   5.720 -0.6018  1.6364 -0.5633
 7599SOL     OW23177   2.388   3.348   0.766  0.4671 -0.3832  0.5095
 7599SOL    HW123178   2.428   3.264   0.789  0.5744  0.1964  2.5376
 7599SOL    HW223179   2.372   3.391   0.850 -1.0280  0.9690 -0.4322
 7600SOL     OW23180   1.101   3.394   3.365 -0.3546 -0.7136  0.4929
 7600SOL    HW123181   1.092   3.485   3.335 -1.3394 -0.4523  1.5454
 7600SOL    HW223182   1.128   3.403   3.457 -1.4881 -1.4850  0.8991
 7601SOL     OW23183   2.408   2.290   1.174  0.0071  0.1241  0.5791
 7601SOL    HW123184   2.349   2.242   1.115  0.8205 -1.8753  1.3435
 7601SOL    HW223185   2.489   2.299   1.124  0.0230  0.2179  0.6230
 7602SOL     OW23186   4.084   3.236   3.124 -0.1626  0.0937 -0.0770
 7602SOL    HW123187   4.058   3.296   3.194  0.8314 -0.0327  0.4094
 7602SOL    HW223188   4.160   3.190   3.159 -2.0049 -2.8244  0.3478
 7603SOL     OW23189   5.894   3.140   5.281  0.0089 -0.0618 -0.0761
 7603SOL    HW123190   5.975   3.122   5.233  0.2774 -0.8074  0.6563
 7603SOL    HW223191   5.850   3.207   5.229 -0.1600 -1.5376 -1.9188
 7604SOL     OW23192   5.760   3.483   1.309  0.1919  0.8177  0.1731
 7604SOL    HW123193   5.705   3.519   1.378 -0.3434  0.1539  0.0948
 7604SOL    HW223194   5.807   3.410   1.351  1.6525  1.8960  0.4699
 7605SOL     OW23195   5.699   4.295   4.811  0.3143  0.2893  0.1141
 7605SOL    HW123196   5.736   4.383   4.812 -0.0396  0.4779 -1.7645
 7605SOL    HW223197   5.607   4.306   4.831  0.5074  0.2213  1.0391
 7606SOL     OW23198   0.418   3.245   3.032 -0.2037  0.3792  0.0072
 7606SOL    HW123199   0.405   3.322   3.088  1.6849  0.7706 -0.0611
 7606SOL    HW223200   0.481   3.191   3.079  1.8239  0.9695 -1.9409
 7607SOL     OW23201   2.210   5.991   1.838 -0.3182 -0.0575  0.5211
 7607SOL    HW123202   2.173   6.018   1.754 -0.0829 -1.6506 -0.1125
 7607SOL    HW223203   2.215   6.071   1.889  1.7582  1.4154 -1.8495
 7608SOL     OW23204   3.618   5.061   4.532 -0.1536  0.0857 -0.4955
 7608SOL    HW123205   3.558   5.062   4.607 -1.0308  1.5040 -1.1879
 7608SOL    HW223206   3.645   4.969   4.524 -0.5401 -0.1860  1.1625
 7609SOL     OW23207   1.509   3.921   1.627 -0.2086 -0.2741  0.2353
 7609SOL    HW123208   1.552   3.891   1.708 -0.4218  0.7683  0.7409
 7609SOL    HW223209   1.569   3.894   1.557 -0.5155 -2.1115  0.6518
 7610SOL     OW23210   4.655   4.900   0.161  0.2740  0.3580 -0.0452
 7610SOL    HW123211   4.713   4.863   0.095 -0.4707  0.3632 -0.7091
 7610SOL    HW223212   4.621   4.981   0.122  0.2385  0.6376  0.5481
 7611SOL     OW23213   1.601   5.919   1.472 -0.3640  1.2405 -0.3530
 7611SOL    HW123214   1.546   5.856   1.518 -0.3481  1.9346  0.6277
 7611SOL    HW223215   1.690   5.899   1.502  0.0410 -0.3287 -2.4503
 7612SOL     OW23216   2.715   5.121   6.015  0.2073  0.3107 -0.3467
 7612SOL    HW123217   2.637   5.176   6.009 -0.3344 -0.4666 -0.5801
 7612SOL    HW223218   2.776   5.171   6.069 -0.9581  0.3702  0.9569
 7613SOL     OW23219   0.928   1.373   5.849  0.3699 -0.5142  0.5656
 7613SOL    HW123220   1.015   1.337   5.862  1.2183  1.5301  0.7659
 7613SOL    HW223221   0.874   1.332   5.917  1.1465 -1.8249  0.3958
 7614SOL     OW23222   5.348   0.500   0.194 -0.2635 -0.2203 -0.2481
 7614SOL    HW123223   5.350   0.454   0.110 -1.6971 -1.1559  0.2160
 7614SOL    HW223224   5.285   0.451   0.247  0.3974  0.5388  1.2751
 7615SOL     OW23225   1.386   0.748   2.158  0.3180 -0.0696 -0.3314
 7615SOL    HW123226   1.461   0.710   2.203  0.3634  0.7061  0.2632
 7615SOL    HW223227   1.405   0.842   2.154  0.6015 -0.2070 -2.5388
 7616SOL     OW23228   5.859   2.372   3.699 -1.3212 -0.3893 -0.2177
 7616SOL    HW123229   5.787   2.394   3.758 -2.0163 -0.7851 -0.8955
 7616SOL    HW223230   5.897   2.456   3.675  0.2153 -0.3241  2.2968
 7617SOL     OW23231   0.536   2.619   4.210  0.1875 -0.7598 -0.2909
 7617SOL    HW123232   0.467   2.562   4.244 -1.4694  1.4339  0.2237
 7617SOL    HW223233   0.516   2.629   4.117 -2.3709  2.5881  0.4765
 7618SOL     OW23234   6.082   6.048   6.305  0.2971 -0.0272 -0.6700
 7618SOL    HW123235   6.149   6.085   6.248 -0.2508  2.5828  0.3150
 7618SOL    HW223236   6.127   6.029   6.387  0.0255  0.8138 -0.3311
 7619SOL     OW23237   4.918   5.350   2.838  0.5515 -0.3307  0.2818
 7619SOL    HW123238   4.968   5.271   2.822 -0.1391 -0.3665 -1.8539
 7619SOL    HW223239   4.854   5.325   2.905  1.3665 -1.1385  0.7610
 7620SOL     OW23240   0.289   1.602   2.809  0.1536 -0.2856 -0.4580
 7620SOL    HW123241   0.274   1.568   2.897  1.1386 -2.5740 -1.1453
 7620SOL    HW223242   0.219   1.666   2.796 -0.2524 -0.2066  1.8187
 7621SOL     OW23243   2.935   4.296   5.103 -0.0524 -0.0594 -0.7188
 7621SOL    HW123244   3.001   4.241   5.145  1.3816  0.7172 -1.9208
 7621SOL    HW223245   2.936   4.268   5.011  1.3071  2.5243 -1.5329
 7622SOL     OW23246   5.313   2.232   3.625  0.5826  0.1745 -0.3050
 7622SOL    HW123247   5.362   2.268   3.699  0.5501 -0.1196 -0.1388
 7622SOL    HW223248   5.222   2.251   3.646  0.5234 -0.5135  0.0591
 7623SOL     OW23249   0.905   4.099   6.137 -0.3999 -0.5609 -0.1534
 7623SOL    HW123250   0.953   4.064   6.211 -2.3355  0.0859  1.4633
 7623SOL    HW223251   0.814   4.072   6.153 -0.8486 -0.3972 -2.2743
 7624SOL     OW23252   0.004   2.884   5.353  0.1293  1.1203  0.2684
 7624SOL    HW123253  -0.011   2.978   5.342 -0.1321  1.0978  0.4231
 7624SOL    HW223254   0.099   2.876   5.360  0.3446  1.1009 -2.2986
 7625SOL     OW23255   5.830   2.889   5.621  0.0523  0.2708 -0.7176
 7625SOL    HW123256   5.739   2.913   5.606 -0.1872  0.0079  0.2448
 7625SOL    HW223257   5.869   2.883   5.534 -1.0752 -0.5080 -1.1754
 7626SOL     OW23258   4.330   0.924   3.740  0.3461  0.1346  0.1478
 7626SOL    HW123259   4.349   0.857   3.806  0.7813  0.3034  0.1963
 7626SOL    HW223260   4.235   0.930   3.739  0.3362  0.1473  0.7770
 7627SOL     OW23261   6.127   3.995   1.062 -0.1472  0.3388  0.4718
 7627SOL    HW123262   6.160   3.984   1.151  0.1803 -3.3129 -0.0020
 7627SOL    HW223263   6.200   3.966   1.006 -1.8413 -1.6539 -0.7884
 7628SOL     OW23264   1.908   0.499   3.430  0.0593 -0.3641 -0.3144
 7628SOL    HW123265   1.851   0.481   3.505 -0.4815 -2.2295 -1.1353
 7628SOL    HW223266   1.987   0.448   3.448 -0.2714 -1.2152 -1.2379
 7629SOL     OW23267   0.207   1.774   4.561  0.2488 -0.0116  0.7933
 7629SOL    HW123268   0.186   1.833   4.633 -0.6685  0.3629  0.2214
 7629SOL    HW223269   0.175   1.689   4.589 -0.1726  0.1483  0.7949
 7630SOL     OW23270   3.796   4.776   2.341  0.1742  0.3839  1.0801
 7630SOL    HW123271   3.772   4.868   2.356 -0.5212  0.6380 -1.3219
 7630SOL    HW223272   3.713   4.733   2.323  0.7863 -0.1524 -0.4981
 7631SOL     OW23273   2.845   2.647   3.385  0.0524  0.5023  0.1517
 7631SOL    HW123274   2.762   2.598   3.388 -0.8609  2.0240  0.4402
 7631SOL    HW223275   2.849   2.692   3.469  0.7972  1.0466 -0.1710
 7632SOL     OW23276   6.054   0.828   2.699 -0.2964 -0.4423  0.0474
 7632SOL    HW123277   5.960   0.827   2.716 -0.4231  1.5652 -0.3760
 7632SOL    HW223278   6.067   0.903   2.641  1.2830 -1.9920 -1.6991
 7633SOL     OW23279   5.171   2.203   0.821  0.0258 -0.2084  0.4108
 7633SOL    HW123280   5.077   2.184   0.820 -0.1403  0.4373  2.1255
 7633SOL    HW223281   5.209   2.138   0.880  0.4800  0.2476  0.6348
 7634SOL     OW23282   0.140   3.968   4.455  0.2150 -0.3005 -0.1442
 7634SOL    HW123283   0.184   4.010   4.529  0.7319  0.2445 -0.7523
 7634SOL    HW223284   0.051   3.950   4.487  0.9761 -1.7893  1.2308
 7635SOL     OW23285   0.105   6.181   0.159 -0.6612  0.3758 -0.1300
 7635SOL    HW123286   0.100   6.085   0.157 -0.0180  0.3261  0.4238
 7635SOL    HW223287   0.093   6.204   0.251 -3.1849  0.9798 -0.5736
 7636SOL     OW23288   6.090   1.865   1.496 -0.3546 -0.3521  0.3456
 7636SOL    HW123289   6.154   1.854   1.426 -0.9988 -0.3198 -0.2497
 7636SOL    HW223290   6.141   1.901   1.569  0.3121 -0.3653 -0.1075
 7637SOL     OW23291   1.918   2.534   4.795  0.1536  0.0725  0.3910
 7637SOL    HW123292   1.975   2.471   4.840  0.6108 -0.5485 -1.0388
 7637SOL    HW223293   1.973   2.573   4.727 -0.3433  1.5010  0.7898
 7638SOL     OW23294   2.713   3.178   1.310  0.2150  0.2299 -0.0575
 7638SOL    HW123295   2.688   3.110   1.372  0.0121 -0.4242 -0.8500
 7638SOL    HW223296   2.711   3.135   1.225  0.0554  1.2379 -0.5720
 7639SOL     OW23297   3.885   1.262   4.461 -0.8328 -0.2306 -0.5084
 7639SOL    HW123298   3.862   1.194   4.525 -0.5632  0.8441  0.7569
 7639SOL    HW223299   3.946   1.219   4.401 -0.9976 -1.2303  0.0355
 7640SOL     OW23300   0.714   5.171   3.483 -0.3292 -0.4233 -0.0239
 7640SOL    HW123301   0.794   5.224   3.481 -0.5042 -0.1911 -1.1343
 7640SOL    HW223302   0.674   5.191   3.567  0.5384 -0.1829  0.3411
 7641SOL     OW23303   4.091   0.851   1.231  0.1770 -0.0858  0.2052
 7641SOL    HW123304   4.063   0.927   1.282 -1.7864  0.0418 -1.0174
 7641SOL    HW223305   4.070   0.874   1.140  3.6236 -0.3111 -0.7136
 7642SOL     OW23306   1.618   3.075   0.260  0.4293 -0.0236 -0.0798
 7642SOL    HW123307   1.641   3.156   0.214 -1.1894 -0.0097 -0.9017
 7642SOL    HW223308   1.685   3.067   0.328  1.6009  1.1044 -1.0576
 7643SOL     OW23309   6.280   4.489   3.047  0.4108 -0.3255  0.4705
 7643SOL    HW123310   6.317   4.576   3.030 -0.2580  0.0357  0.8564
 7643SOL    HW223311   6.187   4.499   3.029  0.0169 -0.4716  2.3338
 7644SOL     OW23312   3.271   1.489   0.654 -0.2864 -0.8253  1.2906
 7644SOL    HW123313   3.243   1.580   0.660  0.2081 -0.6368  0.8037
 7644SOL    HW223314   3.198   1.444   0.611 -0.5097 -0.6523  1.4884
 7645SOL     OW23315   4.079   2.409   3.767 -0.0811 -0.4066 -0.2417
 7645SOL    HW123316   4.077   2.319   3.736  0.3188 -0.2476 -0.7321
 7645SOL    HW223317   4.122   2.405   3.852  0.7955 -0.5510 -0.6883
 7646SOL     OW23318   3.150   1.595   3.021 -0.1698 -0.0703 -0.1303
 7646SOL    HW123319   3.210   1.592   3.096  0.6754  0.1733 -0.7868
 7646SOL    HW223320   3.063   1.589   3.060  0.0039  4.6658  1.3167
 7647SOL     OW23321   2.383   5.202   0.790  0.0118  0.2182  0.3940
 7647SOL    HW123322   2.399   5.123   0.842  2.7474 -1.3809 -2.7013
 7647SOL    HW223323   2.338   5.170   0.711  0.2169  1.9106 -0.4255
 7648SOL     OW23324   4.591   3.268   3.020 -0.8582  0.1470 -0.4861
 7648SOL    HW123325   4.678   3.235   2.998 -0.5485  0.7860 -0.2198
 7648SOL    HW223326   4.579   3.244   3.112 -1.6802 -1.4861 -0.9820
 7649SOL     OW23327   0.513   5.840   5.272  0.0686 -0.3140 -0.3205
 7649SOL    HW123328   0.551   5.859   5.186 -1.6720  0.9500 -0.8406
 7649SOL    HW223329   0.555   5.759   5.299 -0.5244 -1.6116 -3.0950
 7650SOL     OW23330   0.645   6.320   2.582  0.2938 -0.4578  0.7406
 7650SOL    HW123331   0.681   6.326   2.493  1.6929  0.2195  1.3465
 7650SOL    HW223332   0.622   6.228   2.592  1.6440 -0.8609  0.2546
 7651SOL     OW23333   3.781   5.906   4.976 -0.6433 -0.0261  0.5289
 7651SOL    HW123334   3.792   6.000   4.960  1.1342 -0.2524  0.2843
 7651SOL    HW223335   3.856   5.882   5.031 -1.4451 -1.1702  1.1345
 7652SOL     OW23336   6.223   2.587   0.424  0.1470  0.5719  0.2090
 7652SOL    HW123337   6.258   2.502   0.453  2.2631  1.8936  1.6650
 7652SOL    HW223338   6.149   2.564   0.367  0.8036 -2.2485  0.4060
 7653SOL     OW23339   2.432   3.453   4.964  0.1412  0.1026 -0.3384
 7653SOL    HW123340   2.412   3.395   5.038 -1.4021 -1.0646 -1.6223
 7653SOL    HW223341   2.359   3.515   4.962  0.5332  0.5645 -0.4818
 7654SOL     OW23342   4.426   2.841   5.268  0.2418 -0.1062 -0.4933
 7654SOL    HW123343   4.468   2.819   5.351  0.3289  4.5323  0.8045
 7654SOL    HW223344   4.493   2.824   5.202  1.0443 -1.3484  0.6183
 7655SOL     OW23345   5.841   3.010   2.526 -0.1567  0.3585 -0.6084
 7655SOL    HW123346   5.766   3.046   2.479 -1.1741  1.5979  1.8690
 7655SOL    HW223347   5.808   2.930   2.566  0.2219  0.2124 -0.5850
 7656SOL     OW23348   1.177   0.622   2.979  0.4272  0.0407 -0.1965
 7656SOL    HW123349   1.092   0.664   2.993  0.0081 -0.3222 -1.5509
 7656SOL    HW223350   1.174   0.543   3.032 -1.1102 -1.3001 -2.2245
 7657SOL     OW23351   2.143   0.333   3.493 -0.2058  0.0530  0.0507
 7657SOL    HW123352   2.143   0.245   3.454 -2.2028  0.3142 -0.6218
 7657SOL    HW223353   2.120   0.318   3.585  0.7141 -0.2356  0.2364
 7658SOL     OW23354   4.602   1.380   4.248 -0.0822  0.0460  0.4599
 7658SOL    HW123355   4.578   1.430   4.169 -0.3865 -1.3329 -0.3367
 7658SOL    HW223356   4.697   1.372   4.244 -0.1046 -0.0881  0.1890
 7659SOL     OW23357   5.082   3.716   2.245 -0.1237  0.5248  0.3643
 7659SOL    HW123358   5.105   3.742   2.335 -1.5151 -0.1727  0.9340
 7659SOL    HW223359   4.999   3.670   2.254  0.3026 -0.5760 -1.1412
 7660SOL     OW23360   2.215   0.146   2.767 -0.2956 -0.0696  0.0866
 7660SOL    HW123361   2.291   0.167   2.821  1.4114 -2.7531 -1.2055
 7660SOL    HW223362   2.209   0.219   2.705  0.1723  1.0095  1.3021
 7661SOL     OW23363   1.930   1.048   2.059 -0.2841  0.4724 -0.2032
 7661SOL    HW123364   1.899   0.958   2.052 -0.2476  0.3847  0.7009
 7661SOL    HW223365   2.024   1.040   2.078 -0.4763  0.6813  0.8526
 7662SOL     OW23366   4.979   3.200   4.811 -0.8478 -0.1237  0.2379
 7662SOL    HW123367   5.027   3.125   4.846 -3.0339 -2.3630 -1.2719
 7662SOL    HW223368   4.894   3.196   4.855 -1.0656  1.3215 -0.0424
 7663SOL     OW23369   3.634   0.624   2.787 -0.4203 -0.1326  0.8641
 7663SOL    HW123370   3.652   0.670   2.705  0.5721  0.2445  1.2870
 7663SOL    HW223371   3.640   0.531   2.764 -1.7441 -0.0630  0.1629
 7664SOL     OW23372   4.515   6.094   2.678  0.8320  0.5222 -0.0504
 7664SOL    HW123373   4.592   6.129   2.632  1.5323 -1.9771 -0.8612
 7664SOL    HW223374   4.461   6.057   2.608  1.1515 -1.9158  0.9529
 7665SOL     OW23375   5.682   0.287   5.551  0.5284 -0.1411 -0.0601
 7665SOL    HW123376   5.727   0.299   5.467  1.5405 -1.1505  0.3252
 7665SOL    HW223377   5.589   0.283   5.528  0.8361 -1.0258 -1.2200
 7666SOL     OW23378   5.571   1.720   0.407  0.2586 -0.1070  0.7875
 7666SOL    HW123379   5.623   1.660   0.461 -0.9841  0.6945  2.9440
 7666SOL    HW223380   5.521   1.663   0.348  1.0998 -1.0429  0.9687
 7667SOL     OW23381   5.578   5.783   3.590 -0.0533 -0.5056 -0.0467
 7667SOL    HW123382   5.561   5.810   3.500  0.2537 -0.0615  0.0309
 7667SOL    HW223383   5.509   5.719   3.609 -0.2415 -0.4438 -0.5254
 7668SOL     OW23384   0.010   5.033   0.270 -0.0567 -0.0467 -0.0268
 7668SOL    HW123385   0.079   5.053   0.333  0.5632  0.1172 -0.7539
 7668SOL    HW223386   0.046   4.962   0.217 -0.5864 -0.1934 -0.1913
 7669SOL     OW23387   3.092   4.331   2.018 -0.0065  0.1479  0.2683
 7669SOL    HW123388   3.011   4.330   1.965  0.4952 -0.0104 -0.5055
 7669SOL    HW223389   3.162   4.325   1.953  0.6469  1.0485  0.9023
 7670SOL     OW23390   3.750   6.189   6.314 -0.5254  0.1744 -0.6151
 7670SOL    HW123391   3.704   6.105   6.316 -1.4383  0.6679 -0.3728
 7670SOL    HW223392   3.700   6.242   6.251 -0.6368  0.9022  0.0723
 7671SOL     OW23393   1.131   6.212   5.101  0.0863  0.4998  0.0160
 7671SOL    HW123394   1.187   6.228   5.025  1.6550 -0.3883  0.9609
 7671SOL    HW223395   1.175   6.258   5.173 -0.0905 -0.7107  0.8986
 7672SOL     OW23396   4.476   5.839   0.735 -0.4111 -1.2974 -0.1749
 7672SOL    HW123397   4.401   5.873   0.784  0.5178  0.4903  0.0317
 7672SOL    HW223398   4.462   5.870   0.646  1.5235  1.5804  0.4339
 7673SOL     OW23399   2.092   3.993   2.422  0.2547  0.0597 -0.2668
 7673SOL    HW123400   2.001   4.023   2.425  0.3866  0.4819 -0.3288
 7673SOL    HW223401   2.090   3.914   2.368 -0.4788 -1.4556  1.8964
 7674SOL     OW23402   4.311   4.979   0.106 -0.8926 -1.0018  0.2492
 7674SOL    HW123403   4.330   4.927   0.028  1.7347  0.4649 -0.1614
 7674SOL    HW223404   4.345   4.928   0.179  0.8845 -0.2958 -0.0644
 7675SOL     OW23405   4.688   1.440   6.136 -0.7993 -0.0581  0.7967
 7675SOL    HW123406   4.704   1.532   6.115 -0.3177  0.0498  1.6092
 7675SOL    HW223407   4.710   1.393   6.055 -0.0465  0.4538  0.6935
 7676SOL     OW23408   4.697   3.030   5.086  0.2344 -0.5854 -0.2349
 7676SOL    HW123409   4.764   2.977   5.130  0.4125 -0.0855  0.1048
 7676SOL    HW223410   4.631   2.967   5.059 -1.3514 -0.6056  3.3692
 7677SOL     OW23411   6.261   0.194   4.105 -0.3475  0.0881  0.1410
 7677SOL    HW123412   6.288   0.251   4.178 -1.1084  2.3024 -1.2640
 7677SOL    HW223413   6.166   0.192   4.110 -0.6243  2.8555 -2.6316
 7678SOL     OW23414   3.806   5.735   5.793 -0.0842 -0.1811  0.0459
 7678SOL    HW123415   3.770   5.747   5.704 -0.4162 -0.4912  0.1355
 7678SOL    HW223416   3.892   5.776   5.789 -0.9118  1.6619  0.1541
 7679SOL     OW23417   3.681   4.109   4.755  0.2289  0.3791  0.5704
 7679SOL    HW123418   3.672   4.113   4.850  0.1462 -0.5840  0.6089
 7679SOL    HW223419   3.770   4.074   4.741 -0.4754 -1.3672  0.3247
 7680SOL     OW23420   5.726   4.602   6.229 -0.3514 -0.7235  0.3894
 7680SOL    HW123421   5.797   4.621   6.290  0.3162 -0.1180 -0.5669
 7680SOL    HW223422   5.769   4.592   6.144 -1.2000 -2.2004  0.1205
 7681SOL     OW23423   3.514   0.130   5.808 -0.3043 -0.5097  0.0058
 7681SOL    HW123424   3.496   0.062   5.743 -0.5052  0.2048 -0.6850
 7681SOL    HW223425   3.443   0.121   5.872 -0.8828 -0.2920 -0.6099
 7682SOL     OW23426   4.325   0.437   6.114  0.0303  0.2107  0.7123
 7682SOL    HW123427   4.287   0.421   6.027  1.6837 -0.6319  0.1193
 7682SOL    HW223428   4.309   0.357   6.162 -0.8098  0.6469  1.1579
 7683SOL     OW23429   1.245   2.674   4.594 -0.3669 -0.5838  0.3072
 7683SOL    HW123430   1.270   2.665   4.502  1.7585 -0.3972  0.8523
 7683SOL    HW223431   1.300   2.611   4.640  0.0637  0.7701  1.6930
 7684SOL     OW23432   6.220   4.256   3.299  0.1337 -0.5987 -0.4517
 7684SOL    HW123433   6.279   4.259   3.375 -0.2033  0.5404 -0.2248
 7684SOL    HW223434   6.150   4.317   3.321  0.3003  0.1329 -1.9047
 7685SOL     OW23435   3.824   3.233   3.883 -0.2329  0.0854  0.5156
 7685SOL    HW123436   3.777   3.310   3.916 -0.3570 -0.2518  1.1473
 7685SOL    HW223437   3.756   3.166   3.871  0.0211 -0.2762  1.0449
 7686SOL     OW23438   1.494   3.005   4.100  0.3065 -0.3744  0.1589
 7686SOL    HW123439   1.504   2.968   4.013 -1.1155 -0.5622  0.0648
 7686SOL    HW223440   1.446   3.087   4.087  1.8567  0.6010  0.5560
 7687SOL     OW23441   5.625   0.870   0.009  0.0585  0.0993 -0.0676
 7687SOL    HW123442   5.673   0.863   0.091 -1.0393  1.8692  0.7490
 7687SOL    HW223443   5.557   0.804   0.015 -0.8396  1.1114  1.0308
 7688SOL     OW23444   5.514   4.737   4.927  0.0513  0.4184  0.4404
 7688SOL    HW123445   5.494   4.740   4.833 -0.5979  1.9913  0.6229
 7688SOL    HW223446   5.479   4.653   4.955  2.7305 -1.3615 -1.2589
 7689SOL     OW23447   0.022   1.723   2.414 -0.0714  0.1427 -0.1244
 7689SOL    HW123448   0.014   1.672   2.494  0.9117  0.8699  0.4560
 7689SOL    HW223449  -0.031   1.802   2.430  0.6129  0.5720  0.0576
 7690SOL     OW23450   1.234   2.427   0.722 -0.3106 -0.0083 -0.7205
 7690SOL    HW123451   1.211   2.432   0.815 -1.0943  0.6089 -0.9408
 7690SOL    HW223452   1.210   2.338   0.696  0.5967 -0.4167 -0.1503
 7691SOL     OW23453   0.580   2.230   4.591 -0.1361 -0.3989 -0.4165
 7691SOL    HW123454   0.485   2.223   4.586 -0.1818  0.6381 -1.0810
 7691SOL    HW223455   0.612   2.169   4.525 -0.4241  1.5413 -2.4139
 7692SOL     OW23456   0.033   5.640   4.554 -0.1159  0.3134  0.0359
 7692SOL    HW123457   0.085   5.618   4.631 -0.0389 -1.1534 -0.4169
 7692SOL    HW223458  -0.051   5.670   4.588  0.5109  1.3134  0.7268
 7693SOL     OW23459   0.348   0.433   0.561 -0.0096  0.2160  0.5362
 7693SOL    HW123460   0.350   0.341   0.586  0.7156  0.5391  1.7049
 7693SOL    HW223461   0.371   0.480   0.641 -0.3617  1.4163 -0.0530
 7694SOL     OW23462   5.469   3.833   3.638  0.0003  0.3067 -0.3366
 7694SOL    HW123463   5.392   3.788   3.604  0.6813 -0.6684 -0.5920
 7694SOL    HW223464   5.433   3.906   3.688 -1.1333 -1.0121  0.8157
 7695SOL     OW23465   2.088   3.813   2.223  0.1244  0.2399 -0.0966
 7695SOL    HW123466   2.149   3.739   2.224  0.2851  0.3646  2.6244
 7695SOL    HW223467   2.113   3.863   2.145  1.9769 -0.9488 -0.3091
 7696SOL     OW23468   0.889   1.661   2.223  0.1516 -0.8237  0.5275
 7696SOL    HW123469   0.863   1.752   2.208  1.0586 -0.5695  0.4635
 7696SOL    HW223470   0.860   1.614   2.144 -0.7734 -0.6908  0.7854
 7697SOL     OW23471   4.048   3.489   4.195 -0.5018  0.1887  0.5321
 7697SOL    HW123472   4.036   3.407   4.147 -1.0530  0.4332  0.2564
 7697SOL    HW223473   4.057   3.556   4.127 -0.4821  0.4204  0.7625
 7698SOL     OW23474   4.133   2.223   0.130 -0.3663 -0.4263  0.1298
 7698SOL    HW123475   4.158   2.311   0.158  1.0658 -0.8803  0.2988
 7698SOL    HW223476   4.039   2.230   0.110 -1.0770  0.3466  3.3895
 7699SOL     OW23477   0.582   2.978   0.034  0.1260  0.7589 -0.4933
 7699SOL    HW123478   0.628   2.934   0.105 -0.8652  1.1836  0.4335
 7699SOL    HW223479   0.645   2.982  -0.037  1.1061  0.2463  0.3386
 7700SOL     OW23480   6.117   5.425   6.246  0.0461  0.5235 -0.3168
 7700SOL    HW123481   6.071   5.497   6.202  0.6979  1.5115  0.5676
 7700SOL    HW223482   6.060   5.349   6.235 -0.7654  1.2339 -1.0819
 7701SOL     OW23483   0.393   1.263   1.274  0.4124  0.2858  0.1557
 7701SOL    HW123484   0.462   1.252   1.339  0.7609  0.2161 -0.2191
 7701SOL    HW223485   0.438   1.300   1.198 -0.0728  0.8074  0.1135
 7702SOL     OW23486   6.216   1.465   5.832 -0.2876 -0.6011 -0.1120
 7702SOL    HW123487   6.166   1.535   5.790 -0.4326 -0.1948  0.7184
 7702SOL    HW223488   6.150   1.417   5.883  0.0175 -0.6189  0.2653
 7703SOL     OW23489   0.395   1.703   5.745 -0.5107 -0.0520  0.9407
 7703SOL    HW123490   0.302   1.723   5.745 -1.4871 -4.1203  0.3005
 7703SOL    HW223491   0.419   1.698   5.837 -1.6154 -1.7032  1.1555
 7704SOL     OW23492   5.079   5.569   4.799  0.4749  0.5780  0.0307
 7704SOL    HW123493   5.080   5.640   4.734 -1.5615  0.4146 -0.2198
 7704SOL    HW223494   4.989   5.535   4.795  0.5152  0.1219  2.4487
 7705SOL     OW23495   6.107   3.677   3.332 -0.0124 -0.4221  0.2002
 7705SOL    HW123496   6.081   3.696   3.241  3.0374  0.7296 -0.4680
 7705SOL    HW223497   6.163   3.750   3.357 -1.1100 -0.5286  3.1921
 7706SOL     OW23498   1.075   3.362   3.785  0.0557  0.0277 -0.1612
 7706SOL    HW123499   1.067   3.446   3.830  1.2778  0.7974 -1.3253
 7706SOL    HW223500   1.164   3.363   3.749 -0.6317 -0.8422 -1.9828
 7707SOL     OW23501   0.150   3.166   4.652 -0.0673 -0.0685 -0.1006
 7707SOL    HW123502   0.242   3.143   4.662  0.0165  0.3019 -0.0072
 7707SOL    HW223503   0.145   3.212   4.568 -0.2529 -0.5125 -0.3383
 7708SOL     OW23504   4.440   3.001   2.033  0.6138 -0.2864  0.4576
 7708SOL    HW123505   4.356   3.016   2.076  0.7769  0.0539  0.6598
 7708SOL    HW223506   4.475   2.923   2.074 -0.4723 -1.5380 -0.9541
 7709SOL     OW23507   5.014   5.418   4.322 -0.0501  1.1748 -0.4529
 7709SOL    HW123508   5.069   5.404   4.399  0.0134  1.1218 -0.5074
 7709SOL    HW223509   4.934   5.370   4.340  0.3095  0.4255 -0.7912
 7710SOL     OW23510   5.948   1.203   0.840 -0.1054 -0.4102 -0.1463
 7710SOL    HW123511   5.894   1.254   0.900  0.3165 -0.5759  0.3918
 7710SOL    HW223512   6.033   1.248   0.841  0.8548 -2.1434  1.8017
 7711SOL     OW23513   2.137   3.764   6.205  0.1271 -0.0583 -0.0784
 7711SOL    HW123514   2.143   3.678   6.164 -0.6479  0.1487 -0.6399
 7711SOL    HW223515   2.228   3.788   6.225  0.1730 -2.0878  2.3782
 7712SOL     OW23516   1.798   2.923   2.927  0.1868  0.9083 -0.3568
 7712SOL    HW123517   1.866   2.910   2.861 -0.0851  0.7909 -0.6123
 7712SOL    HW223518   1.845   2.957   3.003  0.1155  3.7131 -1.5156
 7713SOL     OW23519   1.434   1.492   4.660 -0.2064  0.1478 -0.0950
 7713SOL    HW123520   1.471   1.455   4.580 -0.5408 -0.1203 -0.1281
 7713SOL    HW223521   1.503   1.482   4.725  0.6954  1.8858 -0.7463
 7714SOL     OW23522   0.059   2.011   6.000 -0.5873 -0.4015  0.1677
 7714SOL    HW123523   0.035   2.039   5.912 -0.3362  1.2713  0.6199
 7714SOL    HW223524   0.147   2.047   6.014 -2.4290  3.4480  2.8309
 7715SOL     OW23525   1.023   3.343   1.091  0.1650  0.5795  0.2627
 7715SOL    HW123526   1.012   3.258   1.133 -0.0735  2.2898  3.8587
 7715SOL    HW223527   0.944   3.392   1.115  0.3962  1.8757 -1.5684
 7716SOL     OW23528   1.688   5.272   0.632 -0.1558 -1.0632 -0.1319
 7716SOL    HW123529   1.668   5.329   0.706  0.8215 -1.6890  0.6121
 7716SOL    HW223530   1.604   5.262   0.587 -0.9580 -1.4684  1.4380
 7717SOL     OW23531   4.842   2.983   3.105 -0.4105 -0.0962  0.0574
 7717SOL    HW123532   4.874   3.066   3.070 -0.1916 -0.8026 -1.4907
 7717SOL    HW223533   4.885   2.974   3.190  1.7408  0.0558 -0.9962
 7718SOL     OW23534   1.334   1.142   0.419 -0.2330 -0.1109  0.2889
 7718SOL    HW123535   1.370   1.101   0.341 -0.2866  0.8412 -0.2458
 7718SOL    HW223536   1.401   1.204   0.447 -0.4961  0.0322  0.6131
 7719SOL     OW23537   4.691   3.099   5.345  0.1222  0.0977  0.5730
 7719SOL    HW123538   4.661   3.063   5.262  2.1962  0.3332 -0.2948
 7719SOL    HW223539   4.717   3.189   5.325 -0.3322  0.4934  1.6938
 7720SOL     OW23540   6.294   1.880   1.299 -0.2798  0.1847 -0.2208
 7720SOL    HW123541   6.355   1.815   1.333 -0.1917 -0.4163 -1.5024
 7720SOL    HW223542   6.297   1.869   1.204 -2.0120  0.4724 -0.3302
 7721SOL     OW23543   3.844   4.463   2.814 -0.0260 -0.1471  0.3230
 7721SOL    HW123544   3.798   4.534   2.767  0.9970  0.3958  0.1314
 7721SOL    HW223545   3.773   4.409   2.850 -0.8231  0.5351 -0.1865
 7722SOL     OW23546   6.046   5.287   0.153  0.0021 -0.4977 -0.4459
 7722SOL    HW123547   6.114   5.353   0.157  0.3340 -0.7927 -1.2814
 7722SOL    HW223548   5.986   5.317   0.085  0.3271 -1.2171 -1.0555
 7723SOL     OW23549   1.408   2.398   3.920 -0.1395 -0.0036  0.0860
 7723SOL    HW123550   1.428   2.305   3.915  0.0844  0.1113 -1.2193
 7723SOL    HW223551   1.429   2.422   4.011 -0.1982 -1.2131  0.4202
 7724SOL     OW23552   3.709   4.242   3.492  0.1685  0.5687 -0.0379
 7724SOL    HW123553   3.660   4.174   3.445 -1.9932  1.3563  1.0113
 7724SOL    HW223554   3.782   4.263   3.435  0.5504 -2.2262 -0.6492
 7725SOL     OW23555   4.863   2.597   1.478  0.6501 -0.0872 -0.2294
 7725SOL    HW123556   4.790   2.658   1.465  0.0767 -0.6977  0.0716
 7725SOL    HW223557   4.881   2.601   1.572  3.1564  2.4787 -0.7538
 7726SOL     OW23558   5.028   3.087   1.892  0.1012  1.2588  0.0745
 7726SOL    HW123559   5.072   3.077   1.807  0.2508  0.1205  0.2764
 7726SOL    HW223560   4.997   2.999   1.913 -0.9184  1.7563  0.6730
 7727SOL     OW23561   3.489   1.636   2.242  0.2352  0.3642 -0.3222
 7727SOL    HW123562   3.523   1.606   2.158  0.7938  1.6999 -0.5824
 7727SOL    HW223563   3.528   1.577   2.307 -0.4911 -0.9010 -1.0267
 7728SOL     OW23564   6.174   5.476   0.921  0.0705 -0.3149  0.1148
 7728SOL    HW123565   6.132   5.562   0.923  0.5407 -0.0946  2.7979
 7728SOL    HW223566   6.248   5.485   0.981  0.6629 -2.3411 -0.2871
 7729SOL     OW23567   0.724   4.819   1.132 -0.0467 -0.3420 -0.4433
 7729SOL    HW123568   0.776   4.744   1.161 -0.4461 -1.1718 -1.8430
 7729SOL    HW223569   0.662   4.834   1.203  0.5416 -0.8507  0.1823
 7730SOL     OW23570   0.435   0.195   2.272  0.2484 -0.9847  0.3468
 7730SOL    HW123571   0.487   0.224   2.348  0.0685  0.6747 -0.1379
 7730SOL    HW223572   0.469   0.248   2.199 -1.1617 -0.9150 -0.2621
 7731SOL     OW23573   2.951   5.555   2.526 -0.1419  0.0780 -0.0686
 7731SOL    HW123574   2.872   5.513   2.561 -0.0194 -1.7719 -1.9021
 7731SOL    HW223575   2.920   5.616   2.461 -0.0182 -2.1013 -2.2412
 7732SOL     OW23576   3.175   0.698   1.749  0.0431  0.7811 -0.1881
 7732SOL    HW123577   3.247   0.758   1.725 -0.2960  1.8436  1.3596
 7732SOL    HW223578   3.138   0.737   1.829 -0.9791 -0.8455  0.1377
 7733SOL     OW23579   5.187   0.613   1.504 -0.1627  0.7307 -0.2745
 7733SOL    HW123580   5.239   0.593   1.426 -1.1285  1.0406 -1.0072
 7733SOL    HW223581   5.214   0.701   1.529 -0.0265  0.7238 -0.3944
 7734SOL     OW23582   4.165   1.976   3.672  0.0598  0.3266 -0.1546
 7734SOL    HW123583   4.221   2.032   3.617 -0.0783  0.7994  0.1852
 7734SOL    HW223584   4.104   2.037   3.714  0.6901  0.0728  1.1601
 7735SOL     OW23585   3.139   3.242   0.146  0.0918 -0.4012  0.4639
 7735SOL    HW123586   3.155   3.299   0.222 -0.4077  0.6671 -0.2201
 7735SOL    HW223587   3.204   3.270   0.081 -0.5872 -0.1669 -0.1145
 7736SOL     OW23588   6.309   0.296   2.140  0.1447  0.0830 -0.1707
 7736SOL    HW123589   6.403   0.290   2.121 -0.2642 -0.3862 -2.1237
 7736SOL    HW223590   6.290   0.390   2.133  0.1755  0.0161 -1.3468
 7737SOL     OW23591   1.733   6.376   2.498  0.4364 -0.0873  0.3059
 7737SOL    HW123592   1.655   6.409   2.454 -0.0253  0.5247  1.5525
 7737SOL    HW223593   1.701   6.342   2.582  1.7275  1.8850  1.6555
 7738SOL     OW23594   5.009   0.544   6.059  0.6000 -0.2532 -0.6942
 7738SOL    HW123595   4.950   0.607   6.019 -1.2888 -1.3140  0.3446
 7738SOL    HW223596   5.044   0.588   6.137  1.1595  0.3644 -1.2946
 7739SOL     OW23597   4.231   5.862   0.879 -0.1336 -0.1295  0.2547
 7739SOL    HW123598   4.179   5.924   0.930 -0.2315 -0.1624  0.1956
 7739SOL    HW223599   4.199   5.872   0.789 -1.1184 -1.2672  0.4685
 7740SOL     OW23600   5.804   5.073   4.016  0.7609 -0.0830 -0.3224
 7740SOL    HW123601   5.783   4.991   3.971 -2.1642 -0.1476  1.0133
 7740SOL    HW223602   5.813   5.049   4.108  0.2936  1.0116  0.0185
 7741SOL     OW23603   0.762   6.127   0.985 -0.5528  0.3559 -0.2234
 7741SOL    HW123604   0.688   6.159   1.037  0.3634  1.5673  0.3501
 7741SOL    HW223605   0.828   6.196   0.992  0.7951 -0.9036 -0.3754
 7742SOL     OW23606   5.773   4.987   1.802 -0.3073  0.3187 -0.3441
 7742SOL    HW123607   5.721   4.908   1.787 -1.2592  0.3962  2.3614
 7742SOL    HW223608   5.847   4.977   1.742  0.2509 -3.2480  0.7720
 7743SOL     OW23609   0.512   4.303   4.068 -0.0441 -0.0640 -0.3206
 7743SOL    HW123610   0.497   4.217   4.027 -0.0017 -0.0239 -0.4213
 7743SOL    HW223611   0.588   4.338   4.021  0.9461 -0.6583  0.8072
 7744SOL     OW23612   1.484   5.688   3.625  0.5315  0.3329 -0.2153
 7744SOL    HW123613   1.439   5.690   3.709 -0.4315  1.5850 -0.7533
 7744SOL    HW223614   1.417   5.707   3.560  1.2562 -0.6675 -1.2847
 7745SOL     OW23615   4.578   0.898   0.786 -0.1002  0.1406  0.0426
 7745SOL    HW123616   4.592   0.947   0.868  1.5213 -1.5873  0.8397
 7745SOL    HW223617   4.624   0.950   0.720 -2.9789  2.5357 -0.1761
 7746SOL     OW23618   6.015   5.795   1.255 -0.2570 -0.1690 -0.2949
 7746SOL    HW123619   6.097   5.780   1.301  0.0705 -1.2199 -1.1845
 7746SOL    HW223620   6.009   5.890   1.245  0.4543 -0.0397  0.4757
 7747SOL     OW23621   0.140   1.932   3.060  0.3670  0.3963  0.2311
 7747SOL    HW123622   0.071   1.892   3.007  1.4967 -2.3602  0.7678
 7747SOL    HW223623   0.105   1.930   3.149  0.2899  0.9760  0.2193
 7748SOL     OW23624   0.226   4.703   6.241 -0.1951  0.6402  0.2216
 7748SOL    HW123625   0.242   4.769   6.173  1.2652 -0.2584 -0.3481
 7748SOL    HW223626   0.138   4.721   6.272 -1.6634 -0.0693 -3.2262
 7749SOL     OW23627   1.987   1.301   4.899  0.5800 -0.4376  0.5671
 7749SOL    HW123628   1.912   1.240   4.902  0.3931 -0.1720  1.3005
 7749SOL    HW223629   2.020   1.303   4.988  1.5626 -0.6609  0.2109
 7750SOL     OW23630   5.063   4.902   1.800  0.1496  0.1665  0.8043
 7750SOL    HW123631   4.969   4.909   1.782 -0.2556  0.0378  2.7910
 7750SOL    HW223632   5.098   4.854   1.725 -1.5139 -0.5729  0.4787
 7751SOL     OW23633   5.978   5.703   2.707  0.0664 -0.5186  0.0341
 7751SOL    HW123634   6.010   5.779   2.755  2.9979 -1.6633 -0.0168
 7751SOL    HW223635   5.889   5.689   2.741 -0.0784  2.1785  0.8790
 7752SOL     OW23636   6.292   4.409   5.121 -0.1569 -0.0125 -0.4368
 7752SOL    HW123637   6.262   4.379   5.207  2.5342 -0.0483  0.5504
 7752SOL    HW223638   6.279   4.503   5.121  1.0751  0.1768  0.5836
 7753SOL     OW23639   0.581   3.374   2.422  0.3194  0.3111  0.1414
 7753SOL    HW123640   0.606   3.318   2.496  0.5733 -1.1948 -1.0714
 7753SOL    HW223641   0.646   3.445   2.423  0.9310 -0.2545  0.7371
 7754SOL     OW23642   1.974   6.141   5.482 -0.9464 -0.0379 -0.3450
 7754SOL    HW123643   2.001   6.099   5.401 -1.4201  0.0109 -0.5336
 7754SOL    HW223644   2.024   6.222   5.486  1.0041 -1.2646  0.7109
 7755SOL     OW23645   6.341   4.976   5.846  0.4744  0.1884 -0.5893
 7755SOL    HW123646   6.317   5.023   5.926 -2.3465 -2.2359  0.0610
 7755SOL    HW223647   6.424   5.015   5.819 -0.3555  3.5678  1.4703
 7756SOL     OW23648   4.543   3.115   1.146  0.0253  0.7388 -0.6378
 7756SOL    HW123649   4.449   3.100   1.144 -0.1700  1.6880  1.0576
 7756SOL    HW223650   4.574   3.081   1.062 -1.8531  0.6555 -1.3163
 7757SOL     OW23651   6.337   5.305   3.739 -0.0273  0.1850  0.0777
 7757SOL    HW123652   6.396   5.247   3.787 -0.3608 -0.0423  0.2200
 7757SOL    HW223653   6.355   5.392   3.775  1.3772  0.3675 -1.0409
 7758SOL     OW23654   2.336   3.753   3.151  0.3743  0.0622 -0.5853
 7758SOL    HW123655   2.396   3.697   3.201  0.0253  0.3011  0.1121
 7758SOL    HW223656   2.262   3.765   3.209  0.3421  1.0615 -0.8333
 7759SOL     OW23657   3.878   4.536   0.823 -0.3625  0.1504  0.8812
 7759SOL    HW123658   3.822   4.460   0.806 -1.1349  0.8056  0.4484
 7759SOL    HW223659   3.849   4.569   0.908 -0.3017  0.2013  0.8823
 7760SOL     OW23660   2.920   5.553   5.758 -0.0970  0.0555  0.0759
 7760SOL    HW123661   2.970   5.575   5.837 -0.9921  0.5441  0.5236
 7760SOL    HW223662   2.844   5.504   5.791 -0.0002 -0.5333 -0.5726
 7761SOL     OW23663   0.879   3.292   2.163  0.2178  0.1637  0.0767
 7761SOL    HW123664   0.916   3.373   2.200 -1.0340  0.2916  1.0892
 7761SOL    HW223665   0.837   3.320   2.082 -1.8806  0.9249  1.3594
 7762SOL     OW23666   4.853   4.529   0.851  0.4863  0.0673  0.3034
 7762SOL    HW123667   4.894   4.613   0.832  1.8618 -0.7518 -0.4353
 7762SOL    HW223668   4.913   4.486   0.912  0.5846 -1.0224 -0.5382
 7763SOL     OW23669   6.131   2.988   2.366  0.3497  0.0641 -0.5347
 7763SOL    HW123670   6.206   2.963   2.420  0.4208  0.7392 -0.3090
 7763SOL    HW223671   6.064   3.012   2.430  0.7405  1.7742 -0.7355
 7764SOL     OW23672   6.350   3.633   4.865 -0.3004  0.6037  0.6083
 7764SOL    HW123673   6.289   3.578   4.816  0.4623  0.4573 -0.1852
 7764SOL    HW223674   6.294   3.684   4.924 -1.1854  0.4443 -0.0810
 7765SOL     OW23675   1.665   1.700   1.256 -0.0264 -0.1893  0.3641
 7765SOL    HW123676   1.676   1.687   1.350  0.3122  1.6759  0.6082
 7765SOL    HW223677   1.669   1.795   1.245 -0.3258 -0.3812 -1.5040
 7766SOL     OW23678   1.447   3.068   0.781  0.5316  0.1658  0.3723
 7766SOL    HW123679   1.429   3.146   0.834 -0.4118 -0.2210  0.6411
 7766SOL    HW223680   1.387   3.076   0.706  2.8584  1.4531 -1.4483
 7767SOL     OW23681   4.714   5.249   3.375 -0.3885 -0.2435 -0.0730
 7767SOL    HW123682   4.791   5.219   3.423 -0.0344  1.4690  0.4475
 7767SOL    HW223683   4.746   5.319   3.318 -1.2863 -0.5229 -0.9379
 7768SOL     OW23684   2.447   0.497   5.109 -0.2181 -0.0898 -0.3531
 7768SOL    HW123685   2.363   0.539   5.130  1.2426  1.7954  1.8538
 7768SOL    HW223686   2.486   0.476   5.193  2.3297  0.6507 -1.2944
 7769SOL     OW23687   0.121   5.150   3.857  0.7980  0.6673  0.3977
 7769SOL    HW123688   0.126   5.055   3.874 -0.6337  0.7348  1.3373
 7769SOL    HW223689   0.202   5.171   3.811  1.0875 -1.0380  0.1010
 7770SOL     OW23690   2.119   0.756   4.688 -0.1741  0.0945  0.3681
 7770SOL    HW123691   2.141   0.738   4.596  0.3267 -1.5252  0.7813
 7770SOL    HW223692   2.201   0.787   4.726  0.0480 -0.8341  0.6548
 7771SOL     OW23693   3.086   3.623   0.585  0.5141  0.1150  0.3635
 7771SOL    HW123694   3.178   3.629   0.557 -0.0636  0.3369 -1.5253
 7771SOL    HW223695   3.083   3.544   0.639  1.5378 -0.6789 -0.7015
 7772SOL     OW23696   0.466   1.134   5.036 -0.5897 -0.3940  0.0686
 7772SOL    HW123697   0.452   1.199   5.105  0.7539 -0.4055  0.3731
 7772SOL    HW223698   0.387   1.080   5.037 -0.4532 -0.5941  1.8142
 7773SOL     OW23699   2.298   4.698   3.174  0.1762  0.1619  0.9165
 7773SOL    HW123700   2.339   4.778   3.140  1.6620 -1.1335 -0.4339
 7773SOL    HW223701   2.361   4.663   3.237  0.4446 -0.9772  0.0355
 7774SOL     OW23702   4.346   5.758   5.096 -0.1129  0.4020  0.2886
 7774SOL    HW123703   4.390   5.688   5.048  1.7696  1.5218  0.3247
 7774SOL    HW223704   4.301   5.714   5.168 -0.0039 -0.8958 -0.4289
 7775SOL     OW23705   1.132   6.349   2.819  0.1006  0.2874 -0.2921
 7775SOL    HW123706   1.077   6.357   2.897 -2.0699 -0.5969 -1.6827
 7775SOL    HW223707   1.161   6.258   2.819  0.5977  0.4451 -0.1918
 7776SOL     OW23708   2.829   1.536   3.390 -0.0970 -0.5946  0.0992
 7776SOL    HW123709   2.819   1.529   3.485 -0.4849 -1.4609 -0.0045
 7776SOL    HW223710   2.800   1.452   3.356  0.8132 -0.5793 -0.7367
 7777SOL     OW23711   0.039   5.923   0.185  0.5419 -0.1243  0.0948
 7777SOL    HW123712   0.071   5.887   0.268 -0.5407 -0.9677  0.1553
 7777SOL    HW223713   0.046   5.850   0.123 -0.1774  0.0300 -0.1678
 7778SOL     OW23714   0.704   2.416   6.337 -0.0438 -0.3752 -0.4549
 7778SOL    HW123715   0.679   2.395   6.427  0.9090 -0.9761 -0.3293
 7778SOL    HW223716   0.670   2.342   6.285  0.0789 -0.4046 -0.4928
 7779SOL     OW23717   0.849   3.573   5.326  0.7504 -0.5105  0.3408
 7779SOL    HW123718   0.826   3.516   5.252  0.5739 -2.6655  2.0015
 7779SOL    HW223719   0.867   3.658   5.286 -3.4348 -0.4829 -1.7591
 7780SOL     OW23720   5.648   5.217   2.115  0.3844  0.2584  0.1477
 7780SOL    HW123721   5.700   5.172   2.182  1.0125  2.9164  1.4939
 7780SOL    HW223722   5.563   5.233   2.157  0.4216  1.0134 -0.0604
 7781SOL     OW23723   3.372   0.471   1.928  0.3555 -0.3124  0.7122
 7781SOL    HW123724   3.416   0.551   1.958 -1.4349  1.2871 -0.7905
 7781SOL    HW223725   3.301   0.457   1.991 -1.6162  1.4077 -1.0847
 7782SOL     OW23726   1.671   5.157   4.435  0.0294  0.1250  0.1349
 7782SOL    HW123727   1.575   5.156   4.438  0.0305 -0.2487  0.1245
 7782SOL    HW223728   1.694   5.074   4.393  0.3381  0.4964 -0.4393
 7783SOL     OW23729   0.943   1.192   1.114 -0.1086 -0.2571  0.2076
 7783SOL    HW123730   0.926   1.155   1.201 -0.0956 -0.3546  0.1687
 7783SOL    HW223731   0.905   1.128   1.053 -0.8319  0.1980  0.1657
 7784SOL     OW23732   4.222   6.120   2.785 -0.1031  0.5633 -0.5356
 7784SOL    HW123733   4.172   6.066   2.723  0.1383  1.9741 -2.0077
 7784SOL    HW223734   4.305   6.075   2.795  0.2509  0.8604 -2.0625
 7785SOL     OW23735   5.660   3.859   1.100  0.3373  0.3550  0.0123
 7785SOL    HW123736   5.651   3.954   1.111 -1.3530  0.1795  0.2948
 7785SOL    HW223737   5.745   3.848   1.056  0.3406  2.0164 -0.4511
 7786SOL     OW23738   1.271   4.539   2.350  0.3704 -0.1202 -0.0187
 7786SOL    HW123739   1.238   4.568   2.435 -0.0316 -2.1640  0.5269
 7786SOL    HW223740   1.205   4.569   2.287 -0.0293  0.1535  0.5254
 7787SOL     OW23741   2.330   3.637   2.282 -0.4564  0.8128 -0.4599
 7787SOL    HW123742   2.366   3.713   2.329 -0.5193  0.2193  0.5595
 7787SOL    HW223743   2.405   3.600   2.236 -0.0034  0.3125  0.6618
 7788SOL     OW23744   6.235   0.163   2.373 -0.7374  0.1886 -0.1286
 7788SOL    HW123745   6.280   0.212   2.304 -0.5882 -1.3477 -1.1620
 7788SOL    HW223746   6.180   0.101   2.325 -0.6951 -0.8381  1.1428
 7789SOL     OW23747   4.821   2.050   3.119 -0.6938 -0.1493  0.3167
 7789SOL    HW123748   4.891   2.099   3.162 -0.1882 -0.8223  0.2701
 7789SOL    HW223749   4.851   1.959   3.121  0.6050  0.0789 -3.8446
 7790SOL     OW23750   5.039   3.247   0.457  0.1363  0.2569 -0.3104
 7790SOL    HW123751   5.087   3.230   0.538 -0.6188 -1.4774 -0.2098
 7790SOL    HW223752   4.968   3.183   0.457 -2.3159  2.8798 -0.3679
 7791SOL     OW23753   5.475   1.874   1.371 -0.6382  0.1051  0.4099
 7791SOL    HW123754   5.446   1.958   1.336 -1.4672 -0.6089 -0.6486
 7791SOL    HW223755   5.537   1.841   1.306  0.7988  0.5271  1.5135
 7792SOL     OW23756   2.120   2.528   3.530  0.3886  0.6048  0.0767
 7792SOL    HW123757   2.102   2.586   3.456 -1.6147 -0.6868 -0.4806
 7792SOL    HW223758   2.103   2.582   3.607 -1.6965  0.7294 -0.4419
 7793SOL     OW23759   4.423   1.170   2.142 -0.1075  0.3698  0.1348
 7793SOL    HW123760   4.340   1.198   2.180 -1.2903 -0.2875 -1.9120
 7793SOL    HW223761   4.436   1.081   2.173  1.1915  1.3690  2.6096
 7794SOL     OW23762   5.625   5.125   2.696  0.5836  0.0431 -0.0878
 7794SOL    HW123763   5.675   5.083   2.767  0.3820  0.6543  0.4188
 7794SOL    HW223764   5.690   5.145   2.629  0.7147 -0.9142 -0.2599
 7795SOL     OW23765   0.853   2.592   5.514  0.1400  0.4850  0.0602
 7795SOL    HW123766   0.758   2.601   5.517  0.1348  0.2096  0.7494
 7795SOL    HW223767   0.868   2.507   5.472  0.0586  0.0128  0.9698
 7796SOL     OW23768   1.181   0.561   2.195  0.2671  0.0658 -0.3158
 7796SOL    HW123769   1.251   0.626   2.194  1.4699 -1.0661  3.5313
 7796SOL    HW223770   1.127   0.585   2.270 -0.9850 -1.6798 -0.6307
 7797SOL     OW23771   2.247   0.418   1.043  0.0613 -0.2145 -0.2344
 7797SOL    HW123772   2.270   0.346   1.102 -0.4805 -1.1844 -1.1860
 7797SOL    HW223773   2.331   0.449   1.009  0.1750 -2.0093 -1.6801
 7798SOL     OW23774   0.967   4.499   3.067 -0.3004  0.7276 -0.0990
 7798SOL    HW123775   0.906   4.433   3.099  0.0641  0.8227  0.7956
 7798SOL    HW223776   0.923   4.537   2.990 -0.5211 -0.5148 -0.5969
 7799SOL     OW23777   0.483   0.621   1.372  0.7241  0.4386  0.0875
 7799SOL    HW123778   0.502   0.570   1.293 -1.7002 -1.2799  0.5949
 7799SOL    HW223779   0.499   0.561   1.444  1.6093  1.6002  0.8763
 7800SOL     OW23780   1.241   2.991   2.644  0.0089 -0.5097 -0.4030
 7800SOL    HW123781   1.250   2.895   2.642  1.8469 -0.3204 -1.9000
 7800SOL    HW223782   1.226   3.011   2.736  0.8478 -2.1435  0.1135
 7801SOL     OW23783   4.155   1.827   2.654 -0.1784  0.1783  0.5935
 7801SOL    HW123784   4.068   1.809   2.688 -0.6986  1.6755  0.0842
 7801SOL    HW223785   4.140   1.862   2.566  0.9131  0.7559  0.6271
 7802SOL     OW23786   1.019   1.995   1.678 -0.4223  0.1242  0.5644
 7802SOL    HW123787   1.005   1.979   1.771  0.1421 -0.8222  0.4840
 7802SOL    HW223788   1.029   1.909   1.639 -0.4495  0.5234 -0.3502
 7803SOL     OW23789   0.508   3.597   3.420 -0.9856  0.9832  0.3389
 7803SOL    HW123790   0.542   3.678   3.457  2.0287  0.0402 -0.2356
 7803SOL    HW223791   0.457   3.558   3.490  0.6157  1.6028  1.8770
 7804SOL     OW23792   2.049   3.035   2.358  0.1237  0.5421  0.0913
 7804SOL    HW123793   2.024   3.017   2.268 -1.1806  0.1048  0.5259
 7804SOL    HW223794   2.116   3.103   2.351 -2.2136  2.8699 -1.0961
 7805SOL     OW23795   0.781   3.131   3.542  0.1509 -0.1382 -0.0233
 7805SOL    HW123796   0.784   3.066   3.612 -2.0800 -0.6805 -0.3895
 7805SOL    HW223797   0.763   3.213   3.587  1.2897 -0.0395  0.2731
 7806SOL     OW23798   4.243   3.247   4.833 -0.0153  0.0625 -0.2852
 7806SOL    HW123799   4.326   3.203   4.852  0.5017  0.9824 -0.4042
 7806SOL    HW223800   4.240   3.321   4.893 -0.2503  0.6570 -1.0240
 7807SOL     OW23801   3.630   6.290   3.398  0.0689 -0.6571 -0.0377
 7807SOL    HW123802   3.559   6.305   3.461 -0.5537  0.9269 -1.0879
 7807SOL    HW223803   3.596   6.222   3.340 -0.4873 -0.1122 -0.3583
 7808SOL     OW23804   0.476   3.274   1.826 -0.0021  0.2801 -0.0188
 7808SOL    HW123805   0.520   3.197   1.791 -0.9406 -0.9874  1.5386
 7808SOL    HW223806   0.465   3.332   1.750  0.4282 -1.2521 -1.2735
 7809SOL     OW23807   0.601   0.448   1.182 -0.1660  0.4867  0.0681
 7809SOL    HW123808   0.661   0.503   1.131  1.3976 -0.1972  1.1237
 7809SOL    HW223809   0.580   0.375   1.124  0.1177  0.6694 -0.2658
 7810SOL     OW23810   4.016   5.785   6.259  0.0372  0.1991 -0.3274
 7810SOL    HW123811   4.081   5.838   6.306  2.0684 -1.3500 -1.3249
 7810SOL    HW223812   4.000   5.833   6.178  0.2084  0.4121 -0.2350
 7811SOL     OW23813   4.459   1.052   4.521  0.0123 -0.2762 -0.7530
 7811SOL    HW123814   4.522   1.089   4.583 -1.4555  0.2241  0.5014
 7811SOL    HW223815   4.484   0.960   4.512  0.2814 -0.3399  0.5457
 7812SOL     OW23816   6.094   4.889   0.416  0.0586  0.4470  0.2050
 7812SOL    HW123817   6.087   4.822   0.484 -0.4887  0.4514  0.1560
 7812SOL    HW223818   6.129   4.842   0.340  1.5497  0.6364  0.7571
 7813SOL     OW23819   2.791   2.573   1.267 -0.3256 -0.5273 -0.0912
 7813SOL    HW123820   2.815   2.527   1.187 -0.4434  1.1862 -1.1506
 7813SOL    HW223821   2.858   2.547   1.331  3.0609  2.2650 -2.2886
 7814SOL     OW23822   4.919   1.563   1.130 -0.4718  0.7521 -1.0871
 7814SOL    HW123823   4.838   1.513   1.118 -0.1537  0.3585 -1.6114
 7814SOL    HW223824   4.973   1.507   1.185 -0.6863  1.1665 -0.4485
 7815SOL     OW23825   0.430   1.754   4.097  0.4432  0.7645 -0.0342
 7815SOL    HW123826   0.403   1.833   4.144 -2.0828 -0.3341  0.4300
 7815SOL    HW223827   0.385   1.683   4.142  0.7110 -0.6682 -1.9843
 7816SOL     OW23828   4.631   4.664   0.686 -0.2765 -0.2831  0.1683
 7816SOL    HW123829   4.624   4.750   0.728  0.0881 -0.1559 -0.0307
 7816SOL    HW223830   4.649   4.684   0.594 -1.6798 -0.5458 -0.1768
 7817SOL     OW23831   0.936   3.921   2.401  0.0716 -0.2452 -0.5732
 7817SOL    HW123832   0.989   3.900   2.324 -1.1617  1.7308 -2.0220
 7817SOL    HW223833   0.846   3.924   2.368 -0.7173 -1.4123  1.3990
 7818SOL     OW23834   0.977   5.757   5.498 -0.0139  0.0593 -0.5502
 7818SOL    HW123835   0.954   5.812   5.573 -0.1688  1.8554 -1.8973
 7818SOL    HW223836   0.911   5.687   5.499 -1.3156  1.2595 -0.2605
 7819SOL     OW23837   5.227   4.098   0.308 -0.2600  0.5752  0.0455
 7819SOL    HW123838   5.315   4.117   0.342  0.1570 -1.3780  0.1537
 7819SOL    HW223839   5.242   4.074   0.217 -0.7123  0.4400  0.0097
 7820SOL     OW23840   5.029   1.881   1.623 -0.4907  0.1727  0.3815
 7820SOL    HW123841   5.056   1.866   1.532  0.3464 -2.6341  1.0349
 7820SOL    HW223842   4.954   1.822   1.634  0.4084 -0.6946  1.9546
 7821SOL     OW23843   1.156   3.844   3.998  0.3986  0.2721 -0.2261
 7821SOL    HW123844   1.239   3.847   3.952  0.0379  0.3249 -0.8773
 7821SOL    HW223845   1.178   3.860   4.090  1.3798 -1.8433 -0.0517
 7822SOL     OW23846   1.016   3.363   5.103  0.8283 -0.1894  0.0014
 7822SOL    HW123847   0.955   3.298   5.068 -1.3315  0.6771  2.0199
 7822SOL    HW223848   1.045   3.327   5.187  2.6040 -0.2751 -0.6263
 7823SOL     OW23849   2.797   1.446   4.907 -0.1112  0.2753 -0.8471
 7823SOL    HW123850   2.841   1.527   4.881  1.0236  0.0334  0.2673
 7823SOL    HW223851   2.737   1.427   4.834  0.1657  1.6931 -1.4666
 7824SOL     OW23852   2.085   6.097   4.131  0.3452 -0.0123  0.0096
 7824SOL    HW123853   2.058   6.117   4.041 -0.0412  0.6728  0.2792
 7824SOL    HW223854   2.175   6.130   4.137  1.2061 -2.0758 -0.8107
 7825SOL     OW23855   5.571   3.855   5.997 -0.0394 -0.2656  0.4356
 7825SOL    HW123856   5.626   3.933   6.004 -0.0532 -0.2129 -0.0275
 7825SOL    HW223857   5.493   3.885   5.951 -0.3659 -0.3866  0.9127
 7826SOL     OW23858   3.727   1.225   6.205  0.4326  0.1650 -0.4128
 7826SOL    HW123859   3.644   1.198   6.245  0.2394  1.0407 -0.2259
 7826SOL    HW223860   3.794   1.197   6.267  0.3506 -1.4176 -1.0163
 7827SOL     OW23861   0.227   4.277   0.483 -0.4998 -0.1751  0.0138
 7827SOL    HW123862   0.323   4.279   0.477 -0.5499 -0.7173 -1.1893
 7827SOL    HW223863   0.204   4.364   0.515  0.3514  0.2807 -0.5606
 7828SOL     OW23864   5.623   2.164   2.424  0.2330 -0.0257  0.2430
 7828SOL    HW123865   5.666   2.189   2.342  0.9482  0.0599  0.6398
 7828SOL    HW223866   5.629   2.069   2.426  1.2380  0.0428  0.7436
 7829SOL     OW23867   5.286   4.434   6.293 -0.2882  0.9776  0.0839
 7829SOL    HW123868   5.260   4.524   6.314 -0.2132  1.1864 -0.7295
 7829SOL    HW223869   5.372   4.443   6.252 -0.1119  0.5007  0.3463
 7830SOL     OW23870   2.127   1.930   1.328  0.3230 -0.4772 -0.2135
 7830SOL    HW123871   2.171   1.976   1.400  0.9132  0.7760 -1.3507
 7830SOL    HW223872   2.074   1.863   1.371 -1.0028  1.6266  1.5304
 7831SOL     OW23873   1.087   0.254   4.393 -0.0768  0.4970  0.2018
 7831SOL    HW123874   1.005   0.302   4.382 -1.7220 -2.1235  0.4867
 7831SOL    HW223875   1.061   0.171   4.435  2.7580 -0.2457  0.6243
 7832SOL     OW23876   0.867   5.693   1.456  0.1430 -0.0032  0.3966
 7832SOL    HW123877   0.807   5.638   1.506  0.8560 -0.3658  0.8622
 7832SOL    HW223878   0.916   5.631   1.402 -1.1957  0.4552 -1.3811
 7833SOL     OW23879   2.104   2.794   0.173 -0.0390 -0.0957  0.2389
 7833SOL    HW123880   2.192   2.830   0.157  0.5354 -1.4585  0.3043
 7833SOL    HW223881   2.119   2.716   0.227 -1.2982 -0.3104  0.2887
 7834SOL     OW23882   1.769   0.012   6.342 -0.1681 -0.3397  0.1110
 7834SOL    HW123883   1.730   0.037   6.259  0.5186 -2.0666 -0.7502
 7834SOL    HW223884   1.863   0.003   6.324  0.0259 -0.4665  1.1188
 7835SOL     OW23885   4.247   4.057   0.782  0.9708  1.3008 -0.3125
 7835SOL    HW123886   4.234   4.007   0.702  2.0380 -0.4370  0.5744
 7835SOL    HW223887   4.177   4.028   0.840 -0.4201  3.2965 -0.9269
 7836SOL     OW23888   2.299   5.752   4.930  0.2640 -0.0745  0.6275
 7836SOL    HW123889   2.360   5.691   4.971 -1.4613 -0.4906  2.6513
 7836SOL    HW223890   2.337   5.838   4.948  0.3173 -0.3311  1.7896
 7837SOL     OW23891   0.946   5.330   4.766  0.8157  0.1094 -0.8872
 7837SOL    HW123892   0.973   5.400   4.826 -0.6999 -0.5311  0.5743
 7837SOL    HW223893   0.963   5.366   4.679  2.9627  1.0890 -0.0882
 7838SOL     OW23894   0.716   2.802   3.478 -0.0000  0.0745 -0.3272
 7838SOL    HW123895   0.676   2.806   3.565  1.4222 -1.2117  0.4014
 7838SOL    HW223896   0.657   2.746   3.427 -0.2691 -0.0529  0.1203
 7839SOL     OW23897   2.525   0.955   2.973  0.4960  0.2058  0.1723
 7839SOL    HW123898   2.458   0.903   2.929  0.8458  1.0405 -1.4138
 7839SOL    HW223899   2.490   0.972   3.060 -0.9276 -0.1546 -0.3210
 7840SOL     OW23900   4.931   5.949   4.520  0.1041  0.0528  0.5552
 7840SOL    HW123901   5.003   5.928   4.459 -1.1545 -0.8792 -0.6427
 7840SOL    HW223902   4.949   5.896   4.597  0.0607 -1.1270 -0.2225
 7841SOL     OW23903   2.850   0.296   0.629  0.3402 -0.0397  0.4196
 7841SOL    HW123904   2.935   0.293   0.672 -0.4553  1.2304  2.1964
 7841SOL    HW223905   2.790   0.256   0.692 -0.6095  0.4355 -0.1669
 7842SOL     OW23906   1.938   5.223   4.472  0.0471 -0.3005 -0.5375
 7842SOL    HW123907   1.848   5.216   4.441  0.1412 -0.4893 -0.7679
 7842SOL    HW223908   1.973   5.135   4.464  0.1913 -0.2685 -0.2590
 7843SOL     OW23909   1.474   1.323   5.190 -0.2452 -0.6080  0.1715
 7843SOL    HW123910   1.540   1.308   5.258 -0.7310 -1.7951  0.3956
 7843SOL    HW223911   1.399   1.358   5.237  0.3246  1.0475 -0.1286
 7844SOL     OW23912   2.179   2.060   4.214  0.4342 -0.1511 -0.3740
 7844SOL    HW123913   2.103   2.002   4.214  0.6127 -0.4524 -2.8532
 7844SOL    HW223914   2.142   2.147   4.198  0.6844 -0.4901 -3.0187
 7845SOL     OW23915   0.709   5.192   3.916  0.3349  0.0423  0.0512
 7845SOL    HW123916   0.773   5.151   3.858  2.5088  0.2425  2.2393
 7845SOL    HW223917   0.630   5.139   3.905  1.1897 -0.8662 -1.8967
 7846SOL     OW23918   3.796   3.842   3.927 -0.2475  0.0192  0.6402
 7846SOL    HW123919   3.746   3.923   3.931  0.6374  0.5495  1.3262
 7846SOL    HW223920   3.731   3.774   3.911 -0.7293  1.1357 -2.6504
 7847SOL     OW23921   3.454   0.385   1.033  0.0719  0.0814  0.1441
 7847SOL    HW123922   3.471   0.408   1.124 -0.3437 -1.6049  0.6660
 7847SOL    HW223923   3.517   0.436   0.983 -0.5107  1.9537  1.2754
 7848SOL     OW23924   3.300   0.580   3.465 -0.1842 -0.1433 -0.0930
 7848SOL    HW123925   3.242   0.638   3.415 -0.6126  0.7555  1.3959
 7848SOL    HW223926   3.388   0.610   3.444 -0.3709  0.3810 -0.1416
 7849SOL     OW23927   5.668   4.184   4.243 -0.1273  0.9064  0.9935
 7849SOL    HW123928   5.609   4.174   4.168  1.3268  1.1287 -0.2126
 7849SOL    HW223929   5.756   4.186   4.204  0.7212  0.0662  2.7914
 7850SOL     OW23930   2.780   1.078   1.547 -0.0170 -0.0059 -0.1900
 7850SOL    HW123931   2.729   1.003   1.516 -0.6332 -0.4471  1.8036
 7850SOL    HW223932   2.870   1.046   1.553 -0.3670 -0.7553  1.1606
 7851SOL     OW23933   3.221   0.990   6.168 -0.2729  0.8071 -0.7874
 7851SOL    HW123934   3.173   0.910   6.190  3.0669 -1.6190 -1.9693
 7851SOL    HW223935   3.225   0.990   6.073  1.1148  1.5382 -0.7386
 7852SOL     OW23936   5.225   4.646   5.431 -0.1239 -0.3629  0.6075
 7852SOL    HW123937   5.214   4.667   5.339  1.0053  0.3290  0.6301
 7852SOL    HW223938   5.317   4.664   5.450 -0.0855 -1.5221  1.6055
 7853SOL     OW23939   2.808   0.009   4.520 -0.3017  0.4955 -0.3368
 7853SOL    HW123940   2.853  -0.075   4.530  0.4327  0.9495  0.1460
 7853SOL    HW223941   2.752   0.016   4.597 -0.5654  0.3315 -0.5110
 7854SOL     OW23942   4.386   6.263   2.261  0.3414 -0.1670  0.8182
 7854SOL    HW123943   4.432   6.235   2.341  0.9410  0.1376  0.5793
 7854SOL    HW223944   4.294   6.266   2.287  0.6091  0.6473  1.7125
 7855SOL     OW23945   2.465   0.072   4.934  0.2647 -0.1644  0.0003
 7855SOL    HW123946   2.411   0.143   4.967  1.2906  0.1329  1.0783
 7855SOL    HW223947   2.524   0.050   5.007 -0.4502 -2.5400 -0.0767
 7856SOL     OW23948   5.691   0.296   0.774  0.3101  0.4635  0.5191
 7856SOL    HW123949   5.626   0.226   0.787  0.0856  0.7965  1.1877
 7856SOL    HW223950   5.671   0.360   0.841  0.9958  0.8276  0.3777
 7857SOL     OW23951   2.421   2.464   1.643 -0.2867  0.0906 -0.0570
 7857SOL    HW123952   2.472   2.413   1.580  1.0789  1.4797 -0.1134
 7857SOL    HW223953   2.354   2.404   1.675  0.2347 -1.2071 -1.3886
 7858SOL     OW23954   1.084   1.434   1.625 -0.2476  0.2258  0.0683
 7858SOL    HW123955   1.046   1.350   1.652  0.5788 -1.0446 -2.5499
 7858SOL    HW223956   1.154   1.410   1.565  0.4859  2.7945 -0.1387
 7859SOL     OW23957   1.541   0.576   5.529 -0.2400  0.2059  0.6978
 7859SOL    HW123958   1.622   0.538   5.563  0.1882  0.9354  0.5130
 7859SOL    HW223959   1.571   0.651   5.476 -0.8724 -0.9621 -1.3462
 7860SOL     OW23960   4.530   4.485   0.884  0.1680  0.0757  0.0395
 7860SOL    HW123961   4.538   4.472   0.978  1.0953  1.0994  0.1131
 7860SOL    HW223962   4.465   4.555   0.874 -1.1989 -1.1862 -0.1657
 7861SOL     OW23963   1.944   2.890   3.771 -0.0881  0.2501  0.1841
 7861SOL    HW123964   1.924   2.918   3.682 -0.7499 -0.3952  0.1228
 7861SOL    HW223965   1.890   2.945   3.827  0.7937  1.0814  0.2232
 7862SOL     OW23966   0.014   3.007   4.488 -0.6230 -0.5759  0.0477
 7862SOL    HW123967   0.006   2.912   4.503  1.3399 -0.6251  0.9572
 7862SOL    HW223968   0.072   3.037   4.557 -0.4626  1.1406 -0.8111
 7863SOL     OW23969   0.268   1.277   0.904 -0.4307 -0.1033  0.4849
 7863SOL    HW123970   0.181   1.245   0.880 -0.8925  0.7258  1.0365
 7863SOL    HW223971   0.317   1.277   0.822 -0.1950 -2.8858  0.5800
 7864SOL     OW23972   5.327   1.871   2.368 -0.0001 -0.4586  0.0754
 7864SOL    HW123973   5.288   1.955   2.345  1.7287  0.4562  0.3955
 7864SOL    HW223974   5.327   1.870   2.464 -2.4895 -2.0341  0.1189
 7865SOL     OW23975   2.951   2.027   1.629 -0.6285 -0.1831 -0.3341
 7865SOL    HW123976   3.019   2.019   1.563 -0.6948  0.9721 -0.5507
 7865SOL    HW223977   2.967   2.112   1.670 -0.6135 -0.8587  1.1092
 7866SOL     OW23978   4.218   6.339   5.988  0.3186 -0.3071  0.1412
 7866SOL    HW123979   4.170   6.328   5.906  1.4184 -1.3003 -0.4014
 7866SOL    HW223980   4.156   6.314   6.056 -0.3158 -0.3636 -0.4522
 7867SOL     OW23981   2.921   0.670   2.758  0.1799  0.1995 -0.2003
 7867SOL    HW123982   2.863   0.678   2.835  1.3342  1.7383  0.5343
 7867SOL    HW223983   3.001   0.717   2.783  1.0424 -0.3156 -1.9047
 7868SOL     OW23984   6.270   2.973   1.392 -0.6479 -0.1758 -0.0244
 7868SOL    HW123985   6.220   2.934   1.464  2.1744 -2.9010  0.5887
 7868SOL    HW223986   6.291   2.899   1.335 -0.1631  1.4576 -2.0058
 7869SOL     OW23987   3.623   5.189   4.300  0.3284  0.3061  0.2144
 7869SOL    HW123988   3.605   5.132   4.375  0.6447 -0.3742 -0.2220
 7869SOL    HW223989   3.569   5.266   4.315 -0.1344 -0.1280  0.7910
 7870SOL     OW23990   5.239   1.729   3.839  0.2814  0.3665 -0.2919
 7870SOL    HW123991   5.207   1.727   3.929 -0.6382 -2.3435 -0.6287
 7870SOL    HW223992   5.322   1.777   3.844  1.0671 -1.1436  2.2809
 7871SOL     OW23993   3.413   0.967   4.515 -0.0109  0.5066  0.4687
 7871SOL    HW123994   3.345   1.026   4.546  0.5684  1.5062 -0.1285
 7871SOL    HW223995   3.403   0.965   4.420 -0.6534 -1.1536  0.5415
 7872SOL     OW23996   2.204   3.528   6.079  0.2894  0.3370 -0.2977
 7872SOL    HW123997   2.205   3.501   5.988  0.8412 -1.0058  0.0986
 7872SOL    HW223998   2.186   3.448   6.128  0.4995  0.9502  0.7951
 7873SOL     OW23999   2.493   4.221   1.646 -0.1056  0.0786  0.1176
 7873SOL    HW124000   2.580   4.254   1.625  0.5495 -2.4526 -1.2914
 7873SOL    HW224001   2.498   4.197   1.739 -0.1231  2.3438  0.7365
 7874SOL     OW24002   2.683   2.661   4.930  0.3174 -0.5720  0.2787
 7874SOL    HW124003   2.662   2.569   4.914  1.4073 -0.6439 -0.8492
 7874SOL    HW224004   2.598   2.704   4.940 -0.2045 -1.6749  0.7082
 7875SOL     OW24005   5.165   6.240   5.052  0.1084  0.2528 -0.0403
 7875SOL    HW124006   5.079   6.255   5.014 -0.7149 -1.3033  1.1552
 7875SOL    HW224007   5.147   6.201   5.137  1.9630  1.5871  0.9921
 7876SOL     OW24008   4.137   5.946   4.027  0.1503 -0.7066 -0.1023
 7876SOL    HW124009   4.180   6.003   4.091  1.9033 -0.1445 -1.7661
 7876SOL    HW224010   4.063   5.909   4.076  1.2549 -0.0554  2.1681
 7877SOL     OW24011   4.605   6.255   5.335 -0.3336  0.1977 -0.2900
 7877SOL    HW124012   4.511   6.235   5.335 -0.5185  0.8521  2.5459
 7877SOL    HW224013   4.609   6.349   5.353  0.8818  0.0312  0.2963
 7878SOL     OW24014   0.668   4.003   2.328 -0.3321 -0.0895  0.2460
 7878SOL    HW124015   0.581   3.969   2.345 -1.2799  1.3573 -1.4474
 7878SOL    HW224016   0.666   4.093   2.362  0.0444  0.3993 -0.9832
 7879SOL     OW24017   3.092   4.107   5.869 -0.1366  0.1938  0.6120
 7879SOL    HW124018   3.085   4.200   5.849  0.5348  0.0956 -0.1240
 7879SOL    HW224019   3.180   4.097   5.906 -0.4964 -0.0172  1.4080
 7880SOL     OW24020   2.036   5.423   3.188  0.1243  0.0346  0.1149
 7880SOL    HW124021   2.109   5.387   3.238  0.0986 -0.9763 -0.5653
 7880SOL    HW224022   1.987   5.347   3.156  1.3112  0.5494 -3.1903
 7881SOL     OW24023   4.307   2.306   6.281  0.5158 -0.9860 -0.0755
 7881SOL    HW124024   4.314   2.224   6.330 -3.3912 -0.3239  1.7472
 7881SOL    HW224025   4.283   2.371   6.347  0.1856  0.9471 -2.0646
 7882SOL     OW24026   5.166   2.148   3.993  0.3284 -0.1785 -0.1213
 7882SOL    HW124027   5.213   2.227   4.019  0.0015 -0.6597  2.0376
 7882SOL    HW224028   5.116   2.173   3.916  3.2893  0.6335 -1.8311
 7883SOL     OW24029   4.015   4.160   2.717 -0.4416 -0.1664 -1.0774
 7883SOL    HW124030   3.922   4.141   2.704  0.0218 -2.5411 -1.1623
 7883SOL    HW224031   4.042   4.206   2.637 -0.8450 -2.2280 -2.4357
 7884SOL     OW24032   1.954   2.925   1.305  0.4013  0.2211 -0.5377
 7884SOL    HW124033   1.884   2.977   1.265  0.2980 -1.3820 -2.4894
 7884SOL    HW224034   1.912   2.882   1.380 -0.3534  0.3093 -0.9072
 7885SOL     OW24035   2.381   0.696   5.655 -0.0614  0.8450 -0.7515
 7885SOL    HW124036   2.415   0.772   5.703  0.1858 -1.0065  2.1441
 7885SOL    HW224037   2.287   0.694   5.677  0.8401 -2.5825  3.5489
 7886SOL     OW24038   4.152   6.135   3.382 -0.0167 -0.1897  0.3001
 7886SOL    HW124039   4.140   6.154   3.289  1.7208 -0.5023 -0.0098
 7886SOL    HW224040   4.080   6.076   3.404 -1.3933  1.1967 -0.4329
 7887SOL     OW24041   4.463   1.763   3.799  0.0626 -0.2335  0.7124
 7887SOL    HW124042   4.482   1.669   3.806  1.8722  0.0960  0.4669
 7887SOL    HW224043   4.477   1.784   3.707 -0.4608  0.2509  0.7410
 7888SOL     OW24044   0.857   4.420   6.287 -0.0346  0.0631  0.1147
 7888SOL    HW124045   0.816   4.389   6.206  0.8899 -0.5030 -0.1520
 7888SOL    HW224046   0.890   4.508   6.264  0.2503 -0.1074 -0.1440
 7889SOL     OW24047   5.594   0.217   0.405 -0.8682 -0.4913 -0.1843
 7889SOL    HW124048   5.602   0.193   0.313  2.4812  0.0912 -0.1204
 7889SOL    HW224049   5.590   0.133   0.451 -0.1890 -0.8142 -0.7058
 7890SOL     OW24050   1.374   2.014   0.391 -0.2615  0.2869 -0.1165
 7890SOL    HW124051   1.290   2.007   0.345 -0.7565 -2.8921  1.1555
 7890SOL    HW224052   1.429   1.946   0.352  1.0284  0.9069  0.5619
 7891SOL     OW24053   0.629   3.721   2.099 -0.3086  0.3230 -0.0058
 7891SOL    HW124054   0.662   3.707   2.187  0.8235 -1.7634 -0.7352
 7891SOL    HW224055   0.572   3.646   2.082  0.4479  0.0586 -1.4867
 7892SOL     OW24056   4.506   0.931   4.784 -0.5740 -0.3922 -0.4106
 7892SOL    HW124057   4.592   0.944   4.824 -0.4684 -0.1860 -0.7058
 7892SOL    HW224058   4.516   0.851   4.732 -1.3672 -1.9854  1.8231
 7893SOL     OW24059   6.007   2.834   5.806  0.8215  0.7466 -0.2322
 7893SOL    HW124060   5.957   2.850   5.726  0.9773  0.1353 -0.4531
 7893SOL    HW224061   6.062   2.912   5.815 -1.9246  2.5717  1.3637
 7894SOL     OW24062   3.313   1.811   0.876 -0.3755 -0.2020  0.0060
 7894SOL    HW124063   3.348   1.723   0.888 -0.2885 -0.2738 -0.7202
 7894SOL    HW224064   3.283   1.838   0.963 -1.3915 -1.3631  0.0338
 7895SOL     OW24065   6.137   5.096   4.276 -0.1504 -0.3545  0.1775
 7895SOL    HW124066   6.214   5.151   4.287 -1.2125  1.5048 -1.2293
 7895SOL    HW224067   6.171   5.008   4.260  1.7206  0.6565 -1.5370
 7896SOL     OW24068   1.749   2.240   0.240  0.3690  0.3681 -0.3536
 7896SOL    HW124069   1.755   2.290   0.321 -1.0576 -1.3902  0.8807
 7896SOL    HW224070   1.694   2.293   0.183 -0.0403  0.8103  0.4506
 7897SOL     OW24071   3.036   2.122   5.926 -0.3925  0.0278  0.1950
 7897SOL    HW124072   3.011   2.138   6.017  2.5585  1.2625  0.8504
 7897SOL    HW224073   2.965   2.161   5.875 -1.7889 -0.1472  1.9651
 7898SOL     OW24074   2.457   4.888   5.356 -0.0520 -0.1294 -0.4392
 7898SOL    HW124075   2.414   4.844   5.429  0.5841 -0.5587 -0.3122
 7898SOL    HW224076   2.523   4.825   5.325  1.0776  0.8419 -0.0631
 7899SOL     OW24077   0.715   5.194   4.480  0.5883  0.3411 -0.1638
 7899SOL    HW124078   0.688   5.219   4.392 -3.6358  0.5747  1.0776
 7899SOL    HW224079   0.698   5.272   4.533 -1.2771 -1.2177  1.6141
 7900SOL     OW24080   2.387   2.661   3.088  0.7243  0.5659 -0.0958
 7900SOL    HW124081   2.308   2.713   3.100 -0.8613 -1.3072 -1.9864
 7900SOL    HW224082   2.430   2.700   3.012 -0.3385 -0.6914 -1.3633
 7901SOL     OW24083   0.580   1.907   3.142  0.1222 -0.4634 -0.0640
 7901SOL    HW124084   0.579   1.840   3.210  0.9138  0.8892  1.3193
 7901SOL    HW224085   0.566   1.859   3.060 -2.6947 -1.9096  1.1935
 7902SOL     OW24086   5.668   0.699   1.860  0.3617 -0.4706 -0.4121
 7902SOL    HW124087   5.639   0.628   1.917  0.5129  1.5988  2.3728
 7902SOL    HW224088   5.749   0.730   1.901  0.9420  0.5344 -2.2631
 7903SOL     OW24089   2.231   1.110   2.591 -0.1348 -0.1426  0.4866
 7903SOL    HW124090   2.306   1.062   2.556  0.9088 -1.0366  3.7285
 7903SOL    HW224091   2.251   1.202   2.575  1.2319 -0.4315  0.4928
 7904SOL     OW24092   1.271   2.150   3.635  0.5593  0.1402 -0.3082
 7904SOL    HW124093   1.252   2.116   3.547 -1.5855 -0.8061  0.4875
 7904SOL    HW224094   1.218   2.230   3.641  0.7299  0.2195  0.1158
 7905SOL     OW24095   1.992   1.627   3.001  0.6894 -0.0211 -0.3070
 7905SOL    HW124096   2.004   1.594   3.090 -0.4368 -1.1090 -0.5313
 7905SOL    HW224097   1.920   1.689   3.009 -0.4249 -1.2324 -0.6881
 7906SOL     OW24098   1.792   0.273   0.167  0.4528 -0.0640  0.0169
 7906SOL    HW124099   1.699   0.251   0.173  0.2404  0.2973 -1.5949
 7906SOL    HW224100   1.838   0.191   0.188 -0.1939 -0.0017  1.7588
 7907SOL     OW24101   5.049   5.941   3.962 -0.0619  0.0898 -0.0591
 7907SOL    HW124102   5.109   6.014   3.950  1.3760 -0.7799  1.5384
 7907SOL    HW224103   5.106   5.865   3.972 -1.4582 -0.9097  0.5192
 7908SOL     OW24104   1.992   1.543   0.197  0.2924 -0.0588 -0.2127
 7908SOL    HW124105   2.012   1.528   0.289  1.2529 -0.8136 -0.5298
 7908SOL    HW224106   2.072   1.517   0.150  0.1077  1.0867 -1.1998
 7909SOL     OW24107   5.325   6.078   0.610 -0.4930 -0.1679 -0.0279
 7909SOL    HW124108   5.311   5.984   0.605 -0.3749 -0.3778  2.7450
 7909SOL    HW224109   5.383   6.098   0.537 -1.3737 -2.0595 -1.2730
 7910SOL     OW24110   4.336   5.085   2.240 -0.4098 -0.4948  0.4632
 7910SOL    HW124111   4.362   5.139   2.166 -3.2310 -0.1114 -0.3025
 7910SOL    HW224112   4.388   5.117   2.313  1.5845 -0.1218 -1.0907
 7911SOL     OW24113   6.179   3.785   5.007  0.1939  0.0451 -0.9343
 7911SOL    HW124114   6.150   3.724   5.075 -1.3557 -1.5918 -3.0237
 7911SOL    HW224115   6.120   3.860   5.015 -0.3710 -0.4063 -0.8930
 7912SOL     OW24116   5.582   5.813   2.578  0.1935  0.0127  0.0846
 7912SOL    HW124117   5.523   5.786   2.507 -0.6628  0.1767  0.7189
 7912SOL    HW224118   5.670   5.795   2.545 -0.2590 -1.4303 -0.4000
 7913SOL     OW24119   5.846   4.590   2.370  0.2756 -0.1234 -0.3603
 7913SOL    HW124120   5.798   4.573   2.290  0.7995 -0.5725 -0.5847
 7913SOL    HW224121   5.925   4.536   2.363  0.3608 -0.1115  0.4215
 7914SOL     OW24122   4.164   5.500   3.535 -0.1817 -0.0457 -0.1377
 7914SOL    HW124123   4.135   5.469   3.449  1.1894  0.3737 -0.7838
 7914SOL    HW224124   4.250   5.538   3.518 -0.0418  0.3470  1.3757
 7915SOL     OW24125   3.513   4.067   6.328 -0.2463  0.4359  0.1454
 7915SOL    HW124126   3.551   3.982   6.309 -0.4931  0.2729  0.3849
 7915SOL    HW224127   3.589   4.126   6.334 -0.0829  0.2470 -0.0789
 7916SOL     OW24128   1.388   3.682   5.282  0.4008 -0.0543 -0.4138
 7916SOL    HW124129   1.441   3.603   5.268 -1.0093 -1.1677  0.3614
 7916SOL    HW224130   1.308   3.665   5.232 -1.7085 -0.9933  3.1407
 7917SOL     OW24131   0.034   5.260   2.643 -0.4028  0.5820  0.7953
 7917SOL    HW124132   0.076   5.187   2.689 -1.1545 -0.6499 -0.4375
 7917SOL    HW224133  -0.058   5.235   2.638 -0.1746  0.1636 -2.3068
 7918SOL     OW24134   1.967   5.644   5.817 -0.2587 -0.0872  0.1508
 7918SOL    HW124135   1.884   5.647   5.864 -0.6956  0.9393 -0.6746
 7918SOL    HW224136   1.970   5.726   5.767  0.6930 -0.6617 -0.7659
 7919SOL     OW24137   0.297   5.616   4.299 -0.0565  0.2473  0.8732
 7919SOL    HW124138   0.238   5.556   4.254 -2.6408  0.2504  4.0513
 7919SOL    HW224139   0.338   5.564   4.368  2.1621  0.7496 -0.0245
 7920SOL     OW24140   6.005   3.048   1.995  0.5805  0.3160  0.8610
 7920SOL    HW124141   5.963   2.993   2.061  0.0593 -0.6041 -0.2202
 7920SOL    HW224142   6.090   3.070   2.034  0.1793  0.0022  1.9477
 7921SOL     OW24143   5.672   1.705   3.932 -0.2260 -0.0390 -0.1773
 7921SOL    HW124144   5.604   1.724   3.996  0.2685  1.3746 -0.0648
 7921SOL    HW224145   5.623   1.675   3.854 -0.8173 -1.8266  0.8474
 7922SOL     OW24146   4.088   3.249   1.997  0.4358  0.0189 -0.0735
 7922SOL    HW124147   4.033   3.326   2.012  0.0678 -0.0723 -0.9334
 7922SOL    HW224148   4.038   3.176   2.034 -0.0026 -0.0550 -0.8022
 7923SOL     OW24149   5.440   2.724   5.453  0.1599  0.1046  0.2108
 7923SOL    HW124150   5.389   2.803   5.467 -0.6475 -0.2182 -0.8941
 7923SOL    HW224151   5.517   2.753   5.404 -0.2072  0.1900 -0.3182
 7924SOL     OW24152   0.281   5.554   6.023 -0.2460 -0.0875  0.5136
 7924SOL    HW124153   0.286   5.482   6.086 -1.0646  0.3080  1.0422
 7924SOL    HW224154   0.352   5.537   5.961 -1.3755 -2.1793 -0.2524
 7925SOL     OW24155   3.564   0.733   4.962 -0.3593  0.4564 -0.0917
 7925SOL    HW124156   3.543   0.752   4.871  1.0554  1.0686 -0.2987
 7925SOL    HW224157   3.616   0.652   4.959  0.9909  1.3179  0.0363
 7926SOL     OW24158   4.033   3.268   4.659 -0.1862  0.2961  0.5321
 7926SOL    HW124159   4.100   3.243   4.722  0.1815  0.0142  0.0274
 7926SOL    HW224160   4.044   3.208   4.585 -0.2481  0.9878 -0.0537
 7927SOL     OW24161   2.470   1.476   4.285 -0.1836 -0.1259 -0.1559
 7927SOL    HW124162   2.414   1.490   4.362  0.6601 -0.7341  0.5736
 7927SOL    HW224163   2.492   1.564   4.256 -0.7818  0.1128  0.0883
 7928SOL     OW24164   1.247   4.528   5.768  0.1594 -0.2387  0.6290
 7928SOL    HW124165   1.204   4.608   5.796  0.2347 -1.1797  3.6923
 7928SOL    HW224166   1.187   4.458   5.794  1.3351 -1.3163  0.5007
 7929SOL     OW24167   1.302   4.429   1.954  0.6123  0.0515 -0.6162
 7929SOL    HW124168   1.284   4.340   1.983 -0.8524  0.6550  0.3717
 7929SOL    HW224169   1.229   4.452   1.897  0.6553  0.8478 -0.3593
 7930SOL     OW24170   0.540   1.606   5.082  0.4021  0.7083  0.0210
 7930SOL    HW124171   0.480   1.573   5.015  0.2446 -1.1617  1.0573
 7930SOL    HW224172   0.527   1.701   5.080  0.5637  0.7276 -2.7215
 7931SOL     OW24173   1.827   2.043   5.924  0.0684 -0.1942  0.1020
 7931SOL    HW124174   1.895   2.065   5.861 -0.3071 -0.1744 -0.3029
 7931SOL    HW224175   1.750   2.025   5.870 -0.1390 -0.6002  0.5329
 7932SOL     OW24176   2.485   2.268   6.344  0.5087 -0.2323 -0.2162
 7932SOL    HW124177   2.522   2.354   6.366  0.6050 -0.4215  0.3713
 7932SOL    HW224178   2.413   2.256   6.406  0.4146 -0.5208 -0.3793
 7933SOL     OW24179   2.789   0.050   1.621 -0.4962 -0.4087 -0.3336
 7933SOL    HW124180   2.721   0.072   1.684  0.4919  0.7535  0.3436
 7933SOL    HW224181   2.742   0.011   1.547 -1.8796  0.3195  0.1474
 7934SOL     OW24182   5.953   5.771   4.650 -0.0965 -0.7416 -0.3624
 7934SOL    HW124183   5.871   5.821   4.655  0.6248  0.5127 -0.8343
 7934SOL    HW224184   5.931   5.685   4.685 -1.6828 -0.4928 -0.7204
 7935SOL     OW24185   5.801   0.955   0.240 -0.0112 -0.4228 -0.4361
 7935SOL    HW124186   5.760   0.962   0.326  1.0008 -0.4955  0.0598
 7935SOL    HW224187   5.868   1.023   0.239  1.2251 -1.6065 -0.4473
 7936SOL     OW24188   3.200   2.925   3.187  0.0891  0.3855 -0.3366
 7936SOL    HW124189   3.292   2.907   3.167  1.2299  1.8632  3.1934
 7936SOL    HW224190   3.181   3.008   3.144  0.7829  0.6602 -0.1183
 7937SOL     OW24191   1.058   0.973   2.917 -0.4955 -0.0687 -0.1765
 7937SOL    HW124192   1.053   1.009   3.005 -0.8698 -0.5707  0.0082
 7937SOL    HW224193   0.973   0.993   2.878 -0.5182 -0.3052 -0.2496
 7938SOL     OW24194   0.506   1.575   5.377  0.0357  0.0287 -0.0621
 7938SOL    HW124195   0.512   1.580   5.282  0.5940 -1.0465 -0.0896
 7938SOL    HW224196   0.512   1.666   5.407 -3.4557  0.7335 -1.2382
 7939SOL     OW24197   5.704   1.311   0.165  0.4821  0.1613  0.5538
 7939SOL    HW124198   5.629   1.307   0.224  0.2150  0.0175  0.2076
 7939SOL    HW224199   5.731   1.403   0.166 -0.5546  0.4940 -0.3743
 7940SOL     OW24200   1.210   4.983   2.474 -0.4263  0.3179 -0.5023
 7940SOL    HW124201   1.151   5.012   2.404 -1.8905  2.0486  1.3798
 7940SOL    HW224202   1.289   4.956   2.429 -2.5260 -1.7434 -3.0807
 7941SOL     OW24203   2.496   0.481   0.957 -0.4144 -0.7322  0.1579
 7941SOL    HW124204   2.542   0.555   0.997 -0.5579  0.9311 -2.6261
 7941SOL    HW224205   2.460   0.516   0.876  0.9589 -4.3092 -2.1071
 7942SOL     OW24206   1.937   0.200   1.875  0.2205 -0.4699  0.5130
 7942SOL    HW124207   1.856   0.199   1.925 -0.3826  0.7128 -0.4300
 7942SOL    HW224208   1.915   0.242   1.792  1.2690 -2.1628 -0.6698
 7943SOL     OW24209   3.970   0.144   3.391 -0.2975  0.3895  0.3565
 7943SOL    HW124210   3.982   0.089   3.468  0.5571  0.4367  0.2575
 7943SOL    HW224211   4.052   0.135   3.342 -0.5560  0.9328 -0.1783
 7944SOL     OW24212   3.440   3.534   2.382 -0.1627  0.5166 -0.3511
 7944SOL    HW124213   3.397   3.468   2.436  0.3982  0.5978  0.1928
 7944SOL    HW224214   3.368   3.580   2.338 -0.5782 -0.0874 -0.3080
 7945SOL     OW24215   6.079   4.393   4.634  0.0077 -0.0429 -0.5915
 7945SOL    HW124216   6.143   4.412   4.703 -0.4569 -1.9719  0.3977
 7945SOL    HW224217   6.128   4.344   4.568  0.1450  0.6939 -1.0430
 7946SOL     OW24218   2.116   3.829   3.316 -0.5414  0.0781  0.3574
 7946SOL    HW124219   2.047   3.828   3.250 -0.2393  1.8859 -0.0129
 7946SOL    HW224220   2.070   3.831   3.400 -0.9303  0.3048  0.1375
 7947SOL     OW24221   1.446   0.209   2.987 -0.1939  0.2986  0.0665
 7947SOL    HW124222   1.458   0.168   3.074 -1.2656 -0.0862  0.0386
 7947SOL    HW224223   1.518   0.272   2.981  0.3418 -0.2029  0.9257
 7948SOL     OW24224   5.356   5.087   1.329 -0.9859  0.3560 -0.1008
 7948SOL    HW124225   5.414   5.065   1.256 -1.0354  0.5760 -0.2061
 7948SOL    HW224226   5.414   5.105   1.402 -0.8822  1.5612 -0.4689
 7949SOL     OW24227   4.338   1.849   2.296  0.1633  0.0990  0.2380
 7949SOL    HW124228   4.371   1.809   2.216  0.7654  1.7933 -0.3855
 7949SOL    HW224229   4.245   1.825   2.299  0.3329 -0.6623 -0.5168
 7950SOL     OW24230   1.210   5.481   1.904 -0.1697 -0.6994  0.0835
 7950SOL    HW124231   1.239   5.430   1.828 -0.9672 -1.5750  0.3521
 7950SOL    HW224232   1.117   5.498   1.887 -0.2629 -0.5900  0.7039
 7951SOL     OW24233   3.541   2.694   2.013  0.2105  0.3425  0.4917
 7951SOL    HW124234   3.509   2.773   2.057  2.5084  0.0679  2.8020
 7951SOL    HW224235   3.494   2.623   2.055 -1.5511  0.4206 -1.2994
 7952SOL     OW24236   0.819   5.459   4.304 -0.0924 -0.4530  0.1650
 7952SOL    HW124237   0.823   5.513   4.225 -2.8645  3.0104  2.2410
 7952SOL    HW224238   0.752   5.393   4.284  1.1735 -1.3435 -1.3011
 7953SOL     OW24239   4.727   1.298   5.911  0.4647  0.3369 -0.2223
 7953SOL    HW124240   4.748   1.207   5.930  1.4682  0.9092  1.4362
 7953SOL    HW224241   4.663   1.293   5.839 -1.8182 -1.7859  1.8767
 7954SOL     OW24242   4.382   0.380   0.432  0.1468  0.9766 -0.1136
 7954SOL    HW124243   4.461   0.421   0.396  0.3268  0.5549 -0.1957
 7954SOL    HW224244   4.315   0.449   0.425  0.4860  1.3107 -0.1075
 7955SOL     OW24245   4.303   1.239   1.695 -0.2757  0.1481  0.8201
 7955SOL    HW124246   4.360   1.182   1.746 -1.7953 -1.3619  0.8892
 7955SOL    HW224247   4.255   1.179   1.637 -0.1299  1.6059 -0.8643
 7956SOL     OW24248   2.799   2.175   2.074 -0.1165  0.1830 -0.2293
 7956SOL    HW124249   2.744   2.204   2.000 -1.9772 -0.6077  0.8004
 7956SOL    HW224250   2.821   2.256   2.120  0.9192  0.6659 -1.5547
 7957SOL     OW24251   2.799   3.195   1.614  0.0690  0.4629  0.6415
 7957SOL    HW124252   2.755   3.112   1.596 -1.6486  1.5572 -0.3194
 7957SOL    HW224253   2.807   3.238   1.529  0.1845  1.6547  1.2399
 7958SOL     OW24254   0.913   0.207   1.270 -0.5051 -0.3093 -0.3984
 7958SOL    HW124255   0.987   0.216   1.210  0.0607  1.3272  0.5231
 7958SOL    HW224256   0.924   0.119   1.308  1.7736  0.4254  0.7499
 7959SOL     OW24257   3.703   3.330   5.725 -0.2135  0.4850 -0.6194
 7959SOL    HW124258   3.611   3.325   5.749  0.5834 -2.4046  2.3369
 7959SOL    HW224259   3.743   3.383   5.794  0.5790  0.1984 -0.8517
 7960SOL     OW24260   1.465   5.021   2.434  0.5003  0.2310  0.3932
 7960SOL    HW124261   1.533   5.002   2.498 -1.1003 -0.3262  1.9893
 7960SOL    HW224262   1.456   5.116   2.435  0.8519  0.2606  0.6282
 7961SOL     OW24263   4.198   3.961   4.867  0.2924  0.0425 -0.8159
 7961SOL    HW124264   4.197   4.011   4.785 -0.5062  0.4962 -0.5397
 7961SOL    HW224265   4.277   3.989   4.912  1.1370 -0.7679 -1.7707
 7962SOL     OW24266   2.119   0.237   4.589 -0.2443 -0.0108  0.6942
 7962SOL    HW124267   2.159   0.191   4.663 -0.3184  0.7395  1.2070
 7962SOL    HW224268   2.033   0.263   4.622 -0.7894 -0.7946 -0.0878
 7963SOL     OW24269   2.533   1.053   0.138  0.1893 -0.1871  0.3896
 7963SOL    HW124270   2.604   1.087   0.084  0.9433 -0.8217  0.9826
 7963SOL    HW224271   2.508   0.970   0.097 -1.7266  1.0747 -1.1218
 7964SOL     OW24272   4.466   0.144   2.199 -0.7281  0.1930 -0.3533
 7964SOL    HW124273   4.428   0.061   2.229  0.1979 -0.6433 -1.4455
 7964SOL    HW224274   4.547   0.152   2.250 -0.0899 -0.3035 -1.2751
 7965SOL     OW24275   1.641   4.174   6.311 -0.2299 -0.3114 -0.7883
 7965SOL    HW124276   1.565   4.144   6.261 -0.9445  2.3214 -1.3805
 7965SOL    HW224277   1.706   4.196   6.244 -0.0485  0.2613 -0.4290
 7966SOL     OW24278   0.530   5.106   3.673 -0.2183  0.1268  0.1552
 7966SOL    HW124279   0.514   5.066   3.758 -1.5353  0.2191 -0.0397
 7966SOL    HW224280   0.455   5.164   3.659 -0.0360  0.0840 -1.0838
 7967SOL     OW24281   2.677   6.192   3.349  0.0391  0.1033 -0.1278
 7967SOL    HW124282   2.683   6.282   3.382 -1.0458 -0.1698  0.8276
 7967SOL    HW224283   2.591   6.187   3.309 -0.6579 -1.0395  1.4590
 7968SOL     OW24284   5.964   1.437   5.959  0.0524  0.1217  0.0168
 7968SOL    HW124285   5.915   1.510   5.922  1.8795 -0.2703 -3.4309
 7968SOL    HW224286   5.955   1.447   6.053 -1.4272  3.6074 -0.4099
 7969SOL     OW24287   0.822   3.369   5.554 -0.3604  0.1113  0.4787
 7969SOL    HW124288   0.828   3.457   5.517 -3.2837  1.6328  3.4483
 7969SOL    HW224289   0.777   3.318   5.486 -1.5895  1.7115  0.0588
 7970SOL     OW24290   4.432   1.079   4.070 -0.7795 -0.4020 -0.0558
 7970SOL    HW124291   4.461   0.989   4.083 -2.4749 -0.9622 -0.0448
 7970SOL    HW224292   4.406   1.110   4.157 -0.9402 -0.1773 -0.1801
 7971SOL     OW24293   5.577   5.639   5.650 -0.4326 -0.0363 -0.4079
 7971SOL    HW124294   5.620   5.555   5.667 -2.9842 -1.2642  0.1655
 7971SOL    HW224295   5.649   5.701   5.639  1.4908 -1.8290  1.5736
 7972SOL     OW24296   5.621   2.886   4.592 -0.0383 -0.4937 -0.1789
 7972SOL    HW124297   5.630   2.812   4.653  1.0066 -1.6830 -1.7313
 7972SOL    HW224298   5.633   2.964   4.647  1.1817 -1.5346  1.0788
 7973SOL     OW24299   3.281   3.913   0.015 -0.4968  0.2719 -0.8280
 7973SOL    HW124300   3.326   3.996  -0.001  1.2672 -1.1531 -3.4951
 7973SOL    HW224301   3.350   3.851   0.036 -1.4259 -1.3404 -2.3706
 7974SOL     OW24302   5.999   5.291   3.505 -0.3062 -0.4010 -0.0621
 7974SOL    HW124303   6.092   5.269   3.502 -0.2914 -0.3260 -0.1898
 7974SOL    HW224304   5.959   5.238   3.436 -0.4953 -1.0589  0.5550
 7975SOL     OW24305   0.523   3.101   0.411  0.4722 -0.3867 -0.4808
 7975SOL    HW124306   0.455   3.159   0.377  1.5357  1.1004 -0.1221
 7975SOL    HW224307   0.479   3.049   0.478  0.1895  2.1688  1.3980
 7976SOL     OW24308   2.313   4.382   4.952  0.0421  0.8449 -0.3277
 7976SOL    HW124309   2.345   4.345   4.870 -0.5116  0.6059 -0.4402
 7976SOL    HW224310   2.239   4.437   4.926 -1.6028 -1.0406  0.2283
 7977SOL     OW24311   2.295   6.310   1.654 -0.5279  0.3380 -0.0294
 7977SOL    HW124312   2.261   6.358   1.730  0.6677  1.1906 -0.0149
 7977SOL    HW224313   2.219   6.266   1.617 -1.2246  0.3445  1.3530
 7978SOL     OW24314   0.619   5.048   5.052 -0.2720  0.4597 -0.1125
 7978SOL    HW124315   0.610   5.084   4.964 -0.1234 -0.6898 -0.6007
 7978SOL    HW224316   0.709   5.015   5.055 -0.8410 -1.1542 -0.1656
 7979SOL     OW24317   4.613   3.234   5.564 -0.0961 -0.3564 -0.4651
 7979SOL    HW124318   4.639   3.194   5.481  0.3301  1.1584 -1.0776
 7979SOL    HW224319   4.530   3.193   5.586  0.3461 -1.5986 -1.0514
 7980SOL     OW24320   0.861   6.136   5.111 -0.2462 -0.2374  0.1434
 7980SOL    HW124321   0.955   6.125   5.125 -0.4061 -1.4945  0.2634
 7980SOL    HW224322   0.823   6.131   5.198 -0.5487 -1.1058 -0.0293
 7981SOL     OW24323   3.314   1.495   1.773  0.2402  0.1588 -0.1797
 7981SOL    HW124324   3.296   1.460   1.861 -2.5266  0.8082 -0.4710
 7981SOL    HW224325   3.338   1.586   1.789 -3.0298  1.0972 -0.2666
 7982SOL     OW24326   5.341   5.911   5.279 -0.0715 -0.7042  0.0452
 7982SOL    HW124327   5.262   5.964   5.261 -0.2907 -0.8086  0.6898
 7982SOL    HW224328   5.365   5.934   5.369  0.7042 -0.5932 -0.1854
 7983SOL     OW24329   5.113   0.898   5.285  0.1052  0.3248  0.2877
 7983SOL    HW124330   5.101   0.984   5.245  0.1048  0.2377  0.0988
 7983SOL    HW224331   5.177   0.854   5.228 -1.0768 -0.3804 -0.5170
 7984SOL     OW24332   2.254   3.342   2.556 -0.1182 -0.5079 -0.1286
 7984SOL    HW124333   2.336   3.332   2.507 -0.4189  2.2310 -1.3293
 7984SOL    HW224334   2.255   3.433   2.585 -1.2955 -1.3178  2.5638
 7985SOL     OW24335   5.332   0.781   5.096  0.5453  0.0422  0.8897
 7985SOL    HW124336   5.393   0.837   5.144  1.7465 -0.1757 -0.3220
 7985SOL    HW224337   5.375   0.695   5.096  0.6147  0.0672 -0.6294
 7986SOL     OW24338   3.432   1.453   0.415  0.3110  0.2983  0.0389
 7986SOL    HW124339   3.385   1.484   0.493 -0.9177 -1.3406 -0.0095
 7986SOL    HW224340   3.474   1.372   0.443  1.7253  0.8651 -0.4050
 7987SOL     OW24341   2.381   3.286   5.455  0.2772 -0.7163 -0.4375
 7987SOL    HW124342   2.405   3.340   5.530 -2.9166  1.9583 -1.2385
 7987SOL    HW224343   2.460   3.283   5.401  0.4948  3.5302 -0.5204
 7988SOL     OW24344   1.276   0.617   4.131 -0.0105 -0.4497  0.0685
 7988SOL    HW124345   1.312   0.705   4.122  0.6207 -0.4706  2.2083
 7988SOL    HW224346   1.324   0.564   4.066  0.9703  0.3699  0.1203
 7989SOL     OW24347   3.011   0.309   3.125 -0.8524  0.1777 -0.1554
 7989SOL    HW124348   3.050   0.367   3.058 -0.3647 -0.5067 -0.4717
 7989SOL    HW224349   3.082   0.294   3.187 -1.6120  1.6796  1.1196
 7990SOL     OW24350   4.548   3.210   4.176 -0.1516  0.1896 -0.0068
 7990SOL    HW124351   4.484   3.272   4.208 -1.1247 -0.0618 -1.3848
 7990SOL    HW224352   4.612   3.263   4.128 -0.8843  0.1782 -1.0298
 7991SOL     OW24353   1.297   3.386   4.354  1.0190 -0.3549 -0.2345
 7991SOL    HW124354   1.209   3.384   4.394  0.8218 -1.1540 -0.7053
 7991SOL    HW224355   1.306   3.475   4.321  0.7432 -0.0026  0.6152
 7992SOL     OW24356   4.842   0.708   0.197 -0.7996  0.4560 -0.8616
 7992SOL    HW124357   4.837   0.641   0.129 -0.6977 -1.0059  0.5389
 7992SOL    HW224358   4.750   0.727   0.219 -0.8039 -0.8905  0.3287
 7993SOL     OW24359   1.264   4.244   3.541  0.2066  0.7747  0.1445
 7993SOL    HW124360   1.199   4.184   3.503  0.5570  0.3097  0.2690
 7993SOL    HW224361   1.265   4.319   3.482  1.1058 -0.1529 -1.0631
 7994SOL     OW24362   1.015   2.801   5.385 -0.3078  1.0010 -0.5631
 7994SOL    HW124363   1.057   2.856   5.450  1.5563 -0.2645 -0.6772
 7994SOL    HW224364   0.955   2.745   5.435  1.3190 -0.1593  0.1240
 7995SOL     OW24365   5.356   5.196   2.777 -0.2566  0.2153 -0.1556
 7995SOL    HW124366   5.435   5.170   2.731  0.5249  2.5067 -0.1547
 7995SOL    HW224367   5.384   5.212   2.867 -0.2757  3.0207 -0.6123
 7996SOL     OW24368   5.675   5.151   3.801  0.7799  0.2016 -0.1785
 7996SOL    HW124369   5.701   5.145   3.893 -1.9414  1.2137  0.6880
 7996SOL    HW224370   5.733   5.217   3.764  0.6805  1.1181  1.2605
 7997SOL     OW24371   1.631   3.055   1.884  0.1198 -0.0383 -0.2351
 7997SOL    HW124372   1.604   3.116   1.953 -0.5627 -0.0967 -0.4507
 7997SOL    HW224373   1.682   3.108   1.823 -1.2880  0.5368 -0.9287
 7998SOL     OW24374   5.540   0.292   5.209 -0.0072  0.3011  0.2243
 7998SOL    HW124375   5.453   0.310   5.246 -0.9002 -1.3082 -1.0057
 7998SOL    HW224376   5.544   0.197   5.204  2.0350  0.3527  0.7035
 7999SOL     OW24377   4.996   1.824   1.993  0.3219 -0.3254  0.3604
 7999SOL    HW124378   4.957   1.737   1.985  1.1678 -0.5465 -1.8923
 7999SOL    HW224379   5.087   1.808   2.020  0.7947 -0.2417 -1.1084
 8000SOL     OW24380   0.948   3.141   5.283  0.0823  0.0628  0.3302
 8000SOL    HW124381   0.941   3.060   5.233 -0.1000  0.8091 -0.8979
 8000SOL    HW224382   1.039   3.145   5.312  0.4047  0.0126 -0.6543
 8001SOL     OW24383   2.907   4.136   0.891 -0.2177  0.5884 -0.1794
 8001SOL    HW124384   2.867   4.223   0.900 -0.6390  0.1473  2.8129
 8001SOL    HW224385   2.838   4.075   0.917 -0.3236 -0.7794 -3.4505
 8002SOL     OW24386   1.532   6.109   4.667  0.1723  0.3536  0.2323
 8002SOL    HW124387   1.613   6.059   4.654 -0.4518 -0.0762 -2.3716
 8002SOL    HW224388   1.545   6.190   4.618 -0.0535  1.3857  1.8364
 8003SOL     OW24389   2.615   5.434   3.790 -0.4395  0.8539  0.3818
 8003SOL    HW124390   2.614   5.527   3.770  2.8258  0.7231 -0.6124
 8003SOL    HW224391   2.620   5.430   3.886 -0.1343  1.7105  0.4031
 8004SOL     OW24392   1.963   1.667   1.804  0.0736 -0.1478  0.0797
 8004SOL    HW124393   1.962   1.739   1.866  0.6871  0.6759 -0.8641
 8004SOL    HW224394   1.874   1.633   1.805  0.4368 -1.1562  2.5695
 8005SOL     OW24395   0.922   6.066   4.847 -0.2178 -0.2798  0.4087
 8005SOL    HW124396   0.998   6.029   4.892  0.8929  1.5488  0.1034
 8005SOL    HW224397   0.896   6.141   4.901  0.5606  1.3763 -1.4227
 8006SOL     OW24398   2.355   1.311   0.898  0.1706  0.0947  0.0484
 8006SOL    HW124399   2.427   1.373   0.913  0.1766  0.1241 -0.1007
 8006SOL    HW224400   2.276   1.366   0.896  0.1715  0.0934 -0.0412
 8007SOL     OW24401   4.590   6.092   3.517 -0.0551 -0.6431 -0.0682
 8007SOL    HW124402   4.613   6.086   3.424 -0.2341  1.1504 -0.2429
 8007SOL    HW224403   4.613   6.006   3.553 -0.0189 -1.3720 -1.7715
 8008SOL     OW24404   0.221   4.230   3.111 -0.3604 -0.1513 -0.0540
 8008SOL    HW124405   0.286   4.240   3.041 -2.4142 -0.0356 -1.9890
 8008SOL    HW224406   0.191   4.319   3.129 -1.6160 -0.4180 -0.7779
 8009SOL     OW24407   1.878   5.661   2.226  0.2050 -0.0964 -0.2456
 8009SOL    HW124408   1.933   5.711   2.286  1.1240  0.9809 -1.9388
 8009SOL    HW224409   1.936   5.593   2.191 -0.1672 -0.3464 -0.3826
 8010SOL     OW24410   1.681   0.801   0.520 -0.0109  0.6345 -0.1626
 8010SOL    HW124411   1.767   0.822   0.482  1.1206 -0.3384  1.7663
 8010SOL    HW224412   1.618   0.838   0.459  1.8026  2.4344 -0.9963
 8011SOL     OW24413   0.857   4.716   6.197 -0.2305  0.2738 -0.8753
 8011SOL    HW124414   0.867   4.788   6.259 -0.8760 -0.5032  0.1539
 8011SOL    HW224415   0.942   4.708   6.154  1.1327 -1.0534  1.9690
 8012SOL     OW24416   0.880   4.421   2.301  0.7229 -0.2718 -0.2292
 8012SOL    HW124417   0.921   4.347   2.256 -1.0579 -0.2018 -2.0470
 8012SOL    HW224418   0.798   4.435   2.253  0.1457  1.6589  1.2875
 8013SOL     OW24419   1.511   0.064   2.317  0.3132  0.5130  0.0847
 8013SOL    HW124420   1.435   0.120   2.335  0.4722  0.4823  0.8652
 8013SOL    HW224421   1.474  -0.014   2.277 -0.2125 -0.0854  1.7039
 8014SOL     OW24422   1.799   1.879   4.511 -0.1570 -0.5605  0.3844
 8014SOL    HW124423   1.891   1.872   4.486  0.0429 -0.1032  0.9814
 8014SOL    HW224424   1.778   1.972   4.499 -0.2494 -0.4647  1.2414
 8015SOL     OW24425   4.094   1.431   4.966  0.7194 -0.6622 -0.0965
 8015SOL    HW124426   4.160   1.487   5.006 -1.9854  1.9997  0.8016
 8015SOL    HW224427   4.098   1.453   4.873 -0.7317  1.5193  0.3293
 8016SOL     OW24428   2.877   0.485   2.224 -0.1771 -0.5212 -0.4562
 8016SOL    HW124429   2.951   0.534   2.261 -0.3161  0.0689 -0.9438
 8016SOL    HW224430   2.806   0.499   2.287  0.0596 -0.9067 -0.0985
 8017SOL     OW24431   2.263   6.269   2.770 -0.9604 -0.5873  0.0305
 8017SOL    HW124432   2.209   6.342   2.802 -0.9886 -0.1077 -1.0816
 8017SOL    HW224433   2.343   6.311   2.738 -1.0761 -1.0250 -0.8348
 8018SOL     OW24434   0.756   0.084   2.231 -0.0927  0.0071  0.1127
 8018SOL    HW124435   0.824   0.151   2.225  0.2618 -0.3911 -0.3978
 8018SOL    HW224436   0.687   0.124   2.285  0.4952  0.4539  0.5434
 8019SOL     OW24437   5.703   4.073   4.566 -0.0573  0.0227 -0.1371
 8019SOL    HW124438   5.708   3.981   4.539 -0.3803 -0.0730  0.1190
 8019SOL    HW224439   5.715   4.123   4.486  0.0275 -0.2444 -0.2911
 8020SOL     OW24440   1.894   0.781   3.963  0.4398  0.2867 -0.6138
 8020SOL    HW124441   1.987   0.799   3.954  0.3732  1.0674  0.2757
 8020SOL    HW224442   1.859   0.794   3.875  0.7346  2.5593 -0.4098
 8021SOL     OW24443   5.438   4.766   2.010  0.1833 -0.1651  0.1185
 8021SOL    HW124444   5.498   4.712   2.061  2.6089  2.6263  0.3552
 8021SOL    HW224445   5.444   4.853   2.050 -2.1010  0.7725 -1.4687
 8022SOL     OW24446   2.875   3.957   5.020 -0.2236  0.2668 -0.1272
 8022SOL    HW124447   2.828   4.000   5.091  0.8820  3.1590 -1.0390
 8022SOL    HW224448   2.807   3.938   4.955 -1.1223 -1.7394  1.3762
 8023SOL     OW24449   4.684   2.429   2.743 -0.2283  0.0427 -0.2358
 8023SOL    HW124450   4.622   2.381   2.797  0.7328 -0.4192  0.4602
 8023SOL    HW224451   4.653   2.415   2.653 -1.6291  0.5397  0.1571
 8024SOL     OW24452   6.239   0.814   3.257  0.2473 -0.0278  0.2181
 8024SOL    HW124453   6.211   0.876   3.323  0.2629 -1.0675  1.2206
 8024SOL    HW224454   6.285   0.866   3.192  1.0441  0.8811  1.4922
 8025SOL     OW24455   6.347   0.434   2.783 -0.5764 -0.3422  0.0467
 8025SOL    HW124456   6.436   0.424   2.751  0.4781  1.5533  2.2610
 8025SOL    HW224457   6.314   0.344   2.790  1.8627 -1.2036  1.1441
 8026SOL     OW24458   5.102   4.667   4.322  0.0939  0.1436 -0.3846
 8026SOL    HW124459   5.059   4.706   4.246  0.8306 -0.5675 -1.1873
 8026SOL    HW224460   5.082   4.726   4.395 -1.2368  0.4373 -0.9809
 8027SOL     OW24461   4.115   4.897   5.075  0.1120  0.1479  0.6243
 8027SOL    HW124462   4.041   4.918   5.017  1.6901  0.2739 -1.3977
 8027SOL    HW224463   4.125   4.802   5.067  0.0944  0.1171  0.9824
 8028SOL     OW24464   0.944   4.894   1.286  0.1384 -0.6015 -0.3209
 8028SOL    HW124465   0.875   4.865   1.226 -0.8588 -1.4979  1.2311
 8028SOL    HW224466   0.970   4.979   1.252 -1.1327 -0.6253 -1.4349
 8029SOL     OW24467   6.301   1.965   2.445  0.5095 -0.5313  0.0070
 8029SOL    HW124468   6.236   2.019   2.490  0.7893 -1.8869  2.1336
 8029SOL    HW224469   6.367   2.027   2.414 -0.0174  0.5119  0.9565
 8030SOL     OW24470   1.797   2.265   1.439  0.5053  0.6007 -0.4683
 8030SOL    HW124471   1.730   2.310   1.389 -0.5329 -0.9375 -0.4934
 8030SOL    HW224472   1.865   2.245   1.375 -0.5840 -0.8955 -1.1851
 8031SOL     OW24473   4.180   0.119   2.694 -0.5546  0.6402 -0.5232
 8031SOL    HW124474   4.146   0.032   2.673 -1.5676  1.2573 -1.5153
 8031SOL    HW224475   4.264   0.124   2.647 -0.2206 -0.0114  0.0005
 8032SOL     OW24476   0.669   4.780   1.726 -0.0657  0.3030  0.1014
 8032SOL    HW124477   0.704   4.775   1.815 -0.8955 -0.0450  0.4237
 8032SOL    HW224478   0.574   4.768   1.738 -0.2097  0.5368 -0.8015
 8033SOL     OW24479   4.435   3.136   2.598 -0.1644 -0.3207  0.2332
 8033SOL    HW124480   4.422   3.157   2.691 -1.4621 -0.2590  0.0473
 8033SOL    HW224481   4.465   3.045   2.599 -0.9529 -0.5811  0.6740
 8034SOL     OW24482   5.989   6.380   2.598  0.1099  0.0177  0.2943
 8034SOL    HW124483   5.908   6.422   2.571  1.8620  2.4925 -1.3547
 8034SOL    HW224484   6.043   6.452   2.631  2.3073 -1.2762 -0.3896
 8035SOL     OW24485   4.780   1.090   5.639  0.3406 -0.4245 -0.2547
 8035SOL    HW124486   4.811   1.024   5.578  3.1097  0.2899  0.2964
 8035SOL    HW224487   4.789   1.049   5.725 -0.7010 -0.3506 -0.1000
 8036SOL     OW24488   5.320   1.549   2.271  0.2239  0.5687 -0.1436
 8036SOL    HW124489   5.347   1.521   2.359  1.4332 -0.9779 -0.9891
 8036SOL    HW224490   5.238   1.597   2.286 -0.1160 -0.5222  1.7399
 8037SOL     OW24491   2.181   2.959   6.116 -0.5590 -0.6365 -0.2044
 8037SOL    HW124492   2.259   2.909   6.092 -0.8790 -1.1769 -0.1205
 8037SOL    HW224493   2.110   2.917   6.067 -0.6473  0.4662 -1.0643
 8038SOL     OW24494   3.081   5.615   0.636  0.1094  0.3426 -0.3872
 8038SOL    HW124495   3.064   5.617   0.542  2.0008  1.4213 -0.7232
 8038SOL    HW224496   3.176   5.606   0.643 -0.1552 -1.6198  1.4301
 8039SOL     OW24497   4.360   0.685   3.898  0.1882 -0.2732 -0.1016
 8039SOL    HW124498   4.303   0.629   3.844 -0.3860 -0.7799  1.0135
 8039SOL    HW224499   4.409   0.624   3.953 -0.2291  0.2948  0.9200
 8040SOL     OW24500   1.830   3.653   4.568 -0.5296 -1.0347  0.2597
 8040SOL    HW124501   1.748   3.655   4.617  0.1130 -0.4333  1.3251
 8040SOL    HW224502   1.880   3.581   4.606 -0.3728 -1.1038 -0.0720
 8041SOL     OW24503   5.432   1.685   1.762  0.1307  0.0510 -0.5083
 8041SOL    HW124504   5.481   1.604   1.743  0.5020 -0.0594  0.8985
 8041SOL    HW224505   5.499   1.747   1.791 -0.2847  0.5675 -0.6538
 8042SOL     OW24506   4.680   0.660   2.829  0.0763 -0.7393 -0.7149
 8042SOL    HW124507   4.674   0.755   2.821 -0.6632 -0.6378  0.9488
 8042SOL    HW224508   4.754   0.646   2.888  0.3170 -1.2193 -1.1225
 8043SOL     OW24509   3.510   1.216   4.737  0.2327  0.1425  0.2145
 8043SOL    HW124510   3.430   1.182   4.696  0.1430  1.1341 -0.4719
 8043SOL    HW224511   3.492   1.213   4.831 -0.5299  0.1555  0.0744
 8044SOL     OW24512   4.521   5.457   3.870 -0.0996 -0.1455 -0.2759
 8044SOL    HW124513   4.558   5.492   3.951 -0.1173  1.0922 -0.7921
 8044SOL    HW224514   4.586   5.393   3.840  0.3334  0.0473  0.2407
 8045SOL     OW24515   0.736   5.760   5.118  0.1604 -0.5455 -0.4306
 8045SOL    HW124516   0.788   5.718   5.187  0.8105 -0.6553 -0.9720
 8045SOL    HW224517   0.757   5.709   5.039  1.1435  0.9557 -1.1481
 8046SOL     OW24518   3.386   1.435   5.299  0.3325  0.6118 -0.1629
 8046SOL    HW124519   3.438   1.355   5.289  1.4256  1.4988 -1.8239
 8046SOL    HW224520   3.439   1.491   5.355  0.8269  1.1913 -1.1816
 8047SOL     OW24521   2.185   1.530   1.650  0.6061 -0.0353  0.1823
 8047SOL    HW124522   2.108   1.586   1.645  2.6106  2.9357  0.9929
 8047SOL    HW224523   2.259   1.591   1.650  2.9693 -2.7835 -0.5558
 8048SOL     OW24524   0.614   4.044   0.288 -0.3568 -0.0590 -0.1737
 8048SOL    HW124525   0.708   4.060   0.288 -0.4081  0.3239 -1.8227
 8048SOL    HW224526   0.599   3.991   0.210 -1.3457 -1.1396  0.7346
 8049SOL     OW24527   0.524   2.155   4.243 -0.1413 -0.3912 -0.1581
 8049SOL    HW124528   0.539   2.220   4.174  0.4015  0.2978  0.6036
 8049SOL    HW224529   0.609   2.113   4.256 -0.6961 -1.9125 -1.2855
 8050SOL     OW24530   4.129   5.909   0.623 -0.2252 -0.3156  0.1190
 8050SOL    HW124531   4.168   5.975   0.566 -0.1607 -2.3377 -2.2442
 8050SOL    HW224532   4.045   5.888   0.581 -0.0981 -1.9688  0.6813
 8051SOL     OW24533   1.853   0.973   0.828 -0.1073 -0.0030  0.7192
 8051SOL    HW124534   1.785   1.025   0.870  1.5246  1.3047  1.8044
 8051SOL    HW224535   1.903   1.036   0.776  1.8391 -0.4837  1.9741
 8052SOL     OW24536   2.761   1.001   4.801  0.4913 -0.0512 -0.0724
 8052SOL    HW124537   2.714   1.040   4.875  2.2576  0.9959  0.5397
 8052SOL    HW224538   2.783   0.913   4.830  1.8521  0.6124  1.0015
 8053SOL     OW24539   3.045   4.067   3.429 -0.0618 -0.4131 -0.0688
 8053SOL    HW124540   3.026   4.082   3.337 -0.3446  2.2180  0.3939
 8053SOL    HW224541   2.960   4.076   3.474 -0.0227 -2.1854  0.4121
 8054SOL     OW24542   4.601   2.659   1.860  0.3897 -0.4641  0.3876
 8054SOL    HW124543   4.626   2.592   1.797 -0.3533 -0.1376 -0.2659
 8054SOL    HW224544   4.520   2.626   1.899  0.0789 -0.0058  0.1406
 8055SOL     OW24545   0.170   4.557   0.551 -0.0792  0.5620 -0.0920
 8055SOL    HW124546   0.101   4.619   0.578 -0.7265 -1.1542  2.4057
 8055SOL    HW224547   0.252   4.601   0.574 -0.2763  2.4822 -2.7853
 8056SOL     OW24548   0.893   0.492   5.094 -0.5657 -0.1516  0.2641
 8056SOL    HW124549   0.933   0.439   5.163  0.0687  0.1529  0.1356
 8056SOL    HW224550   0.966   0.540   5.055 -0.9236 -0.3374 -0.6361
 8057SOL     OW24551   3.336   4.230   1.561 -0.4655 -0.3519 -0.4656
 8057SOL    HW124552   3.264   4.194   1.613 -0.6179  2.2114  1.1874
 8057SOL    HW224553   3.387   4.283   1.623  2.4723 -1.5635 -1.7677
 8058SOL     OW24554   5.944   5.844   1.568 -0.2598 -0.0014 -0.2001
 8058SOL    HW124555   5.938   5.806   1.480 -0.6803  2.0869 -1.1086
 8058SOL    HW224556   5.889   5.788   1.622 -0.8524 -0.7007 -1.4990
 8059SOL     OW24557   1.498   2.324   4.164 -0.1745  0.4774  0.0537
 8059SOL    HW124558   1.509   2.281   4.248 -0.5836 -2.1628 -1.1765
 8059SOL    HW224559   1.587   2.344   4.135  0.1747 -1.5515 -0.3248
 8060SOL     OW24560   5.880   2.923   0.381  0.0270  0.0691  0.8962
 8060SOL    HW124561   5.830   2.911   0.462  1.2833 -1.7512  1.4368
 8060SOL    HW224562   5.904   3.016   0.381 -0.3143  0.1705  2.4035
 8061SOL     OW24563   1.822   0.147   3.946  0.5733  0.4970 -0.0951
 8061SOL    HW124564   1.911   0.177   3.966 -0.2087  1.6837  1.6703
 8061SOL    HW224565   1.768   0.183   4.016 -1.3661  0.0485 -1.3318
 8062SOL     OW24566   2.109   0.274   3.757 -0.2881  0.1577  0.4055
 8062SOL    HW124567   2.066   0.279   3.842  0.4719 -1.9426  0.9471
 8062SOL    HW224568   2.202   0.273   3.777 -0.0932 -0.1981 -0.4731
 8063SOL     OW24569   3.594   6.090   0.650  0.1522 -0.4145  0.2624
 8063SOL    HW124570   3.577   6.179   0.681  0.0288 -0.3665  0.0578
 8063SOL    HW224571   3.508   6.058   0.623 -0.0515 -1.1264  1.7170
 8064SOL     OW24572   0.406   2.494   0.252 -0.1222  0.1785  0.3850
 8064SOL    HW124573   0.455   2.560   0.301  0.3974  0.1899 -0.1401
 8064SOL    HW224574   0.333   2.542   0.214  0.1089  0.3997  0.2185
 8065SOL     OW24575   4.601   6.141   1.183 -0.2078  0.0303 -0.2490
 8065SOL    HW124576   4.684   6.095   1.192 -1.3974 -1.9653  1.0923
 8065SOL    HW224577   4.619   6.230   1.214  1.1350 -0.7329  1.2405
 8066SOL     OW24578   3.598   3.063   5.985  0.1581  0.2569 -0.7420
 8066SOL    HW124579   3.646   3.039   5.906  0.6247  2.3956 -1.1507
 8066SOL    HW224580   3.667   3.082   6.049 -0.1508  1.2323 -0.6828
 8067SOL     OW24581   2.261   4.154   0.119 -0.2283 -0.5852  0.4578
 8067SOL    HW124582   2.298   4.070   0.146 -1.8975 -1.1200  1.1586
 8067SOL    HW224583   2.248   4.146   0.025 -0.7411 -1.2626  0.5836
 8068SOL     OW24584   1.449   1.656   5.322  0.2729  0.0529  0.6881
 8068SOL    HW124585   1.431   1.592   5.390  0.5929  1.4103  2.0750
 8068SOL    HW224586   1.364   1.671   5.280  0.4078 -2.1548 -0.4818
 8069SOL     OW24587   2.625   5.934   5.654  0.4766  0.1980 -0.5463
 8069SOL    HW124588   2.689   5.912   5.722 -1.1327 -0.5109  0.7793
 8069SOL    HW224589   2.599   6.023   5.674 -0.0493 -0.0350 -0.1691
 8070SOL     OW24590   3.718   4.836   6.010 -0.2494  0.0099 -1.0121
 8070SOL    HW124591   3.667   4.868   5.936 -0.2005  1.0251 -0.6059
 8070SOL    HW224592   3.694   4.893   6.083  2.7351  1.6218 -1.2192
 8071SOL     OW24593   3.178   4.284   3.178 -0.4441  0.1941 -0.4453
 8071SOL    HW124594   3.204   4.308   3.089  0.1547 -0.3917 -0.4317
 8071SOL    HW224595   3.152   4.366   3.219 -1.7936  0.3064 -1.5126
 8072SOL     OW24596   1.370   0.112   1.085 -0.2435  0.0106 -0.7271
 8072SOL    HW124597   1.375   0.032   1.137 -1.6596  0.1614 -0.3260
 8072SOL    HW224598   1.450   0.160   1.104 -0.0784 -0.6326  0.1713
 8073SOL     OW24599   5.241   3.455   4.008  0.1460  0.2763  0.0237
 8073SOL    HW124600   5.158   3.454   4.056 -0.1437  1.4716 -0.4269
 8073SOL    HW224601   5.254   3.547   3.985  1.1342 -0.0414 -0.7157
 8074SOL     OW24602   5.675   6.185   4.335 -0.4582 -0.0092  0.0721
 8074SOL    HW124603   5.671   6.090   4.340 -2.2710  0.0158 -0.4112
 8074SOL    HW224604   5.715   6.204   4.250  0.1043 -0.3475  0.2660
 8075SOL     OW24605   3.072   4.513   3.320 -0.9102 -0.2873 -0.3755
 8075SOL    HW124606   3.058   4.602   3.287 -2.4049 -0.5419 -0.4397
 8075SOL    HW224607   3.144   4.522   3.382 -0.6523  0.8646 -0.8194
 8076SOL     OW24608   2.217   2.696   0.506 -0.4355 -0.1763 -0.0917
 8076SOL    HW124609   2.195   2.607   0.479 -0.1090 -0.1046 -0.5979
 8076SOL    HW224610   2.203   2.696   0.601  2.0932 -1.5018  0.3056
 8077SOL     OW24611   6.318   5.735   0.775 -0.1482 -0.1309  0.3873
 8077SOL    HW124612   6.363   5.657   0.808 -0.1780 -1.0262 -1.6662
 8077SOL    HW224613   6.230   5.706   0.754 -0.0102  0.3263 -0.8798
 8078SOL     OW24614   1.954   1.896   0.530 -0.0134 -0.1795  0.7138
 8078SOL    HW124615   1.995   1.814   0.503 -1.0385 -0.3740 -0.2750
 8078SOL    HW224616   1.870   1.870   0.567 -1.1897  0.5709 -1.3814
 8079SOL     OW24617   1.972   1.178   1.241  0.0171  0.0694 -0.2353
 8079SOL    HW124618   1.933   1.138   1.319 -1.0585 -0.0514 -0.8201
 8079SOL    HW224619   1.991   1.105   1.183  0.7468  0.1668 -0.1262
 8080SOL     OW24620   5.567   1.025   2.238 -0.1913 -0.2801 -0.3863
 8080SOL    HW124621   5.528   0.990   2.318  1.8807  0.9201  1.2033
 8080SOL    HW224622   5.503   1.088   2.205 -0.5563  0.0927  1.0063
 8081SOL     OW24623   1.708   3.975   5.479  0.1776  0.1138 -0.1081
 8081SOL    HW124624   1.639   3.917   5.510  0.9206  0.1732  1.7356
 8081SOL    HW224625   1.663   4.052   5.445 -0.6723 -0.0162  0.7232
 8082SOL     OW24626   4.416   5.030   5.722 -0.2511 -0.3204  0.0031
 8082SOL    HW124627   4.373   5.084   5.789  0.2544  1.6300 -1.1884
 8082SOL    HW224628   4.388   5.068   5.639 -0.3320 -2.2932 -0.8848
 8083SOL     OW24629   5.402   0.434   1.229  0.0459  0.0886 -0.4887
 8083SOL    HW124630   5.489   0.424   1.268  0.5092 -0.3399 -1.6087
 8083SOL    HW224631   5.380   0.347   1.197 -2.7876 -0.8973  3.8156
 8084SOL     OW24632   2.826   0.308   2.900  0.4015 -0.0393 -0.0214
 8084SOL    HW124633   2.852   0.250   2.829 -0.7981 -2.4850  1.4675
 8084SOL    HW224634   2.898   0.303   2.963  0.4154  0.2987 -0.0079
 8085SOL     OW24635   5.321   5.836   5.017 -0.0230  0.1089 -0.0432
 8085SOL    HW124636   5.389   5.773   4.995  0.4913  0.6115  0.0792
 8085SOL    HW224637   5.342   5.864   5.106 -0.5518  0.0602  0.0966
 8086SOL     OW24638   2.098   1.195   1.679  0.1153  0.2210 -0.1481
 8086SOL    HW124639   2.183   1.192   1.635  0.7057 -0.5465  1.0260
 8086SOL    HW224640   2.119   1.196   1.772 -1.1629  0.2597  0.1520
 8087SOL     OW24641   0.922   0.761   2.525 -0.3874 -0.3802  0.4507
 8087SOL    HW124642   0.908   0.853   2.503  1.0328 -0.1937  0.2952
 8087SOL    HW224643   1.000   0.736   2.476  0.3359 -1.1477  1.9650
 8088SOL     OW24644   1.426   1.301   3.745  0.0547 -0.2688  0.4765
 8088SOL    HW124645   1.425   1.357   3.823 -0.4272 -0.4484  0.5999
 8088SOL    HW224646   1.423   1.363   3.672 -0.9044 -0.1406  0.6178
 8089SOL     OW24647   1.161   4.694   2.155  0.0548  0.0019 -0.5402
 8089SOL    HW124648   1.166   4.684   2.060 -0.1760 -1.1998 -0.4325
 8089SOL    HW224649   1.219   4.768   2.174 -0.0512  0.3750 -1.6361
 8090SOL     OW24650   0.985   2.735   5.773 -0.2663  0.0698  0.1892
 8090SOL    HW124651   0.947   2.692   5.696 -1.1700 -1.5005  1.4970
 8090SOL    HW224652   1.020   2.664   5.826  0.5201  1.1626  1.1732
 8091SOL     OW24653   2.552   2.948   3.681 -0.0190 -0.4474 -0.5616
 8091SOL    HW124654   2.628   2.892   3.670  0.3081 -0.4014  1.2968
 8091SOL    HW224655   2.494   2.899   3.740 -1.4187 -0.4569 -1.9033
 8092SOL     OW24656   1.287   5.089   1.373 -0.2406  0.3452 -0.0939
 8092SOL    HW124657   1.270   4.995   1.376 -0.9512  0.5175  1.3829
 8092SOL    HW224658   1.355   5.104   1.438  1.6387  0.5039 -2.0586
 8093SOL     OW24659   0.906   3.764   2.964  0.2940  0.1579  0.3356
 8093SOL    HW124660   0.924   3.672   2.982  0.3293 -0.3017 -1.9819
 8093SOL    HW224661   0.991   3.802   2.944 -0.0568  0.1248 -1.2297
 8094SOL     OW24662   4.824   1.914   0.414  0.6332 -0.1609  0.8053
 8094SOL    HW124663   4.811   1.996   0.366 -0.4025  0.8287  2.6882
 8094SOL    HW224664   4.917   1.894   0.403  0.0470 -1.0857 -3.2606
 8095SOL     OW24665   1.990   2.886   2.741 -0.1065  0.6042  0.1709
 8095SOL    HW124666   1.929   2.953   2.711  0.1952  0.6563 -0.3319
 8095SOL    HW224667   2.076   2.919   2.716  0.1039  0.3829  0.5979
 8096SOL     OW24668   2.678   4.153   0.029  0.4708 -0.2024 -0.3264
 8096SOL    HW124669   2.620   4.097  -0.023  0.9195  0.1384 -1.2169
 8096SOL    HW224670   2.766   4.120   0.010  0.5147 -1.3456  1.7854
 8097SOL     OW24671   0.047   3.174   4.089  0.1611 -0.0740  0.1307
 8097SOL    HW124672   0.016   3.159   4.178  2.6725 -0.9568  0.9213
 8097SOL    HW224673  -0.012   3.239   4.053 -0.3696  0.9539  2.7669
 8098SOL     OW24674   5.956   6.332   5.640  0.7548 -0.4982  0.2690
 8098SOL    HW124675   5.925   6.332   5.549  0.7614 -1.2762  0.2659
 8098SOL    HW224676   6.011   6.410   5.646 -1.0371  0.7943  0.2264
 8099SOL     OW24677   5.078   5.635   5.231  0.0385  0.3514  0.1712
 8099SOL    HW124678   5.075   5.558   5.288 -0.1838  0.4378  0.2756
 8099SOL    HW224679   5.122   5.702   5.284 -1.6826  0.9554  0.8675
 8100SOL     OW24680   4.874   4.134   4.837  0.0961  0.1958  0.4552
 8100SOL    HW124681   4.960   4.099   4.815 -0.0207 -0.5084  1.1076
 8100SOL    HW224682   4.843   4.175   4.756  1.9734  2.3900  0.7610
 8101SOL     OW24683   4.983   1.803   0.170 -0.5994 -0.0604 -0.2906
 8101SOL    HW124684   4.935   1.773   0.247 -0.9432  0.5551 -0.2645
 8101SOL    HW224685   5.071   1.822   0.203 -0.7554  0.2324 -0.0478
 8102SOL     OW24686   4.132   2.429   5.129  0.0701 -0.0660  0.1917
 8102SOL    HW124687   4.046   2.418   5.169  0.3313  0.0545  0.7872
 8102SOL    HW224688   4.163   2.339   5.114  0.2537 -0.1136  0.8608
 8103SOL     OW24689   2.825   3.372   0.001  0.2150 -0.5619 -0.1405
 8103SOL    HW124690   2.912   3.396  -0.029  0.1930 -1.9859 -1.3600
 8103SOL    HW224691   2.840   3.318   0.079  0.3621  0.1025  0.3065
 8104SOL     OW24692   1.219   1.157   5.106 -0.5069  0.5397 -0.1905
 8104SOL    HW124693   1.148   1.216   5.081 -2.1110  0.0127  2.8007
 8104SOL    HW224694   1.211   1.083   5.045 -0.8110  1.7072 -1.5921
 8105SOL     OW24695   3.854   4.117   4.357 -0.3645 -0.0615  0.1310
 8105SOL    HW124696   3.927   4.055   4.349  0.2403  0.5969  0.5471
 8105SOL    HW224697   3.881   4.177   4.426 -1.2876  0.2138  0.2578
 8106SOL     OW24698   4.069   2.626   3.311  0.2567  0.1581  0.7458
 8106SOL    HW124699   3.995   2.616   3.370 -0.5124  2.4061  0.2221
 8106SOL    HW224700   4.144   2.595   3.362 -0.5487  1.0317  2.5362
 8107SOL     OW24701   3.424   2.274   4.664  0.0156 -0.1450 -0.1139
 8107SOL    HW124702   3.476   2.233   4.595  0.2191  0.3608 -0.2575
 8107SOL    HW224703   3.438   2.368   4.653 -0.7511 -0.0116 -0.0193
 8108SOL     OW24704   4.771   1.693   6.063 -0.2547 -0.0538  0.0422
 8108SOL    HW124705   4.741   1.766   6.117 -0.7084 -0.1019 -0.1398
 8108SOL    HW224706   4.768   1.726   5.973  2.1387  0.5869  0.1582
 8109SOL     OW24707   2.979   1.871   5.053  0.0750  0.2876  0.3242
 8109SOL    HW124708   2.978   1.813   5.129 -1.3958  1.5752  1.3393
 8109SOL    HW224709   3.068   1.906   5.051  1.1237 -2.3537 -0.6184
 8110SOL     OW24710   3.068   1.708   5.264 -0.1791 -0.0089 -0.3010
 8110SOL    HW124711   3.157   1.741   5.272 -0.4540  0.4389  1.1062
 8110SOL    HW224712   3.079   1.618   5.232  0.7081  0.4291 -1.2650
 8111SOL     OW24713   0.297   3.265   4.437 -0.3674  0.0609 -0.5344
 8111SOL    HW124714   0.250   3.317   4.372 -0.4906  0.6259  0.0006
 8111SOL    HW224715   0.367   3.323   4.468 -0.1784 -0.2795 -0.3218
 8112SOL     OW24716   4.170   3.804   0.038  0.3784  0.0412 -0.1762
 8112SOL    HW124717   4.132   3.718   0.056  1.5308 -0.8188 -1.6875
 8112SOL    HW224718   4.248   3.808   0.093  0.2321  0.1973  0.0210
 8113SOL     OW24719   5.541   6.155   3.619  0.1672 -0.2951 -0.6417
 8113SOL    HW124720   5.609   6.200   3.669 -1.6871  0.8161  0.9874
 8113SOL    HW224721   5.541   6.066   3.652  0.1420 -0.0182  0.1203
 8114SOL     OW24722   3.911   2.143   4.520 -0.1227  0.3005  0.5467
 8114SOL    HW124723   3.844   2.144   4.452 -0.1755 -0.3873  0.5898
 8114SOL    HW224724   3.868   2.102   4.595  0.6576 -1.0366  0.2645
 8115SOL     OW24725   2.202   4.845   1.853 -0.1262 -0.2576 -0.1679
 8115SOL    HW124726   2.267   4.790   1.808  1.2131 -0.3735  1.8342
 8115SOL    HW224727   2.185   4.799   1.935 -1.4553  0.6765  0.0879
 8116SOL     OW24728   3.114   5.643   0.963  0.0661 -0.3788  0.0199
 8116SOL    HW124729   3.095   5.555   0.931 -1.2105 -0.2834  0.4908
 8116SOL    HW224730   3.054   5.700   0.914  0.5349  0.1735  0.0760
 8117SOL     OW24731   6.057   3.154   0.747  0.1328 -0.1673 -0.6219
 8117SOL    HW124732   5.992   3.150   0.817  0.7007  0.6595 -0.0395
 8117SOL    HW224733   6.011   3.196   0.674 -0.4214 -0.9218 -0.7125
 8118SOL     OW24734   2.836   2.427   2.827 -0.2941 -0.4881 -0.3939
 8118SOL    HW124735   2.745   2.439   2.852 -0.4622 -0.5431 -0.9767
 8118SOL    HW224736   2.884   2.426   2.910 -0.6933  0.6832 -0.1416
 8119SOL     OW24737   4.594   1.573   4.043 -0.0604  0.0198  0.0634
 8119SOL    HW124738   4.634   1.656   4.070 -1.5424  1.1773 -1.2001
 8119SOL    HW224739   4.624   1.560   3.953 -1.0354 -0.0468 -0.2538
 8120SOL     OW24740   2.747   5.762   4.894  0.1544 -0.2106 -0.2862
 8120SOL    HW124741   2.669   5.707   4.902  0.1519 -0.2235 -0.3884
 8120SOL    HW224742   2.755   5.805   4.978  1.1006 -1.6092  0.3700
 8121SOL     OW24743   2.296   0.589   2.308 -0.2907 -0.0590  0.0524
 8121SOL    HW124744   2.323   0.674   2.272  0.0532  0.2351  0.9967
 8121SOL    HW224745   2.209   0.605   2.343 -0.2333 -0.0983  0.2126
 8122SOL     OW24746   4.712   0.664   4.590 -0.3464  0.0268  0.1842
 8122SOL    HW124747   4.788   0.676   4.646  1.2559  0.6556 -2.0726
 8122SOL    HW224748   4.745   0.618   4.513 -1.9957  1.4065 -1.3868
 8123SOL     OW24749   0.840   3.903   1.361 -0.7455 -0.0423 -0.3384
 8123SOL    HW124750   0.841   3.858   1.445  1.1575  0.5134 -0.0520
 8123SOL    HW224751   0.911   3.864   1.311 -1.4655  0.0581 -1.4798
 8124SOL     OW24752   3.443   0.271   3.825  0.5954  0.3037 -0.7155
 8124SOL    HW124753   3.406   0.205   3.882 -0.8153  3.1149  1.7853
 8124SOL    HW224754   3.375   0.286   3.759 -0.3455  1.3002  0.4486
 8125SOL     OW24755   3.936   4.653   0.596  0.6731 -0.1301  0.3140
 8125SOL    HW124756   3.937   4.606   0.679 -0.6339  0.3835  0.6322
 8125SOL    HW224757   3.957   4.744   0.619  1.1249 -0.1455 -0.0279
 8126SOL     OW24758   3.065   4.173   0.477  0.1143  0.8121  0.5136
 8126SOL    HW124759   3.090   4.221   0.398 -2.1390  1.2727  0.0439
 8126SOL    HW224760   3.141   4.180   0.534  1.0942  2.0510 -0.8967
 8127SOL     OW24761   0.586   4.341   4.898  0.2596 -0.5669 -0.2968
 8127SOL    HW124762   0.505   4.385   4.923  0.7487  0.4541 -0.4793
 8127SOL    HW224763   0.560   4.250   4.882 -1.3108  0.2449 -2.6793
 8128SOL     OW24764   5.011   2.476   5.750 -0.3538  0.0203  0.3707
 8128SOL    HW124765   5.097   2.446   5.781 -0.7149  0.6528  2.0320
 8128SOL    HW224766   4.956   2.398   5.752 -0.3861  0.0609  1.4143
 8129SOL     OW24767   4.388   3.896   2.730  0.4864 -0.3630 -0.0514
 8129SOL    HW124768   4.381   3.900   2.635  1.0541 -2.4486 -0.2180
 8129SOL    HW224769   4.297   3.893   2.761  0.3065 -1.8172 -0.6736
 8130SOL     OW24770   4.087   1.796   2.330 -0.1080  0.1050 -0.4531
 8130SOL    HW124771   4.021   1.739   2.292 -0.5510  0.0606  0.3772
 8130SOL    HW224772   4.048   1.884   2.326  0.0662  0.1757 -0.6006
 8131SOL     OW24773   0.669   1.226   4.884  0.0682 -0.0027  0.5321
 8131SOL    HW124774   0.614   1.169   4.938  0.9698 -1.8319 -0.4129
 8131SOL    HW224775   0.719   1.165   4.829  4.2125  1.4900  2.4523
 8132SOL     OW24776   4.331   4.305   2.921  0.3144 -0.0830  0.0657
 8132SOL    HW124777   4.268   4.374   2.905  0.7982  0.3436 -0.0122
 8132SOL    HW224778   4.403   4.348   2.969  0.8323 -0.4198 -0.4039
 8133SOL     OW24779   0.527   0.072   2.800 -0.0121 -0.3693  0.1599
 8133SOL    HW124780   0.575   0.011   2.744  0.1507  0.0591 -0.1779
 8133SOL    HW224781   0.438   0.071   2.766  0.1928  0.2417 -0.4166
 8134SOL     OW24782   4.358   1.546   4.665  0.4468  0.2963 -0.5513
 8134SOL    HW124783   4.372   1.607   4.738 -1.1235  1.4895 -1.2151
 8134SOL    HW224784   4.268   1.515   4.677  1.1135 -1.7019 -0.3988
 8135SOL     OW24785   1.632   5.045   1.845 -0.4835 -0.5265 -0.6742
 8135SOL    HW124786   1.569   4.984   1.882 -0.8657  1.2014  1.6171
 8135SOL    HW224787   1.614   5.128   1.889  3.0614  0.1221 -0.3404
 8136SOL     OW24788   1.287   1.966   2.969 -0.0894 -0.3978 -0.0110
 8136SOL    HW124789   1.321   2.052   2.992 -1.4451 -0.1584  1.2116
 8136SOL    HW224790   1.243   1.978   2.885 -1.6861  0.5085  0.9182
 8137SOL     OW24791   0.429   0.900   2.004 -0.4503  0.1233  0.0276
 8137SOL    HW124792   0.496   0.967   1.993  1.4550 -1.7100  0.0678
 8137SOL    HW224793   0.391   0.888   1.917 -0.6352  1.0788 -0.0246
 8138SOL     OW24794   1.478   2.811   2.660 -0.0032  0.1701  0.0948
 8138SOL    HW124795   1.446   2.886   2.610  0.4114  0.2812 -0.0070
 8138SOL    HW224796   1.541   2.768   2.602  0.7163  0.4820  0.6395
 8139SOL     OW24797   1.985   3.047   5.840  0.1830  0.4323 -0.6139
 8139SOL    HW124798   1.930   3.118   5.874  0.8375 -0.0095  1.4714
 8139SOL    HW224799   2.065   3.090   5.811  1.1004  0.4335  1.8445
 8140SOL     OW24800   3.006   0.206   3.544  0.8712  0.2929  0.0617
 8140SOL    HW124801   2.968   0.283   3.503  0.8785  0.9677  1.3194
 8140SOL    HW224802   3.091   0.236   3.578  1.1085 -0.3996  0.0980
 8141SOL     OW24803   2.481   5.847   4.533 -0.4204  0.4135 -0.0100
 8141SOL    HW124804   2.569   5.831   4.500  0.0396  0.4218  1.2212
 8141SOL    HW224805   2.468   5.784   4.603 -1.0099  1.0794  0.4981
 8142SOL     OW24806   5.654   4.996   0.059  0.0712  0.4097 -0.1340
 8142SOL    HW124807   5.612   5.034   0.136 -0.5484 -1.0634  0.2748
 8142SOL    HW224808   5.729   4.947   0.093 -0.3348 -0.4349 -0.4406
 8143SOL     OW24809   1.683   5.517   2.668  0.6440 -1.1491  0.4121
 8143SOL    HW124810   1.698   5.611   2.663  0.1711 -1.1283 -0.7350
 8143SOL    HW224811   1.589   5.509   2.686  0.8056 -1.4007  1.1917
 8144SOL     OW24812   3.899   2.822   3.073  0.2415 -0.7065 -0.1371
 8144SOL    HW124813   3.983   2.805   3.030 -0.1812 -2.6962 -0.2104
 8144SOL    HW224814   3.841   2.850   3.003  0.8506  0.7825 -0.0699
 8145SOL     OW24815   6.345   5.646   4.145 -0.4881  0.3675  0.0585
 8145SOL    HW124816   6.321   5.710   4.078 -3.2411 -1.2537 -0.5451
 8145SOL    HW224817   6.262   5.622   4.187  0.7538 -1.2804  1.6758
 8146SOL     OW24818   3.836   2.573   3.796 -0.2343 -0.4198  0.1167
 8146SOL    HW124819   3.789   2.532   3.868  0.2129 -0.8178  0.1829
 8146SOL    HW224820   3.913   2.518   3.783  0.2511  0.2694  0.0582
 8147SOL     OW24821   3.624   0.028   0.147  0.2688 -0.2835  0.1311
 8147SOL    HW124822   3.640  -0.016   0.231  2.8463  0.0767 -0.1358
 8147SOL    HW224823   3.688  -0.010   0.087  1.4909  2.6437 -0.5134
 8148SOL     OW24824   0.951   3.503   4.877 -0.5678 -0.2421  0.1317
 8148SOL    HW124825   1.017   3.565   4.845  0.4025 -0.9452  0.7810
 8148SOL    HW224826   0.996   3.452   4.943 -2.0354 -0.1041  1.2482
 8149SOL     OW24827   4.654   2.242   4.347 -0.2777  0.1381 -0.2713
 8149SOL    HW124828   4.707   2.321   4.354 -1.6632  1.0144  0.6654
 8149SOL    HW224829   4.589   2.263   4.280 -0.6376 -0.2137 -0.0348
 8150SOL     OW24830   6.123   2.108   2.649  0.1455 -0.4166 -0.4202
 8150SOL    HW124831   6.203   2.119   2.700 -0.3696  1.2328  0.0798
 8150SOL    HW224832   6.105   2.196   2.614 -1.8653 -0.5985  0.1077
 8151SOL     OW24833   5.803   5.355   3.691  0.1556  0.0711  0.6524
 8151SOL    HW124834   5.856   5.336   3.614 -0.0582  0.7694  0.3272
 8151SOL    HW224835   5.828   5.444   3.717 -0.4216  0.1839  0.8493
 8152SOL     OW24836   2.513   1.555   3.067  0.2063 -1.0004  0.3654
 8152SOL    HW124837   2.586   1.532   3.008 -0.8053 -1.8042 -0.5998
 8152SOL    HW224838   2.475   1.470   3.092 -2.2673 -0.5125 -1.5593
 8153SOL     OW24839   1.120   2.609   3.493 -0.1719  0.1439 -0.3568
 8153SOL    HW124840   1.055   2.604   3.422 -0.9227  0.3010  0.3133
 8153SOL    HW224841   1.079   2.561   3.565  1.1994 -1.2651 -0.4861
 8154SOL     OW24842   3.203   6.084   1.829  0.4254  0.1397 -0.2074
 8154SOL    HW124843   3.126   6.120   1.873  0.6438  1.9880 -1.2627
 8154SOL    HW224844   3.184   6.096   1.736  0.2201 -3.1685 -0.6522
 8155SOL     OW24845   6.237   0.579   0.617  0.8727 -0.1485  0.4509
 8155SOL    HW124846   6.222   0.570   0.711 -0.5637 -1.3560  0.1108
 8155SOL    HW224847   6.223   0.492   0.582 -1.2242  0.8245 -1.2283
 8156SOL     OW24848   1.940   5.903   2.883 -0.0945 -0.1692  0.0438
 8156SOL    HW124849   1.847   5.882   2.895  0.1549 -0.8132  0.9208
 8156SOL    HW224850   1.977   5.825   2.840  0.3292 -0.5014  1.0073
 8157SOL     OW24851   2.891   1.375   4.094 -0.2221 -0.4265  0.0662
 8157SOL    HW124852   2.952   1.449   4.103 -0.5622 -0.2481  1.0537
 8157SOL    HW224853   2.935   1.303   4.139  0.0804 -0.8086 -0.8409
 8158SOL     OW24854   0.468   5.106   1.837 -0.0688  0.3095  0.0417
 8158SOL    HW124855   0.487   5.189   1.882  0.4058  0.9084 -1.2279
 8158SOL    HW224856   0.462   5.042   1.907 -0.1082  1.3640  1.0238
 8159SOL     OW24857   5.100   2.429   3.618 -0.1112  0.3385  0.1197
 8159SOL    HW124858   5.132   2.502   3.671 -2.3232  1.2693  0.2307
 8159SOL    HW224859   5.081   2.468   3.533 -1.5189 -0.0211  0.2472
 8160SOL     OW24860   0.734   0.415   6.042  0.3822  0.6041 -0.0290
 8160SOL    HW124861   0.794   0.417   5.967 -1.0827 -0.2298 -1.2592
 8160SOL    HW224862   0.660   0.363   6.011  0.2350 -0.6943  2.3808
 8161SOL     OW24863   4.454   2.526   5.823 -0.0280 -1.0316 -0.2910
 8161SOL    HW124864   4.488   2.488   5.742  0.7553 -0.1512 -0.3858
 8161SOL    HW224865   4.529   2.525   5.883 -0.3257 -0.7450  0.0863
 8162SOL     OW24866   1.287   3.300   1.243 -0.4015 -0.2144  0.1311
 8162SOL    HW124867   1.342   3.236   1.288 -0.8833  1.4699  3.2392
 8162SOL    HW224868   1.223   3.246   1.196  1.5270 -2.0815 -0.4587
 8163SOL     OW24869   1.950   1.558   5.362 -0.0012 -0.0769 -0.0417
 8163SOL    HW124870   2.014   1.588   5.426  1.7247 -1.9891 -0.8280
 8163SOL    HW224871   1.868   1.601   5.388  1.6943  2.9499  0.5898
 8164SOL     OW24872   5.917   5.169   5.213  0.3346  0.2916 -0.5510
 8164SOL    HW124873   5.927   5.263   5.196  0.0240  0.1409 -1.5986
 8164SOL    HW224874   5.838   5.163   5.267 -0.1897  0.5671 -1.2636
 8165SOL     OW24875   3.262   4.773   0.516 -0.3564 -0.1968  0.3441
 8165SOL    HW124876   3.206   4.705   0.554  0.8331 -0.9786  0.7670
 8165SOL    HW224877   3.210   4.812   0.447 -1.0227 -1.6461  0.0083
 8166SOL     OW24878   4.968   2.211   3.281  0.4087 -0.1731 -0.5158
 8166SOL    HW124879   4.999   2.289   3.236  1.0339 -0.2471 -0.2154
 8166SOL    HW224880   5.027   2.200   3.355 -0.2792 -0.3666  0.0137
 8167SOL     OW24881   3.574   0.723   0.766 -0.0518 -0.2752 -0.7501
 8167SOL    HW124882   3.622   0.642   0.780 -0.5926 -0.6262 -0.9362
 8167SOL    HW224883   3.637   0.782   0.724  0.6067 -0.3038  0.1813
 8168SOL     OW24884   2.623   2.374   3.649  0.4275 -0.6137 -0.1788
 8168SOL    HW124885   2.540   2.391   3.693 -0.4092  1.1238 -2.3341
 8168SOL    HW224886   2.686   2.361   3.720 -0.9225  1.9010  1.5435
 8169SOL     OW24887   5.182   5.855   1.703 -0.0797  0.3556 -0.0086
 8169SOL    HW124888   5.129   5.799   1.646 -0.5013 -1.4644  2.1196
 8169SOL    HW224889   5.270   5.819   1.696 -0.0905  0.2652  0.3216
 8170SOL     OW24890   3.471   1.602   1.175  0.2040 -0.3141  0.2630
 8170SOL    HW124891   3.437   1.542   1.108 -0.6629  1.1310 -0.6018
 8170SOL    HW224892   3.532   1.659   1.129  0.4772 -0.0470  0.9416
 8171SOL     OW24893   5.154   2.892   0.949 -0.1068  0.2457 -0.3828
 8171SOL    HW124894   5.150   2.920   1.040  1.5756  1.4327 -0.6433
 8171SOL    HW224895   5.224   2.945   0.911 -0.5381 -0.5013 -2.2720
 8172SOL     OW24896   3.986   3.204   0.043  0.3680 -0.4680 -0.4419
 8172SOL    HW124897   3.957   3.191  -0.048  1.6538 -0.3125 -0.8803
 8172SOL    HW224898   3.904   3.216   0.092 -0.4105 -1.6614 -1.3880
 8173SOL     OW24899   0.461   6.153   1.801  0.0253 -0.1358 -0.1127
 8173SOL    HW124900   0.495   6.147   1.889  2.2312  0.9142 -0.8593
 8173SOL    HW224901   0.512   6.223   1.760 -1.5239 -0.0320 -1.9548
 8174SOL     OW24902   5.416   2.178   1.237 -0.8076  0.4676 -0.3810
 8174SOL    HW124903   5.440   2.115   1.169  2.4963  1.4999 -0.2892
 8174SOL    HW224904   5.397   2.259   1.189  1.7187  1.2517 -0.1358
 8175SOL     OW24905   5.019   3.545   1.401  0.0695  0.2845  0.8938
 8175SOL    HW124906   5.089   3.503   1.452 -1.1895 -3.2216 -0.1501
 8175SOL    HW224907   4.939   3.500   1.428 -1.3228  1.8371 -0.5245
 8176SOL     OW24908   3.074   0.755   0.633  0.3082 -0.1696 -0.0231
 8176SOL    HW124909   3.160   0.795   0.627 -0.5126  1.4316 -1.6791
 8176SOL    HW224910   3.060   0.714   0.547 -0.8604  0.2274 -0.0387
 8177SOL     OW24911   2.722   4.758   5.308  0.0384  0.4368 -0.5052
 8177SOL    HW124912   2.702   4.838   5.358 -0.4537 -0.0960  0.1673
 8177SOL    HW224913   2.806   4.729   5.343 -0.5040 -0.1625  0.3100
 8178SOL     OW24914   5.915   3.416   1.948  0.4022 -0.2276  0.3452
 8178SOL    HW124915   5.847   3.349   1.944 -0.2286  0.4340 -0.0818
 8178SOL    HW224916   5.871   3.497   1.923  0.1812  1.1029  4.5741
 8179SOL     OW24917   4.974   2.452   4.229 -0.0423  0.3053 -0.2269
 8179SOL    HW124918   5.030   2.497   4.166 -0.0243  2.2850  1.1328
 8179SOL    HW224919   5.028   2.444   4.308 -1.0194  0.5741  0.4931
 8180SOL     OW24920   5.431   2.636   0.865 -0.2860 -0.7467 -0.1642
 8180SOL    HW124921   5.348   2.592   0.846 -0.3196 -0.7914  0.0823
 8180SOL    HW224922   5.474   2.579   0.929 -0.6092 -0.0957  0.6340
 8181SOL     OW24923   5.739   1.965   3.849 -0.1765  0.2353 -0.4347
 8181SOL    HW124924   5.713   1.889   3.901 -0.8074  0.4121 -0.4821
 8181SOL    HW224925   5.813   1.934   3.796  0.5077  0.0693  0.5990
 8182SOL     OW24926   3.045   3.585   4.557  0.5278  0.2415  0.3367
 8182SOL    HW124927   3.047   3.500   4.601 -0.6798  0.1535  0.2464
 8182SOL    HW224928   3.102   3.574   4.481  1.4690 -0.0533  1.0625
 8183SOL     OW24929   1.569   4.611   2.431 -0.8710 -0.3259 -0.4507
 8183SOL    HW124930   1.573   4.663   2.351 -1.2300  0.6288  0.1408
 8183SOL    HW224931   1.480   4.623   2.463 -0.6289 -0.4217  0.2728
 8184SOL     OW24932   1.556   5.524   5.529  0.8784 -0.2693  0.0632
 8184SOL    HW124933   1.592   5.578   5.459  1.4779  0.4491  0.9113
 8184SOL    HW224934   1.627   5.463   5.551  1.0332  0.1393  0.6988
 8185SOL     OW24935   5.296   0.386   1.689  0.3698  0.5197 -0.8008
 8185SOL    HW124936   5.235   0.326   1.730  1.1179 -0.0714 -0.5394
 8185SOL    HW224937   5.265   0.473   1.713 -0.4423  0.2257 -0.7880
 8186SOL     OW24938   3.989   0.016   5.528 -0.0746 -0.1257  0.5527
 8186SOL    HW124939   3.912   0.063   5.497 -0.2273 -0.4640  0.4114
 8186SOL    HW224940   4.030  -0.017   5.448  0.4262  0.3686  0.5969
 8187SOL     OW24941   0.806   0.878   3.180 -0.3704  0.3204  0.1732
 8187SOL    HW124942   0.724   0.885   3.229 -0.5029  0.4709 -0.0688
 8187SOL    HW224943   0.872   0.920   3.235 -0.4118 -0.0140  0.4753
 8188SOL     OW24944   3.535   1.024   2.823  0.2281  0.2410  0.1462
 8188SOL    HW124945   3.507   1.105   2.867  2.1605  0.0654  1.7817
 8188SOL    HW224946   3.492   0.954   2.873  0.6309  0.1479  0.3662
 8189SOL     OW24947   2.831   1.147   1.170  0.6450  0.1630 -0.4499
 8189SOL    HW124948   2.744   1.122   1.138  0.8035 -0.5968 -0.2952
 8189SOL    HW224949   2.848   1.233   1.130 -0.5230  0.6976  0.1794
 8190SOL     OW24950   5.510   3.810   4.187 -0.4781 -0.0471  0.3013
 8190SOL    HW124951   5.565   3.737   4.216 -1.4238 -0.3332  1.3995
 8190SOL    HW224952   5.431   3.804   4.241  0.0581  2.6719  1.5121
 8191SOL     OW24953   1.648   5.732   0.419 -0.2103  0.0511  0.2754
 8191SOL    HW124954   1.619   5.805   0.474  0.2122  0.9109 -0.6221
 8191SOL    HW224955   1.743   5.730   0.431 -0.2355 -0.4181  0.3824
 8192SOL     OW24956   3.677   1.808   3.004 -0.5631  0.1833 -0.7405
 8192SOL    HW124957   3.582   1.796   3.007 -0.7253  1.6336  0.1662
 8192SOL    HW224958   3.708   1.777   3.090 -0.6985  3.5951  0.6024
 8193SOL     OW24959   1.577   1.030   5.800 -0.3155 -0.0349  0.0804
 8193SOL    HW124960   1.646   1.002   5.860 -0.3454 -1.9464 -0.7187
 8193SOL    HW224961   1.514   1.076   5.855  0.7096  0.1318  1.1357
 8194SOL     OW24962   2.175   4.786   3.604 -0.4160  0.0026  0.3363
 8194SOL    HW124963   2.101   4.846   3.611  1.0335  1.9315 -0.1837
 8194SOL    HW224964   2.199   4.768   3.695  0.8299  2.4612  0.5495
 8195SOL     OW24965   3.268   5.909   5.305  0.3313  0.1640 -0.1667
 8195SOL    HW124966   3.200   5.862   5.257 -1.0811 -1.1991  3.0247
 8195SOL    HW224967   3.221   5.952   5.376  2.3558  2.2344 -0.0193
 8196SOL     OW24968   3.296   1.846   1.171  0.3465  0.3128 -0.3907
 8196SOL    HW124969   3.334   1.765   1.205  0.0952  0.5681  0.5176
 8196SOL    HW224970   3.352   1.915   1.204 -0.7741  0.6792  0.8044
 8197SOL     OW24971   1.297   1.141   5.602 -0.4177  0.2251 -0.0397
 8197SOL    HW124972   1.228   1.127   5.537  0.3940 -2.2434 -0.4188
 8197SOL    HW224973   1.338   1.055   5.613  1.8766  1.4023  1.0205
 8198SOL     OW24974   3.475   4.683   0.664  0.5935  0.4577  0.2758
 8198SOL    HW124975   3.546   4.680   0.600  0.8359 -0.9647  0.6091
 8198SOL    HW224976   3.399   4.714   0.614  1.8708  4.0228  0.3557
 8199SOL     OW24977   5.140   0.067   5.957  0.2476 -0.2746 -0.3831
 8199SOL    HW124978   5.062   0.014   5.941  0.5551 -0.7167 -0.4431
 8199SOL    HW224979   5.109   0.141   6.009 -0.1683 -0.5663 -0.2160
 8200SOL     OW24980   1.996   4.965   1.736  0.2027  0.3069 -0.6661
 8200SOL    HW124981   2.057   4.910   1.783 -0.1910  1.1304  0.8513
 8200SOL    HW224982   1.910   4.925   1.750 -0.1737  1.6404  1.0077
 8201SOL     OW24983   3.946   2.916   0.829  0.1224  0.0876 -0.3275
 8201SOL    HW124984   3.888   2.937   0.756  0.6324  1.3981 -0.3737
 8201SOL    HW224985   3.922   2.979   0.898 -2.3231 -2.9567  1.7224
 8202SOL     OW24986   1.333   3.069   0.542  0.1226 -0.2944  0.0870
 8202SOL    HW124987   1.254   3.104   0.501 -0.8425 -0.4033  1.7925
 8202SOL    HW224988   1.399   3.137   0.529 -0.3302 -0.0637 -1.0745
 8203SOL     OW24989   4.351   3.593   3.710 -0.4679  1.0889  0.1534
 8203SOL    HW124990   4.297   3.529   3.663  0.6991 -0.3970  0.7687
 8203SOL    HW224991   4.393   3.645   3.642  0.3559 -0.3200 -0.4328
 8204SOL     OW24992   6.084   0.574   4.358  0.1099  0.6167 -0.2358
 8204SOL    HW124993   6.143   0.573   4.283 -0.9380  0.5998 -1.0683
 8204SOL    HW224994   6.112   0.650   4.409  0.0540  1.3475 -1.2756
 8205SOL     OW24995   4.211   6.349   3.553  0.3072  0.3779  0.0874
 8205SOL    HW124996   4.306   6.334   3.558  0.3417  0.3828 -0.5901
 8205SOL    HW224997   4.184   6.304   3.474 -0.2927  0.2112  0.3876
 8206SOL     OW24998   5.827   4.060   5.971  0.4824 -0.7082 -0.2543
 8206SOL    HW124999   5.834   4.008   5.892  1.5189 -0.9223 -0.0353
 8206SOL    HW225000   5.790   4.144   5.942  0.0170 -1.1100 -0.8103
 8207SOL     OW25001   2.515   4.620   2.933  0.5057 -0.4528 -0.1105
 8207SOL    HW125002   2.472   4.543   2.894  0.0434 -0.9072  1.2595
 8207SOL    HW225003   2.512   4.603   3.028  1.8969  0.4733  0.1077
 8208SOL     OW25004   2.861   5.164   4.654 -0.6043 -0.2282  0.0756
 8208SOL    HW125005   2.871   5.259   4.654  0.7809 -0.3289 -2.4713
 8208SOL    HW225006   2.790   5.147   4.591  0.5343 -0.9631 -1.0386
 8209SOL     OW25007   1.953   3.200   1.080 -0.4274 -0.0234 -0.2001
 8209SOL    HW125008   1.924   3.264   1.015  1.7042 -1.3363 -2.5690
 8209SOL    HW225009   2.048   3.209   1.082 -0.2833 -1.5507  1.0795
 8210SOL     OW25010   4.214   5.011   3.715 -0.4263 -0.1803 -0.4641
 8210SOL    HW125011   4.124   5.004   3.681  0.3310  0.4505 -2.6688
 8210SOL    HW225012   4.262   4.942   3.669  0.6569  0.7813 -0.7855
 8211SOL     OW25013   5.204   4.019   1.374  0.1990  0.1296 -0.4947
 8211SOL    HW125014   5.126   3.977   1.339  1.3828 -2.7529  0.2387
 8211SOL    HW225015   5.241   3.956   1.435 -0.0125  3.7335  3.5933
 8212SOL     OW25016   3.307   5.838   1.887  0.4877  0.0341  0.2609
 8212SOL    HW125017   3.280   5.926   1.860  0.4900  0.2304  0.8841
 8212SOL    HW225018   3.266   5.780   1.823  0.7086  0.5080 -0.3103
 8213SOL     OW25019   6.075   6.208   4.178  0.7286  0.2012  0.4017
 8213SOL    HW125020   5.987   6.212   4.141  0.3209 -0.2790  1.2922
 8213SOL    HW225021   6.089   6.293   4.218  0.0047 -0.2780  1.7119
 8214SOL     OW25022   4.508   5.404   1.706  0.2395  0.4263  0.0057
 8214SOL    HW125023   4.516   5.452   1.623  1.6556 -1.0321 -0.7251
 8214SOL    HW225024   4.425   5.357   1.698  0.5743 -0.0437 -0.7613
 8215SOL     OW25025   2.226   0.249   0.225 -0.5281  0.7766  0.4693
 8215SOL    HW125026   2.314   0.286   0.239 -0.5307  1.2828 -0.8003
 8215SOL    HW225027   2.212   0.257   0.131 -2.3515  1.6040  0.8017
 8216SOL     OW25028   1.232   1.346   2.021  0.3594  0.0381  0.1519
 8216SOL    HW125029   1.174   1.301   2.083 -0.3169  2.0640  1.0060
 8216SOL    HW225030   1.178   1.413   1.980  1.2395 -0.1992 -1.4616
 8217SOL     OW25031   4.370   1.737   4.168  0.5539 -0.6352 -0.2952
 8217SOL    HW125032   4.363   1.679   4.244 -2.8655 -0.6219 -0.5535
 8217SOL    HW225033   4.451   1.709   4.124  2.6622 -0.5895  3.3273
 8218SOL     OW25034   1.578   5.187   3.248 -0.0760 -0.0422 -0.0677
 8218SOL    HW125035   1.620   5.122   3.305 -1.3686 -1.8884 -1.1675
 8218SOL    HW225036   1.491   5.198   3.285 -1.1812 -1.7980 -2.0599
 8219SOL     OW25037   3.140   3.421   5.692 -0.1463  0.2017  0.0647
 8219SOL    HW125038   3.091   3.341   5.673  1.1625 -0.7071  0.4157
 8219SOL    HW225039   3.161   3.414   5.785  0.6671  0.5503 -0.0872
 8220SOL     OW25040   0.753   4.481   5.378  0.3051  0.2651 -0.2366
 8220SOL    HW125041   0.775   4.529   5.459  0.1642  0.7515 -0.4822
 8220SOL    HW225042   0.665   4.511   5.356 -0.6238 -1.6738  0.7416
 8221SOL     OW25043   4.653   5.080   1.330 -0.1001  0.2934  0.3367
 8221SOL    HW125044   4.668   5.106   1.239 -0.0860  3.2089  1.1090
 8221SOL    HW225045   4.739   5.083   1.371 -0.3213  0.5319  0.7979
 8222SOL     OW25046   5.484   1.010   0.277  0.7641 -0.2483  0.2845
 8222SOL    HW125047   5.484   0.976   0.188  2.9906  0.7740 -0.1515
 8222SOL    HW225048   5.546   0.954   0.324  0.5260 -0.0162  0.8807
 8223SOL     OW25049   3.535   4.813   3.991  0.4613  0.2994 -0.8377
 8223SOL    HW125050   3.616   4.771   3.963 -0.6710 -0.2559 -3.4655
 8223SOL    HW225051   3.480   4.741   4.021 -0.0016  0.3460 -1.5481
 8224SOL     OW25052   1.268   5.900   2.378 -0.5254  0.0641 -0.5210
 8224SOL    HW125053   1.251   5.953   2.301 -0.8029  1.2413  0.3381
 8224SOL    HW225054   1.319   5.825   2.346 -2.1144 -0.3618 -2.1305
 8225SOL     OW25055   2.302   1.584   4.540  0.3673  0.0633 -0.2564
 8225SOL    HW125056   2.365   1.637   4.589 -0.3204  1.6224 -1.0017
 8225SOL    HW225057   2.239   1.555   4.606 -1.9569  4.2012 -0.4561
 8226SOL     OW25058   4.383   1.975   0.887 -0.3886  0.4712 -0.0698
 8226SOL    HW125059   4.367   1.947   0.977 -0.1471  2.5294  0.6285
 8226SOL    HW225060   4.439   2.053   0.894  1.0040 -0.2888 -2.0650
 8227SOL     OW25061   3.747   6.338   2.254  0.2924  0.1685  0.1695
 8227SOL    HW125062   3.774   6.335   2.346  0.7333  3.1262  0.1781
 8227SOL    HW225063   3.814   6.391   2.212 -0.9486  0.4453 -1.4919
 8228SOL     OW25064   5.704   1.626   3.487  0.3619 -0.1609 -0.2750
 8228SOL    HW125065   5.782   1.632   3.432 -0.2683  2.4951 -0.9919
 8228SOL    HW225066   5.667   1.714   3.483 -2.3918 -1.2533  0.4529
 8229SOL     OW25067   2.396   0.160   1.541  0.0076  0.8495  0.2513
 8229SOL    HW125068   2.408   0.224   1.610 -0.4368  0.0371  1.0956
 8229SOL    HW225069   2.397   0.075   1.586  0.0202  0.2977 -0.7693
 8230SOL     OW25070   2.256   1.839   1.100  0.6242  0.4013 -0.5706
 8230SOL    HW125071   2.208   1.757   1.114 -1.2705  1.4673 -0.7841
 8230SOL    HW225072   2.219   1.901   1.162  1.1209  1.4754 -1.3233
 8231SOL     OW25073   6.252   4.401   3.598  0.1844  0.1330 -0.2413
 8231SOL    HW125074   6.298   4.475   3.559 -1.7508  0.0103 -2.9299
 8231SOL    HW225075   6.166   4.436   3.623 -1.2099 -1.4112 -2.6727
 8232SOL     OW25076   0.085   1.607   3.862  0.0483 -0.4113  0.3453
 8232SOL    HW125077   0.171   1.571   3.886 -0.1593 -2.2508 -1.4857
 8232SOL    HW225078   0.102   1.700   3.846  1.8958 -0.8822 -0.7011
 8233SOL     OW25079   0.349   5.957   0.970  0.0041  0.3182  0.2196
 8233SOL    HW125080   0.276   5.924   0.918  1.1087  0.5109 -1.4939
 8233SOL    HW225081   0.416   5.982   0.906  1.8463 -0.4534  1.7630
 8234SOL     OW25082   0.796   4.679   2.014  0.1058 -0.5306  0.3265
 8234SOL    HW125083   0.746   4.622   2.072 -1.0760  2.3574  2.3143
 8234SOL    HW225084   0.789   4.766   2.054  2.4045  0.9082 -2.1745
 8235SOL     OW25085   5.460   4.344   0.576  0.1001 -0.3254  0.0632
 8235SOL    HW125086   5.485   4.424   0.623  1.9836 -1.1116  0.4445
 8235SOL    HW225087   5.439   4.281   0.645 -3.0408  0.3091 -0.2502
 8236SOL     OW25088   4.927   1.605   0.400 -0.1432 -0.3567  0.6376
 8236SOL    HW125089   4.842   1.592   0.441 -0.8298  0.4099 -0.5061
 8236SOL    HW225090   4.957   1.517   0.378 -0.2422 -0.6889  1.8098
 8237SOL     OW25091   2.579   0.160   1.244 -0.4462  0.2002 -0.0643
 8237SOL    HW125092   2.593   0.089   1.307  0.2611  0.2247 -0.1897
 8237SOL    HW225093   2.649   0.223   1.264  1.3418 -0.9406 -2.5185
 8238SOL     OW25094   1.364   3.224   4.124  0.4812 -0.1254 -0.6028
 8238SOL    HW125095   1.441   3.281   4.130  0.6119 -0.3799  0.1774
 8238SOL    HW225096   1.299   3.265   4.182  0.4650 -0.5841 -0.2877
 8239SOL     OW25097   6.134   0.673   4.656  0.7684 -0.0723  0.3538
 8239SOL    HW125098   6.044   0.673   4.689  0.5603  1.5086 -0.1779
 8239SOL    HW225099   6.168   0.586   4.679 -0.8394 -0.6287  0.6834
 8240SOL     OW25100   5.493   3.859   2.116 -0.6057  0.3093  0.3618
 8240SOL    HW125101   5.500   3.905   2.032 -0.5737 -0.9523 -0.3440
 8240SOL    HW225102   5.426   3.908   2.164 -0.5693  1.0986 -0.3577
 8241SOL     OW25103   4.777   5.694   4.325 -0.0545  0.4441  0.1665
 8241SOL    HW125104   4.686   5.726   4.324  0.2695  1.4317  1.5201
 8241SOL    HW225105   4.823   5.755   4.383  1.1772 -0.9014  0.6119
 8242SOL     OW25106   0.830   1.033   5.109  0.6236  0.1682 -0.0907
 8242SOL    HW125107   0.767   0.962   5.100  1.5552 -0.7858  0.7173
 8242SOL    HW225108   0.787   1.096   5.167 -0.2452  0.3144 -0.8835
 8243SOL     OW25109   0.372   3.487   2.302  0.2490  0.4867  0.1868
 8243SOL    HW125110   0.432   3.496   2.228 -0.6852  0.1130 -0.6205
 8243SOL    HW225111   0.429   3.462   2.375  1.0115 -0.5280 -0.7263
 8244SOL     OW25112   3.218   3.980   4.377 -0.1344 -0.0228  0.4208
 8244SOL    HW125113   3.162   4.057   4.366  0.6121  0.2512 -1.5481
 8244SOL    HW225114   3.197   3.924   4.303  1.4105 -0.4097  0.2631
 8245SOL     OW25115   1.959   4.417   0.424 -0.1444 -0.1392  0.1520
 8245SOL    HW125116   1.986   4.365   0.349 -2.0424 -1.1729  0.1468
 8245SOL    HW225117   1.934   4.353   0.490 -3.5929  0.6992 -0.2430
 8246SOL     OW25118   0.360   5.695   2.343 -0.4300  0.4695 -0.3248
 8246SOL    HW125119   0.369   5.753   2.267 -2.7632  0.2454 -0.8119
 8246SOL    HW225120   0.382   5.608   2.310  1.6403  0.8259  0.0513
 8247SOL     OW25121   1.524   1.325   2.776 -0.3199  0.2338  0.7343
 8247SOL    HW125122   1.484   1.281   2.851 -0.3748 -1.2785 -0.1462
 8247SOL    HW225123   1.606   1.278   2.762 -0.0290  0.8906  0.2261
 8248SOL     OW25124   3.541   5.053   0.104 -0.2994 -0.0379  0.0133
 8248SOL    HW125125   3.608   4.994   0.138 -0.9555 -1.4994 -1.1801
 8248SOL    HW225126   3.497   5.088   0.182  1.1257  0.0945  0.7678
 8249SOL     OW25127   0.038   6.145   4.382 -0.5350  0.0565 -0.3227
 8249SOL    HW125128   0.020   6.061   4.339  1.2471  0.0074 -1.0145
 8249SOL    HW225129   0.053   6.206   4.310  1.2398  0.2600  0.2111
 8250SOL     OW25130   6.041   3.610   1.210  0.6121  0.2871 -0.2367
 8250SOL    HW125131   5.986   3.532   1.220  0.7452  0.2188 -0.0342
 8250SOL    HW225132   5.988   3.681   1.248  0.3865  0.3396 -0.6524
 8251SOL     OW25133   4.743   3.598   1.596  0.6381  0.3337 -0.2940
 8251SOL    HW125134   4.665   3.545   1.581  1.4435 -1.0199  0.2818
 8251SOL    HW225135   4.774   3.571   1.683  1.2486  1.5057 -0.1407
 8252SOL     OW25136   5.073   0.804   4.194 -0.9406 -0.4334  0.2924
 8252SOL    HW125137   5.042   0.892   4.213  0.0511  0.1543 -0.7924
 8252SOL    HW225138   5.027   0.779   4.113 -1.0542 -0.8272  0.4758
 8253SOL     OW25139   5.171   0.606   2.392 -0.6432  0.2155 -0.0439
 8253SOL    HW125140   5.141   0.515   2.394  0.6815 -0.2505 -0.7675
 8253SOL    HW225141   5.261   0.602   2.423 -0.2763  1.1462 -0.9455
 8254SOL     OW25142   5.147   5.376   3.702  0.1366  0.0857 -0.1901
 8254SOL    HW125143   5.145   5.471   3.704  2.2798  0.1476 -0.6001
 8254SOL    HW225144   5.133   5.354   3.610  0.9406  0.0410 -0.3017
 8255SOL     OW25145   5.008   4.571   1.276 -0.2035  0.5376 -0.2640
 8255SOL    HW125146   5.022   4.644   1.215 -2.0212 -0.1024 -1.4977
 8255SOL    HW225147   5.004   4.493   1.220  1.7772 -0.5349  1.0471
 8256SOL     OW25148   3.746   0.258   4.512  0.3602 -0.4512  0.5552
 8256SOL    HW125149   3.762   0.346   4.477  1.3556 -0.6129  0.5617
 8256SOL    HW225150   3.804   0.252   4.588 -1.1750 -0.4081  1.7516
 8257SOL     OW25151   0.713   6.120   2.784  0.4332 -0.2338 -0.2219
 8257SOL    HW125152   0.628   6.114   2.739  0.5360 -3.6153 -0.0863
 8257SOL    HW225153   0.777   6.127   2.713  0.1647  0.4691 -0.3941
 8258SOL     OW25154   5.034   0.306   4.531  0.2444 -0.0781  0.4702
 8258SOL    HW125155   5.079   0.292   4.615  0.3925  2.7733  0.8975
 8258SOL    HW225156   4.996   0.393   4.538 -1.9938 -0.8371 -1.4481
 8259SOL     OW25157   0.717   3.731   2.365  0.3308  0.2187 -0.0262
 8259SOL    HW125158   0.692   3.822   2.349 -2.4798 -0.6544 -0.7795
 8259SOL    HW225159   0.671   3.707   2.445  0.1993 -0.8685 -0.4220
 8260SOL     OW25160   3.747   5.558   3.209  0.3370  0.3806 -1.0557
 8260SOL    HW125161   3.717   5.584   3.297 -2.9535  0.7395 -2.1991
 8260SOL    HW225162   3.786   5.637   3.173 -0.0508  0.7836 -0.6126
 8261SOL     OW25163   5.416   5.035   1.626 -0.3744 -0.1529 -0.5870
 8261SOL    HW125164   5.500   5.051   1.668 -0.4309 -1.1742 -0.0593
 8261SOL    HW225165   5.394   4.945   1.650 -2.0150  0.3772 -0.0235
 8262SOL     OW25166   3.088   5.616   3.373 -0.7137  0.2999 -0.1219
 8262SOL    HW125167   3.058   5.666   3.448 -0.4225  1.8911 -1.0501
 8262SOL    HW225168   3.157   5.559   3.408 -0.8420  0.7565  0.8782
 8263SOL     OW25169   2.430   0.348   0.387 -0.0742 -0.2902  0.2355
 8263SOL    HW125170   2.461   0.264   0.420  0.4045 -0.2101 -0.0065
 8263SOL    HW225171   2.381   0.386   0.459 -0.7082 -0.9965  0.1847
 8264SOL     OW25172   3.512   0.033   2.824  0.0718  0.6482 -0.6402
 8264SOL    HW125173   3.604   0.015   2.805 -0.2370 -0.1621 -1.3680
 8264SOL    HW225174   3.468   0.030   2.739 -1.0061 -1.2058 -0.0599
 8265SOL     OW25175   3.084   5.421   1.560  0.7426  0.0140  0.2253
 8265SOL    HW125176   3.126   5.422   1.474  1.3320  0.5229  0.5092
 8265SOL    HW225177   3.082   5.328   1.585 -0.8045 -0.2815 -0.9824
 8266SOL     OW25178   1.769   5.240   5.125  0.7231 -0.0014  0.4640
 8266SOL    HW125179   1.805   5.234   5.213  0.7972  1.7861  0.5596
 8266SOL    HW225180   1.747   5.332   5.114  2.6068  0.1880 -2.1222
 8267SOL     OW25181   4.940   6.008   2.640 -0.1713  0.6849 -0.4329
 8267SOL    HW125182   4.940   5.934   2.701 -0.9629  0.2853 -0.9067
 8267SOL    HW225183   4.906   5.971   2.558 -0.3871  1.5256 -0.7256
 8268SOL     OW25184   0.137   2.410   2.686  0.0406 -0.0063  0.5208
 8268SOL    HW125185   0.209   2.435   2.743  0.4690  0.9522 -0.4300
 8268SOL    HW225186   0.177   2.399   2.599 -1.3532  3.1243 -0.5936
 8269SOL     OW25187   0.030   3.606   6.075  0.3334  0.0628 -0.7062
 8269SOL    HW125188   0.018   3.659   6.153  0.5045 -1.3012  0.2604
 8269SOL    HW225189  -0.057   3.573   6.054  0.3999 -0.1075 -0.7117
 8270SOL     OW25190   4.944   4.619   3.683  0.9206 -0.1932  0.1206
 8270SOL    HW125191   4.863   4.619   3.631  0.4425 -1.1028  0.8455
 8270SOL    HW225192   5.009   4.579   3.625  0.8621  0.5560 -0.4697
 8271SOL     OW25193   5.913   2.740   0.766  0.3690 -0.0699  0.2119
 8271SOL    HW125194   5.890   2.674   0.700 -0.2187 -0.1178  0.4609
 8271SOL    HW225195   5.831   2.787   0.781 -0.1837 -1.7990  2.8903
 8272SOL     OW25196   2.178   5.217   5.601  0.0595  0.8120  0.3538
 8272SOL    HW125197   2.256   5.168   5.575 -1.5727 -2.3108  1.0770
 8272SOL    HW225198   2.144   5.252   5.519  1.8803  1.7006 -0.0378
 8273SOL     OW25199   2.927   3.570   1.053 -0.8107  0.1712 -0.3070
 8273SOL    HW125200   2.901   3.497   1.109 -2.2098 -0.4491 -1.7584
 8273SOL    HW225201   2.882   3.555   0.970 -0.0596  1.9699 -1.0656
 8274SOL     OW25202   1.908   5.281   0.293  0.0976 -0.4744 -0.1950
 8274SOL    HW125203   1.992   5.324   0.282  0.7159 -1.8842 -1.2201
 8274SOL    HW225204   1.848   5.331   0.237  0.9216 -1.2133 -1.7843
 8275SOL     OW25205   4.560   5.686   5.331  0.2437  0.3604 -0.3373
 8275SOL    HW125206   4.572   5.736   5.250  0.1946 -1.0235 -1.2199
 8275SOL    HW225207   4.545   5.596   5.301  0.2356 -0.1626  1.2157
 8276SOL     OW25208   3.973   4.703   4.714  0.6009  0.0090 -0.1563
 8276SOL    HW125209   3.999   4.621   4.672 -0.2868 -0.4395  0.1436
 8276SOL    HW225210   3.906   4.677   4.777  1.1664  0.8204  0.7851
 8277SOL     OW25211   5.888   3.589   4.573  0.0508  0.2862 -0.1011
 8277SOL    HW125212   5.945   3.623   4.505  0.8567  0.0446  0.4437
 8277SOL    HW225213   5.909   3.496   4.579  0.7964  0.5298  1.2487
 8278SOL     OW25214   2.937   4.019   3.091  0.4149  0.1883 -0.1724
 8278SOL    HW125215   2.879   3.969   3.034  0.0506 -2.1148  2.1443
 8278SOL    HW225216   2.881   4.083   3.133  0.1520  0.0315 -0.2846
 8279SOL     OW25217   4.940   2.336   0.577  0.1210 -0.3973  0.6642
 8279SOL    HW125218   4.963   2.387   0.655 -0.5667  0.5412  0.2615
 8279SOL    HW225219   4.889   2.263   0.611 -0.7281  0.3596  1.0464
 8280SOL     OW25220   4.630   5.551   4.084  0.0525  0.4615 -0.2982
 8280SOL    HW125221   4.568   5.610   4.128  1.2740  0.1253  1.9622
 8280SOL    HW225222   4.712   5.565   4.131  0.9423 -1.2915 -1.3200
 8281SOL     OW25223   0.690   5.993   4.972 -0.0867  0.6790  0.0494
 8281SOL    HW125224   0.690   5.905   5.011 -0.8410  0.5415 -0.2690
 8281SOL    HW225225   0.744   6.045   5.032 -0.1395  0.1492  0.5628
 8282SOL     OW25226   5.841   6.305   0.712 -0.4877  0.3651  0.2820
 8282SOL    HW125227   5.879   6.349   0.636 -0.3173  1.3645  0.9187
 8282SOL    HW225228   5.879   6.218   0.711 -1.5570 -0.1037 -1.5461
 8283SOL     OW25229   1.957   1.479   2.266  0.0636 -0.3924 -0.3946
 8283SOL    HW125230   1.994   1.486   2.354 -1.5440 -0.3462  0.2902
 8283SOL    HW225231   1.935   1.387   2.256 -0.7414 -0.2126 -0.3297
 8284SOL     OW25232   3.311   3.361   4.328 -0.1669  0.0292 -0.1513
 8284SOL    HW125233   3.216   3.353   4.338 -0.2778  1.0297 -0.3756
 8284SOL    HW225234   3.347   3.303   4.395 -0.9400  0.2338  0.4512
 8285SOL     OW25235   3.503   0.925   3.502  0.5989  0.5000 -0.3736
 8285SOL    HW125236   3.473   0.868   3.572 -0.6313  0.1503 -1.1697
 8285SOL    HW225237   3.585   0.963   3.535 -0.0794  0.5039  1.3189
 8286SOL     OW25238   4.285   5.309   2.071 -0.5340 -0.3253 -0.4213
 8286SOL    HW125239   4.313   5.400   2.065 -0.8249 -0.2715 -0.9766
 8286SOL    HW225240   4.349   5.260   2.020 -0.3061 -0.4478 -0.0196
 8287SOL     OW25241   1.850   1.326   3.156  0.1507 -0.3468 -0.4499
 8287SOL    HW125242   1.850   1.416   3.124  0.0440 -0.2789 -0.2607
 8287SOL    HW225243   1.925   1.322   3.216 -0.2368 -0.1962  0.0563
 8288SOL     OW25244   3.721   6.174   5.672  0.1253 -0.8111  0.0182
 8288SOL    HW125245   3.720   6.158   5.578 -0.9807  0.3006 -0.1699
 8288SOL    HW225246   3.640   6.135   5.704  0.0361 -0.3361  0.3682
 8289SOL     OW25247   3.147   1.802   1.624 -0.6130 -0.2702 -0.4458
 8289SOL    HW125248   3.220   1.749   1.590 -0.7752  0.0228 -1.2552
 8289SOL    HW225249   3.175   1.892   1.612 -0.0973 -0.1569  1.4614
 8290SOL     OW25250   4.178   3.261   0.727 -0.2287 -0.5122  0.2827
 8290SOL    HW125251   4.111   3.227   0.786  1.4357 -1.9678  1.3755
 8290SOL    HW225252   4.195   3.189   0.666  0.1543 -0.0463 -0.1680
 8291SOL     OW25253   5.108   3.762   1.602 -0.0496 -0.8940  0.1881
 8291SOL    HW125254   5.055   3.734   1.528 -1.4453  0.4727  0.6571
 8291SOL    HW225255   5.102   3.691   1.665 -2.1248 -0.3613  0.6322
 8292SOL     OW25256   3.228   2.938   4.273 -0.0478  0.2568 -0.1343
 8292SOL    HW125257   3.217   2.866   4.335 -2.8710  0.9196  0.1918
 8292SOL    HW225258   3.269   3.008   4.325  0.2803 -0.1866  0.2120
 8293SOL     OW25259   0.927   2.615   4.428  0.1144  0.4536  0.3180
 8293SOL    HW125260   0.897   2.694   4.383  0.4641  0.1395 -0.4879
 8293SOL    HW225261   1.020   2.608   4.405 -0.1889 -0.8283 -0.5954
 8294SOL     OW25262   4.126   4.814   3.397 -0.4194  0.0433  0.6726
 8294SOL    HW125263   4.112   4.757   3.473 -3.0716 -1.0349 -0.5908
 8294SOL    HW225264   4.064   4.886   3.409 -0.7861 -0.0853 -0.4381
 8295SOL     OW25265   4.156   3.692   5.029 -0.2247 -0.5694 -0.0487
 8295SOL    HW125266   4.146   3.786   5.017  1.6446 -0.2043  1.1632
 8295SOL    HW225267   4.105   3.672   5.107  1.7504 -0.0491  1.4109
 8296SOL     OW25268   2.685   3.730   4.425  0.1454  0.7100  0.1871
 8296SOL    HW125269   2.666   3.731   4.331 -2.0150  1.1692  0.6211
 8296SOL    HW225270   2.732   3.811   4.441  1.4954  0.1194 -0.6825
 8297SOL     OW25271   1.688   3.609   4.343 -0.1075 -0.3502 -0.2919
 8297SOL    HW125272   1.747   3.609   4.418  0.7818  0.4994 -0.9838
 8297SOL    HW225273   1.621   3.674   4.364  0.0476 -0.2348 -0.1576
 8298SOL     OW25274   0.726   4.930   4.084  0.7682  0.2403  0.1391
 8298SOL    HW125275   0.802   4.963   4.132  0.5868 -0.4059  0.8813
 8298SOL    HW225276   0.754   4.926   3.993  1.5871  0.1063  0.3981
 8299SOL     OW25277   4.130   3.937   2.316 -0.4999 -0.5054 -0.0248
 8299SOL    HW125278   4.044   3.905   2.346 -0.6387 -1.1675 -1.0957
 8299SOL    HW225279   4.169   3.861   2.272  1.0166 -0.4688  1.2424
 8300SOL     OW25280   3.102   3.012   4.775  0.1966  0.3880  0.2048
 8300SOL    HW125281   3.083   2.981   4.864 -0.5182 -0.0160 -0.0891
 8300SOL    HW225282   3.172   2.954   4.744  0.2008  0.3024  0.3754
 8301SOL     OW25283   5.554   1.096   3.837 -0.0847 -0.2138  0.2150
 8301SOL    HW125284   5.547   1.140   3.752  2.1573 -1.7490 -0.8019
 8301SOL    HW225285   5.499   1.018   3.829 -1.8445  0.9118  1.0603
 8302SOL     OW25286   4.282   5.028   0.639  0.0042  0.1088 -0.3895
 8302SOL    HW125287   4.257   4.995   0.725  0.5727  0.4025 -0.1080
 8302SOL    HW225288   4.290   4.950   0.584 -0.5799 -0.0592 -0.2329
 8303SOL     OW25289   5.176   0.934   2.454 -0.6885 -0.1071  0.0038
 8303SOL    HW125290   5.123   1.014   2.461  0.3005  0.5982 -0.4270
 8303SOL    HW225291   5.130   0.870   2.509 -0.5157  1.2778  1.8037
 8304SOL     OW25292   5.421   5.893   1.462 -0.3857  0.2006  0.0066
 8304SOL    HW125293   5.459   5.831   1.525 -0.7745  1.3588  1.4120
 8304SOL    HW225294   5.365   5.839   1.406 -0.0166 -0.8582  0.6410
 8305SOL     OW25295   5.331   1.332   1.435  0.4501  0.4258  0.4350
 8305SOL    HW125296   5.412   1.282   1.443  0.3229  0.2379  0.5544
 8305SOL    HW225297   5.279   1.305   1.511  0.1056  0.2387  0.1296
 8306SOL     OW25298   3.040   5.490   2.199 -0.0246 -0.4066 -0.4073
 8306SOL    HW125299   3.020   5.397   2.210 -2.2501  0.0253 -0.5359
 8306SOL    HW225300   2.959   5.528   2.165  1.4641  1.2511 -2.1739
 8307SOL     OW25301   4.794   1.664   4.847 -0.1529 -0.3187 -0.1749
 8307SOL    HW125302   4.734   1.732   4.816 -0.6023 -1.7087 -2.5350
 8307SOL    HW225303   4.780   1.660   4.941  1.5081  4.3774  0.3942
 8308SOL     OW25304   1.898   0.454   6.153  0.1618 -0.6831  0.0544
 8308SOL    HW125305   1.892   0.540   6.194  2.9119 -1.3170  1.8957
 8308SOL    HW225306   1.880   0.471   6.060 -1.9173  1.4335  0.8031
 8309SOL     OW25307   3.674   0.501   3.487  0.4634  0.0561  0.1273
 8309SOL    HW125308   3.704   0.418   3.448  1.5624  0.0492  0.9542
 8309SOL    HW225309   3.712   0.501   3.575 -0.3076  1.0179  0.4665
 8310SOL     OW25310   2.207   0.132   1.856  0.1885 -0.3194  0.4341
 8310SOL    HW125311   2.119   0.141   1.818 -0.0588 -1.2726  0.7494
 8310SOL    HW225312   2.200   0.173   1.942 -0.2458 -1.2781  0.8733
 8311SOL     OW25313   3.816   5.675   4.624  0.0487 -0.0566 -0.1793
 8311SOL    HW125314   3.830   5.727   4.702 -2.0363 -0.8666  0.7840
 8311SOL    HW225315   3.844   5.587   4.648  0.1142 -0.1492 -0.5889
 8312SOL     OW25316   1.299   0.126   2.051  0.0157  0.2129 -0.3121
 8312SOL    HW125317   1.204   0.119   2.041 -0.0182 -0.0424  0.1934
 8312SOL    HW225318   1.312   0.166   2.137  0.3518  0.8560 -0.6621
 8313SOL     OW25319   0.813   1.026   2.803  0.1767 -0.0894 -0.2644
 8313SOL    HW125320   0.730   1.068   2.824  0.7610  0.0519  1.9596
 8313SOL    HW225321   0.857   1.088   2.744 -0.7251  0.4519 -0.3821
 8314SOL     OW25322   2.659   3.736   6.068  0.8038 -0.4695 -0.1757
 8314SOL    HW125323   2.694   3.737   5.979  1.8337  1.9772  0.2236
 8314SOL    HW225324   2.736   3.719   6.123  0.4921 -0.0883  0.3779
 8315SOL     OW25325   3.429   0.373   2.977 -0.4789  0.3975  0.3058
 8315SOL    HW125326   3.455   0.377   2.886 -1.0058  1.1954  0.1777
 8315SOL    HW225327   3.366   0.301   2.981 -0.2107  0.1526  0.1049
 8316SOL     OW25328   3.053   0.815   1.349  0.2181 -0.5733 -0.0364
 8316SOL    HW125329   2.973   0.838   1.302  0.7254  2.0357  0.3342
 8316SOL    HW225330   3.117   0.797   1.280  0.2425  0.7110 -0.3677
 8317SOL     OW25331   3.945   3.542   4.913 -0.0497 -0.3744 -0.0149
 8317SOL    HW125332   3.989   3.627   4.906 -0.8925  0.0175 -0.6243
 8317SOL    HW225333   3.854   3.560   4.888 -0.1899 -1.4881 -0.3173
 8318SOL     OW25334   3.450   4.609   2.128 -0.4720  0.7273 -0.2935
 8318SOL    HW125335   3.468   4.568   2.044 -0.3613 -0.7842  0.4539
 8318SOL    HW225336   3.444   4.703   2.108  1.2743  0.5715 -1.7115
 8319SOL     OW25337   2.216   4.376   4.397  0.2956  0.1476  0.1111
 8319SOL    HW125338   2.150   4.382   4.328  0.1062  1.4256  0.3809
 8319SOL    HW225339   2.295   4.411   4.357  0.3496  0.2854  0.3375
 8320SOL     OW25340   1.819   0.712   2.901  0.0353 -0.1375  0.0915
 8320SOL    HW125341   1.782   0.637   2.947  1.1580  0.0658  1.3396
 8320SOL    HW225342   1.822   0.685   2.809 -1.4813 -0.8328  0.2327
 8321SOL     OW25343   2.504   1.266   4.550 -0.1733 -0.0571  0.3785
 8321SOL    HW125344   2.460   1.290   4.469  0.6466 -0.0884 -0.0821
 8321SOL    HW225345   2.562   1.193   4.526  0.2205  0.0596  0.9420
 8322SOL     OW25346   4.512   4.855   2.175  0.0747 -0.5636 -0.4443
 8322SOL    HW125347   4.443   4.920   2.163  0.6308 -0.0072 -0.6499
 8322SOL    HW225348   4.589   4.906   2.198  0.9405 -1.0127 -2.3094
 8323SOL     OW25349   2.498   4.036   4.130  0.3598  0.1794 -0.3736
 8323SOL    HW125350   2.500   3.965   4.066 -0.2058  0.3826 -0.6275
 8323SOL    HW225351   2.563   4.012   4.196 -0.5749 -1.0950  0.1023
 8324SOL     OW25352   0.390   3.376   5.811  0.7492 -0.6559 -0.1832
 8324SOL    HW125353   0.394   3.305   5.875 -0.3156  0.4042  1.0693
 8324SOL    HW225354   0.313   3.356   5.759  0.0041 -0.0125  0.6639
 8325SOL     OW25355   4.496   1.665   0.073  0.6942 -0.5674 -0.0003
 8325SOL    HW125356   4.575   1.612   0.065  0.8232 -0.5682  1.1932
 8325SOL    HW225357   4.502   1.705   0.160 -0.5117 -0.4126  0.0272
 8326SOL     OW25358   1.563   2.079   3.533  0.6109 -0.4261  0.2709
 8326SOL    HW125359   1.578   2.130   3.453 -0.3029  1.9876  1.5821
 8326SOL    HW225360   1.486   2.119   3.573 -0.5373 -3.2827  1.0553
 8327SOL     OW25361   4.076   4.256   3.396 -0.1032 -0.1399 -0.2188
 8327SOL    HW125362   4.044   4.275   3.484 -0.6264 -0.5247 -0.3249
 8327SOL    HW225363   4.171   4.264   3.403 -0.1276 -0.4076  0.4338
 8328SOL     OW25364   0.426   1.436   2.110  0.0704  0.2839 -0.0455
 8328SOL    HW125365   0.471   1.357   2.078  0.9481  0.8513 -0.2304
 8328SOL    HW225366   0.414   1.489   2.031 -0.4209  0.3786  0.0970
 8329SOL     OW25367   5.310   5.057   5.714 -0.2810  0.4151 -0.6845
 8329SOL    HW125368   5.397   5.017   5.715  0.8581  2.8230 -0.5775
 8329SOL    HW225369   5.272   5.031   5.631 -0.2480 -2.2573  0.0953
 8330SOL     OW25370   5.616   5.146   1.403 -0.4705  0.3105  0.0693
 8330SOL    HW125371   5.693   5.174   1.354  0.3921  1.0547  1.7660
 8330SOL    HW225372   5.573   5.228   1.429 -1.3013 -0.0757 -0.0557
 8331SOL     OW25373   4.076   3.500   5.863  0.3345  0.2114  0.2210
 8331SOL    HW125374   4.129   3.456   5.795 -0.0443  1.2713 -0.7734
 8331SOL    HW225375   4.112   3.589   5.867 -0.4340  0.5059  0.5649
 8332SOL     OW25376   6.031   2.823   2.171  0.2121  0.0179  0.8270
 8332SOL    HW125377   6.047   2.876   2.249  2.6529  0.4386  0.0854
 8332SOL    HW225378   6.080   2.742   2.186  1.8575  0.6677 -0.8400
 8333SOL     OW25379   4.838   4.119   6.052  0.6637  0.2340  0.0893
 8333SOL    HW125380   4.887   4.198   6.029 -1.0911  1.1474 -0.6489
 8333SOL    HW225381   4.843   4.064   5.973 -0.1880  0.6973 -0.2977
 8334SOL     OW25382   3.544   6.022   2.021 -0.4052  0.1765 -0.3285
 8334SOL    HW125383   3.568   5.997   2.110 -1.2376 -1.0094 -0.4219
 8334SOL    HW225384   3.571   6.113   2.013  0.7092 -0.0511  0.7592
 8335SOL     OW25385   2.706   3.595   0.110  0.4828 -0.1047 -0.0218
 8335SOL    HW125386   2.747   3.515   0.077 -1.6451 -0.9189 -0.7129
 8335SOL    HW225387   2.618   3.569   0.136 -0.1019  1.9198  0.1087
 8336SOL     OW25388   4.346   6.296   5.271 -0.6774  0.2323 -0.2918
 8336SOL    HW125389   4.289   6.371   5.287  0.4190  1.1939 -0.7481
 8336SOL    HW225390   4.293   6.220   5.293 -1.6568  1.1651  0.6456
 8337SOL     OW25391   1.372   0.897   1.513 -0.2317  0.1011  0.3102
 8337SOL    HW125392   1.293   0.906   1.567 -1.4083 -0.5692 -1.2646
 8337SOL    HW225393   1.356   0.952   1.437  0.6089 -0.4556 -0.2818
 8338SOL     OW25394   2.967   4.775   0.457 -0.5981  0.0997  0.1399
 8338SOL    HW125395   2.950   4.728   0.375 -3.0706 -0.0455  0.7015
 8338SOL    HW225396   2.966   4.708   0.525  0.0366  0.4142  0.4691
 8339SOL     OW25397   5.333   0.384   3.064 -0.5317  0.1044  0.4588
 8339SOL    HW125398   5.421   0.352   3.079 -0.0825  0.8814 -0.4669
 8339SOL    HW225399   5.278   0.330   3.120  0.6536  0.3404  1.8656
 8340SOL     OW25400   2.203   2.249   2.836 -0.1109  0.0348  0.0148
 8340SOL    HW125401   2.196   2.297   2.753  1.0927 -1.1875 -0.8210
 8340SOL    HW225402   2.293   2.216   2.837  0.5821  1.8618  2.8467
 8341SOL     OW25403   0.519   5.128   5.969  0.3077  0.4028  0.1309
 8341SOL    HW125404   0.520   5.077   5.888  0.1545  1.1560 -0.3449
 8341SOL    HW225405   0.612   5.148   5.986  0.2776  0.9251 -0.2944
 8342SOL     OW25406   3.528   1.422   5.914  0.3129  0.0804 -0.3287
 8342SOL    HW125407   3.476   1.492   5.875  2.6745  0.9275 -2.0622
 8342SOL    HW225408   3.561   1.459   5.996 -0.0355  0.2999 -0.2886
 8343SOL     OW25409   0.386   5.679   5.794 -0.4386 -0.3330 -0.4814
 8343SOL    HW125410   0.469   5.713   5.828  0.1020 -0.0186 -2.1035
 8343SOL    HW225411   0.404   5.588   5.773 -0.5316 -0.2929 -0.7367
 8344SOL     OW25412   6.209   2.007   6.203  0.0880  0.4869 -0.1854
 8344SOL    HW125413   6.205   1.930   6.259  0.0626  0.6578  0.0489
 8344SOL    HW225414   6.267   1.982   6.131  2.4139  1.2270  1.3994
 8345SOL     OW25415   3.187   1.854   4.052  0.5902  0.2694 -0.5372
 8345SOL    HW125416   3.250   1.796   4.010  1.6727  0.0022  1.3914
 8345SOL    HW225417   3.241   1.915   4.103 -0.6508  0.8579  0.0913
 8346SOL     OW25418   0.243   2.251   3.165 -0.6069  0.0530  0.0443
 8346SOL    HW125419   0.310   2.252   3.096  0.1537 -1.9762  0.7283
 8346SOL    HW225420   0.161   2.268   3.118  0.1049  0.3670 -1.1198
 8347SOL     OW25421   0.569   1.969   0.128  0.1236 -0.2957 -0.3090
 8347SOL    HW125422   0.539   1.890   0.171 -0.0375 -0.6841 -1.1175
 8347SOL    HW225423   0.489   2.010   0.094  0.1840  0.3113  0.2650
 8348SOL     OW25424   6.083   2.570   1.074 -0.6202  0.0905  0.3896
 8348SOL    HW125425   6.021   2.615   1.131 -0.2613 -0.2134  1.0373
 8348SOL    HW225426   6.133   2.640   1.033  0.3184  0.2918  1.8231
 8349SOL     OW25427   1.304   4.211   5.875  0.0336  0.3824  0.2487
 8349SOL    HW125428   1.290   4.252   5.961 -0.2047 -1.0044  0.9030
 8349SOL    HW225429   1.220   4.168   5.856  0.7780 -1.1803  0.3800
 8350SOL     OW25430   5.484   2.380   0.988  0.5158 -0.8646 -0.4926
 8350SOL    HW125431   5.411   2.401   1.047  0.4673 -2.6696  0.1261
 8350SOL    HW225432   5.560   2.424   1.026  0.2731 -1.1544  0.3193
 8351SOL     OW25433   4.356   5.696   3.087 -0.4086 -0.5636  1.0459
 8351SOL    HW125434   4.280   5.659   3.043  0.5457 -0.9685 -0.3229
 8351SOL    HW225435   4.336   5.789   3.097 -0.2140 -0.2216 -1.3143
 8352SOL     OW25436   1.979   2.036   2.577  0.0396  1.1343  0.4737
 8352SOL    HW125437   1.923   1.974   2.625  2.1103 -0.8365  0.4124
 8352SOL    HW225438   1.981   2.114   2.633 -1.3352  0.5896  1.3191
 8353SOL     OW25439   1.629   2.063   2.484  0.2235  0.1957  0.1553
 8353SOL    HW125440   1.661   2.127   2.420 -0.4807  0.5133  0.1165
 8353SOL    HW225441   1.661   1.979   2.453  0.7352  0.4735 -0.0671
 8354SOL     OW25442   3.337   0.639   1.447  0.6608  0.5280  0.7324
 8354SOL    HW125443   3.350   0.641   1.542 -0.8456 -0.8562  1.0021
 8354SOL    HW225444   3.280   0.714   1.429 -0.1737 -0.0068  1.1214
 8355SOL     OW25445   0.666   1.142   1.061 -0.2359  0.2321 -0.0861
 8355SOL    HW125446   0.600   1.144   0.992 -1.2624  0.1032  0.8580
 8355SOL    HW225447   0.651   1.223   1.111 -0.7568 -0.5717  1.0954
 8356SOL     OW25448   3.408   5.148   4.716  0.3524  0.1771  0.4505
 8356SOL    HW125449   3.353   5.081   4.756  0.0353 -0.4654 -1.0658
 8356SOL    HW225450   3.349   5.222   4.701  0.6807  0.7887  2.0292
 8357SOL     OW25451   2.890   4.534   3.626 -0.0206 -0.6647  0.2200
 8357SOL    HW125452   2.981   4.562   3.622  0.0200 -0.9408 -1.2033
 8357SOL    HW225453   2.839   4.613   3.610  0.0324 -0.9037 -1.1936
 8358SOL     OW25454   1.512   1.079   3.357  0.1310 -0.4151 -0.6620
 8358SOL    HW125455   1.448   1.036   3.300 -0.3146  1.2646 -1.4736
 8358SOL    HW225456   1.540   1.156   3.307  0.9312  0.2167  0.7443
 8359SOL     OW25457   1.073   1.890   0.176  0.5607  0.0683 -0.2036
 8359SOL    HW125458   1.074   1.979   0.142  1.0736  0.5134  0.9441
 8359SOL    HW225459   1.110   1.837   0.105  1.6055  0.9712 -0.3476
 8360SOL     OW25460   5.631   1.051   4.803 -0.1399 -0.4954 -0.0435
 8360SOL    HW125461   5.616   0.957   4.788  1.5651 -1.0221  1.3605
 8360SOL    HW225462   5.716   1.068   4.762 -0.7985  0.6544 -0.9949
 8361SOL     OW25463   6.034   5.808   5.238 -0.5579  0.5276  1.1545
 8361SOL    HW125464   6.069   5.855   5.314  0.8691  1.3657 -0.0204
 8361SOL    HW225465   6.111   5.782   5.188 -1.4867 -0.2696  0.1153
 8362SOL     OW25466   2.714   1.427   5.391  0.0279 -0.4182  0.0327
 8362SOL    HW125467   2.797   1.418   5.438  1.4180  2.1127 -1.8341
 8362SOL    HW225468   2.733   1.395   5.303 -1.3393 -0.9437 -0.0835
 8363SOL     OW25469   5.697   0.367   4.948 -0.1945 -0.4065 -0.0641
 8363SOL    HW125470   5.691   0.379   4.853  1.1715 -0.0668 -0.1212
 8363SOL    HW225471   5.614   0.326   4.972 -0.0950 -1.5457 -1.5727
 8364SOL     OW25472   5.982   1.749   5.041  0.1557 -0.1767  0.5395
 8364SOL    HW125473   6.061   1.803   5.048 -1.1468  2.0663 -1.2424
 8364SOL    HW225474   5.988   1.709   4.954  0.0972 -1.2885  1.0379
 8365SOL     OW25475   6.230   4.434   0.356  0.4069  0.0367 -0.1192
 8365SOL    HW125476   6.167   4.362   0.361 -0.0483  0.4023 -0.5549
 8365SOL    HW225477   6.311   4.393   0.325  0.0819 -0.2425 -0.5914
 8366SOL     OW25478   1.575   5.860   2.563 -0.1753  0.0090  0.3321
 8366SOL    HW125479   1.666   5.869   2.590  0.6889 -0.2627 -2.3942
 8366SOL    HW225480   1.529   5.930   2.609  1.6096  0.8777  0.8179
 8367SOL     OW25481   4.304   4.780   3.987 -0.3255 -0.2378 -0.7529
 8367SOL    HW125482   4.376   4.830   4.025 -0.5585 -0.8888  0.5572
 8367SOL    HW225483   4.227   4.835   3.997 -0.3820 -0.3988 -0.3033
 8368SOL     OW25484   2.084   1.435   1.887 -0.1805  0.1211  0.1740
 8368SOL    HW125485   2.138   1.417   1.810  0.0021 -2.1578  0.8069
 8368SOL    HW225486   2.031   1.511   1.861  1.8834  1.1551 -1.1551
 8369SOL     OW25487   3.415   6.335   3.568 -0.1039  0.4263 -0.5214
 8369SOL    HW125488   3.410   6.269   3.637 -1.0098  1.3946  0.3639
 8369SOL    HW225489   3.462   6.408   3.609 -1.9718  1.6039 -0.4365
 8370SOL     OW25490   1.410   5.939   1.803 -0.2784 -0.4012  0.3836
 8370SOL    HW125491   1.448   5.852   1.794 -0.3368 -0.3407 -0.4073
 8370SOL    HW225492   1.484   5.999   1.791 -0.8256 -0.2467 -2.3238
 8371SOL     OW25493   5.659   3.663   4.970  0.4495  0.1062  0.0753
 8371SOL    HW125494   5.702   3.580   4.948 -0.6148 -0.2477 -0.7453
 8371SOL    HW225495   5.600   3.679   4.896 -0.7428  0.6214  1.1101
 8372SOL     OW25496   1.505   3.368   5.735  0.3257  0.2501 -0.0468
 8372SOL    HW125497   1.533   3.436   5.796 -0.4450 -0.9148  1.6315
 8372SOL    HW225498   1.432   3.325   5.778  0.8184 -1.6856 -1.0621
 8373SOL     OW25499   4.412   5.692   3.362  0.6828  0.3118  0.1118
 8373SOL    HW125500   4.392   5.688   3.269  1.6234 -1.8550 -0.0211
 8373SOL    HW225501   4.373   5.775   3.391 -0.3274  0.6218 -2.0145
 8374SOL     OW25502   1.127   4.070   3.739  0.3402  0.7429  0.1733
 8374SOL    HW125503   1.187   4.083   3.665 -1.0094 -0.1772 -1.1055
 8374SOL    HW225504   1.108   4.158   3.770  1.3832  1.1086 -0.1812
 8375SOL     OW25505   2.911   1.403   0.907 -0.3127  0.3469 -0.0425
 8375SOL    HW125506   2.869   1.469   0.963 -2.2415 -1.1367  0.3222
 8375SOL    HW225507   2.839   1.369   0.853  0.1494 -3.1289  1.4399
 8376SOL     OW25508   3.001   2.424   6.199 -0.0227  0.5350  0.3495
 8376SOL    HW125509   3.072   2.383   6.248 -0.9804 -0.0854  1.2261
 8376SOL    HW225510   2.994   2.513   6.235  0.6012  0.7538 -0.0544
 8377SOL     OW25511   1.787   4.231   3.374  0.0009 -0.1616 -0.0338
 8377SOL    HW125512   1.797   4.138   3.396 -0.5536 -0.2704 -0.2470
 8377SOL    HW225513   1.695   4.241   3.353  0.0674  0.4351 -0.0468
 8378SOL     OW25514   1.865   3.378   2.284 -0.6767 -0.4048  0.4783
 8378SOL    HW125515   1.820   3.416   2.359 -0.0043  2.8155 -0.6504
 8378SOL    HW225516   1.956   3.405   2.294 -0.2035 -1.5402 -0.5331
 8379SOL     OW25517   1.954   1.285   4.116  0.6505 -0.2975  0.5161
 8379SOL    HW125518   2.035   1.257   4.073  0.2814 -0.3821 -0.1326
 8379SOL    HW225519   1.896   1.209   4.112  0.8535 -0.5230  1.7789
 8380SOL     OW25520   3.569   0.932   5.175  0.1391  0.0813  0.3444
 8380SOL    HW125521   3.517   0.906   5.250  0.6966 -0.1411  0.6579
 8380SOL    HW225522   3.571   0.854   5.119  0.1304  0.0935  0.3267
 8381SOL     OW25523   5.373   0.179   5.815 -0.0589 -0.4947  0.6936
 8381SOL    HW125524   5.313   0.129   5.871  0.8237 -0.4898  1.6588
 8381SOL    HW225525   5.370   0.268   5.851 -0.4058 -0.2112 -0.0255
 8382SOL     OW25526   2.276   4.359   3.372 -0.4597 -0.6110 -0.0283
 8382SOL    HW125527   2.231   4.274   3.364  0.6429 -1.2557  0.5111
 8382SOL    HW225528   2.366   4.336   3.396 -0.1604  0.7199  0.1387
 8383SOL     OW25529   5.018   3.215   4.508  0.1775  0.6202 -0.3640
 8383SOL    HW125530   4.971   3.165   4.441 -0.1885  0.9724 -0.3708
 8383SOL    HW225531   4.981   3.183   4.591 -0.1324  0.9633 -0.3729
 8384SOL     OW25532   0.350   4.785   2.969 -0.0291  0.2858 -0.0351
 8384SOL    HW125533   0.400   4.705   2.954  0.4526  0.6852 -0.5528
 8384SOL    HW225534   0.352   4.797   3.064  1.3780  0.6369 -0.1033
 8385SOL     OW25535   0.018   1.655   5.505 -0.4543  0.8111  0.2956
 8385SOL    HW125536   0.073   1.705   5.445 -0.2933  1.2943  0.8346
 8385SOL    HW225537  -0.031   1.722   5.554  1.4424  0.5699  2.6351
 8386SOL     OW25538   2.732   6.140   5.110 -0.5146 -0.4232  0.7303
 8386SOL    HW125539   2.671   6.087   5.161  0.2266 -0.7548  1.2844
 8386SOL    HW225540   2.789   6.181   5.175  0.6566 -1.1100  0.1641
 8387SOL     OW25541   1.048   0.751   0.664  0.4284  0.1567  0.7528
 8387SOL    HW125542   1.140   0.763   0.643 -0.1185  1.5843 -0.8503
 8387SOL    HW225543   1.029   0.660   0.640  1.3659 -0.0906  0.9489
 8388SOL     OW25544   1.167   1.115   2.234 -0.1426 -0.1565 -0.5278
 8388SOL    HW125545   1.248   1.076   2.201 -0.2512 -0.2431 -0.6917
 8388SOL    HW225546   1.192   1.154   2.318  0.6038  1.8779 -1.6578
 8389SOL     OW25547   0.207   3.753   0.371  0.1458  0.3036 -0.7012
 8389SOL    HW125548   0.210   3.677   0.312 -1.1349 -1.7766  1.8029
 8389SOL    HW225549   0.297   3.786   0.374  0.4676 -0.3058 -2.8018
 8390SOL     OW25550   4.596   3.742   4.445 -0.1955  0.4217 -0.4204
 8390SOL    HW125551   4.547   3.726   4.365 -1.2814 -0.9625  0.4944
 8390SOL    HW225552   4.542   3.803   4.495 -0.0794  0.3823 -0.2450
 8391SOL     OW25553   4.538   3.408   2.662 -0.2524  0.1179 -0.4531
 8391SOL    HW125554   4.474   3.337   2.655 -0.4426  0.3196 -0.7750
 8391SOL    HW225555   4.597   3.395   2.587  0.3807 -0.3611  0.1268
 8392SOL     OW25556   3.858   4.238   3.224  0.4325  0.0833  0.0497
 8392SOL    HW125557   3.903   4.287   3.154  0.3379  1.0979  0.6845
 8392SOL    HW225558   3.923   4.232   3.294  0.8539 -1.7779 -0.4855
 8393SOL     OW25559   4.684   5.474   4.519 -0.1393  0.8051  0.0348
 8393SOL    HW125560   4.712   5.532   4.449 -0.3160 -0.2494 -0.9269
 8393SOL    HW225561   4.621   5.526   4.570 -2.2835  0.6392 -2.3142
 8394SOL     OW25562   3.882   0.418   1.406  0.7590  0.2411 -0.0903
 8394SOL    HW125563   3.817   0.485   1.382  1.0025  0.7230  0.5890
 8394SOL    HW225564   3.953   0.431   1.344  0.5204  0.1879 -0.3763
 8395SOL     OW25565   4.221   1.189   3.581  0.1722 -0.7900 -0.3403
 8395SOL    HW125566   4.170   1.139   3.645 -2.2943 -1.3568 -2.6890
 8395SOL    HW225567   4.194   1.280   3.596  0.9176 -0.7030  0.5614
 8396SOL     OW25568   3.197   5.072   1.726 -0.1986  0.4443  0.5319
 8396SOL    HW125569   3.127   5.046   1.786 -0.1019  0.2321  0.5513
 8396SOL    HW225570   3.267   5.104   1.784  0.6187 -1.4679  0.6259
 8397SOL     OW25571   2.116   2.004   1.597 -0.1129  0.4823  0.6084
 8397SOL    HW125572   2.143   2.032   1.685 -1.5907  0.4511  1.0949
 8397SOL    HW225573   2.033   1.959   1.611 -1.3180  2.1004 -1.0160
 8398SOL     OW25574   5.856   5.043   0.523 -0.9677  0.0598 -1.0722
 8398SOL    HW125575   5.909   4.965   0.508 -2.6394 -1.1805 -0.5605
 8398SOL    HW225576   5.861   5.091   0.440  0.7806 -0.1366 -1.0980
 8399SOL     OW25577   1.783   5.829   5.281  0.4706  0.3191  0.1997
 8399SOL    HW125578   1.756   5.886   5.354 -0.9198  1.0065 -0.8223
 8399SOL    HW225579   1.850   5.878   5.235 -0.4697  1.0054 -0.4661
 8400SOL     OW25580   2.426   5.899   1.603  0.3166 -0.5948 -0.1191
 8400SOL    HW125581   2.368   5.947   1.663  0.1299 -1.1497  0.1455
 8400SOL    HW225582   2.406   5.936   1.517  0.1147 -0.2475  0.0756
 8401SOL     OW25583   5.689   5.525   1.615  0.0174  0.0562 -0.3417
 8401SOL    HW125584   5.781   5.525   1.589 -0.0734 -0.2028 -0.6726
 8401SOL    HW225585   5.691   5.531   1.710  0.3779  0.0831 -0.3506
 8402SOL     OW25586   3.974   2.207   4.823 -0.2051  0.2271  0.3525
 8402SOL    HW125587   3.965   2.259   4.743  0.3626 -0.3214 -0.0675
 8402SOL    HW225588   3.997   2.119   4.792 -0.6916 -0.1597  1.0849
 8403SOL     OW25589   1.925   3.520   1.220  0.4728  0.7527  0.0329
 8403SOL    HW125590   1.950   3.517   1.128 -0.5682  0.7930 -0.2616
 8403SOL    HW225591   2.007   3.506   1.268  1.1890  1.7267 -0.8799
 8404SOL     OW25592   3.240   4.920   4.203 -0.0262 -0.5281  0.5453
 8404SOL    HW125593   3.233   4.851   4.137  1.9576 -0.3357  0.0909
 8404SOL    HW225594   3.303   4.886   4.267 -0.5294  0.0526  1.3602
 8405SOL     OW25595   3.021   2.748   6.181  0.5228 -0.5569 -0.5698
 8405SOL    HW125596   3.115   2.735   6.194  0.5782 -0.5586 -0.9602
 8405SOL    HW225597   2.983   2.739   6.268  0.9028 -0.4082 -0.3862
 8406SOL     OW25598   2.591   1.871   5.001  0.0412 -0.6533 -0.7695
 8406SOL    HW125599   2.599   1.823   5.084 -0.9147 -1.4496 -1.1244
 8406SOL    HW225600   2.648   1.824   4.940 -1.0449 -1.4940 -1.1691
 8407SOL     OW25601   5.379   4.760   4.000 -0.6783  0.6637  0.2570
 8407SOL    HW125602   5.332   4.719   4.073  0.7695  1.7601  1.8547
 8407SOL    HW225603   5.405   4.846   4.033  1.3946  0.5560 -0.9819
 8408SOL     OW25604   4.229   4.108   2.108  0.3351 -0.3826 -0.3976
 8408SOL    HW125605   4.190   4.052   2.175 -3.1328 -1.3637 -3.0530
 8408SOL    HW225606   4.193   4.195   2.126 -1.4454 -0.8510 -1.5166
 8409SOL     OW25607   5.905   4.416   2.174 -0.3035  0.1101 -0.4004
 8409SOL    HW125608   5.858   4.333   2.179 -0.2635  0.0835 -0.4588
 8409SOL    HW225609   5.978   4.399   2.115 -0.2195  0.1500 -0.3095
 8410SOL     OW25610   4.658   4.086   3.591 -0.5894  0.1612 -0.9256
 8410SOL    HW125611   4.565   4.075   3.570 -1.0907 -0.3272  1.4462
 8410SOL    HW225612   4.699   4.004   3.561 -1.3543 -0.6812  0.2857
 8411SOL     OW25613   5.572   5.900   0.253 -0.2598 -0.2523 -0.5801
 8411SOL    HW125614   5.595   5.844   0.327  2.9144  0.5940 -0.8373
 8411SOL    HW225615   5.539   5.980   0.293 -1.1711 -0.8408 -0.1402
 8412SOL     OW25616   5.659   5.464   2.514 -0.3085 -0.3011 -0.2106
 8412SOL    HW125617   5.574   5.462   2.559  0.1514 -0.7780  0.6403
 8412SOL    HW225618   5.670   5.556   2.489 -0.9823 -0.2007 -0.1457
 8413SOL     OW25619   0.359   0.169   0.705  0.0821 -0.4383 -0.7606
 8413SOL    HW125620   0.356   0.079   0.672  1.4820 -0.2111 -1.5440
 8413SOL    HW225621   0.267   0.193   0.717 -0.3035 -2.0177 -0.4080
 8414SOL     OW25622   0.706   0.819   5.601  0.5348  0.9935  0.1010
 8414SOL    HW125623   0.758   0.761   5.545  0.0542  0.7253 -0.0641
 8414SOL    HW225624   0.703   0.774   5.686  1.2685  1.4029  0.3487
 8415SOL     OW25625   3.942   4.978   3.573  0.0920  0.0742 -0.3812
 8415SOL    HW125626   3.927   4.944   3.485  2.4680  1.0501 -1.1933
 8415SOL    HW225627   3.909   5.068   3.569 -1.0173 -0.3029  0.1262
 8416SOL     OW25628   0.662   4.167   3.056  0.1863  1.0405  0.0628
 8416SOL    HW125629   0.641   4.181   3.149 -1.0701  3.0090 -0.4822
 8416SOL    HW225630   0.661   4.072   3.046 -1.6464  0.8412  1.6572
 8417SOL     OW25631   4.753   6.002   1.980 -0.2766  0.5009 -0.0431
 8417SOL    HW125632   4.729   6.007   1.887 -0.5438 -0.7735 -0.0630
 8417SOL    HW225633   4.848   5.994   1.980 -0.2912  0.3098 -0.2215
 8418SOL     OW25634   2.818   4.695   6.315 -0.7652  0.0102  0.1983
 8418SOL    HW125635   2.814   4.617   6.259 -1.3121 -1.7731  2.6217
 8418SOL    HW225636   2.846   4.765   6.257  1.8845 -2.4265 -1.5866
 8419SOL     OW25637   3.354   4.124   2.793 -0.4210 -0.1161 -0.6071
 8419SOL    HW125638   3.318   4.156   2.711  0.2327  0.1947 -0.7757
 8419SOL    HW225639   3.305   4.170   2.861 -0.7318 -0.1268 -0.8257
 8420SOL     OW25640   0.073   0.225   0.660  0.1162  0.3613  0.5660
 8420SOL    HW125641   0.076   0.129   0.655 -0.5681  0.4521 -2.3509
 8420SOL    HW225642  -0.019   0.246   0.674 -0.0016  0.6462 -0.5963
 8421SOL     OW25643   3.187   3.443   2.957 -0.0159 -0.1394  0.1125
 8421SOL    HW125644   3.282   3.434   2.947 -0.0433  0.0379 -0.3600
 8421SOL    HW225645   3.171   3.538   2.958 -0.3962 -0.1373 -2.1494
 8422SOL     OW25646   2.179   1.351   1.218 -0.8329  0.1502  0.4898
 8422SOL    HW125647   2.142   1.434   1.248 -0.8345  0.3695 -0.1179
 8422SOL    HW225648   2.105   1.290   1.216 -1.2748  0.7063 -1.1627
 8423SOL     OW25649   1.564   0.804   1.174 -0.8004  0.3496  0.4308
 8423SOL    HW125650   1.515   0.726   1.145 -2.3310  1.2660  0.5030
 8423SOL    HW225651   1.654   0.786   1.149 -0.8050 -2.2620  2.0648
 8424SOL     OW25652   1.508   5.150   1.613 -0.3476 -0.0914 -0.3243
 8424SOL    HW125653   1.553   5.106   1.685 -0.4972  1.7743  0.9229
 8424SOL    HW225654   1.522   5.243   1.629 -0.4616  0.3549 -2.6599
 8425SOL     OW25655   4.279   6.117   1.254 -0.4927 -0.5241 -0.2031
 8425SOL    HW125656   4.224   6.110   1.332  0.5978  2.6040  0.9114
 8425SOL    HW225657   4.303   6.210   1.249  1.8829 -1.1882 -2.5815
 8426SOL     OW25658   3.584   0.071   3.127 -0.8883  0.2399  0.0712
 8426SOL    HW125659   3.531   0.047   3.052 -2.4626  1.6257  0.7066
 8426SOL    HW225660   3.567   0.004   3.193  1.4401 -1.6651 -1.1936
 8427SOL     OW25661   0.081   1.837   0.475  0.0909 -0.0163 -0.6035
 8427SOL    HW125662   0.131   1.834   0.394 -0.7401  0.5067 -1.1428
 8427SOL    HW225663   0.132   1.785   0.537  0.1624 -1.3408 -1.7612
 8428SOL     OW25664   0.048   5.404   4.409 -0.3541 -0.0151 -0.3085
 8428SOL    HW125665  -0.035   5.408   4.360 -0.3606 -0.6536 -0.3462
 8428SOL    HW225666   0.061   5.494   4.439 -0.7486  0.2226 -0.8243
 8429SOL     OW25667   1.351   2.783   0.743 -0.6949  0.0968  0.4236
 8429SOL    HW125668   1.361   2.873   0.711  0.9162 -0.2969 -0.2491
 8429SOL    HW225669   1.317   2.734   0.669 -1.2375  0.0837  0.6821
 8430SOL     OW25670   1.467   3.908   0.527 -0.0126 -0.0459 -0.1345
 8430SOL    HW125671   1.456   3.867   0.612 -1.1890  2.6249  1.0625
 8430SOL    HW225672   1.407   3.983   0.528  0.3350  0.3619 -3.1046
 8431SOL     OW25673   6.109   5.905   5.474 -0.2188  0.0304 -0.1370
 8431SOL    HW125674   6.171   5.978   5.472 -0.2134  0.0599  1.1054
 8431SOL    HW225675   6.081   5.899   5.565 -3.4463  1.1573 -0.9908
 8432SOL     OW25676   0.842   5.968   3.302  0.1851  0.1030  0.7118
 8432SOL    HW125677   0.789   6.012   3.235 -1.6636 -1.1680  1.2974
 8432SOL    HW225678   0.923   5.943   3.256  0.0853  1.6329 -0.3259
 8433SOL     OW25679   2.689   1.779   3.969 -0.1841 -0.0812  0.1735
 8433SOL    HW125680   2.771   1.826   3.950 -0.7263  0.8605  0.1122
 8433SOL    HW225681   2.707   1.688   3.945  1.5070 -0.2765  2.0190
 8434NA      NA25682   3.725   5.391   0.542  0.0185  0.1175  0.1405
 8435NA      NA25683   4.607   5.700   5.824  0.6777  0.3107  0.1379
 8436NA      NA25684   3.919   3.138   1.432  0.2981  0.2247  0.0530
 8437NA      NA25685   4.272   0.542   5.620 -0.0491  0.1725 -0.0872
 8438NA      NA25686   2.590   5.170   4.355 -0.0557 -0.1326 -0.1924
 8439NA      NA25687   4.114   0.468   2.953  0.1386 -0.2259  0.0717
 8440NA      NA25688   1.822   1.963   3.117 -0.4426  0.8950  0.2429
 8441NA      NA25689   4.688   3.560   4.518  0.1099 -0.0007  0.2577
 8442NA      NA25690   2.703   4.305   0.184  0.1932  0.4412  0.7876
 8443NA      NA25691   1.488   3.705   3.355 -0.2657  0.2242 -0.0610
 8444NA      NA25692   6.305   3.978   0.269  0.2319  0.2914 -0.4343
 8445NA      NA25693   0.744   5.985   4.769  0.4929 -0.3792  0.0269
 8446NA      NA25694   6.226   4.929   5.013 -0.1696 -0.5822  0.1337
 8447NA      NA25695   1.877   3.612   3.930 -0.2915 -0.4185  0.1533
 8448NA      NA25696   2.664   1.804   5.780 -0.2178 -0.2429  0.4306
 8449NA      NA25697   0.365   1.463   2.316 -0.2917  0.0820 -0.1585
 8450NA      NA25698   5.633   6.379   4.375 -0.7255  0.2719  0.3454
 8451NA      NA25699   0.078   1.456   5.532 -0.0452 -0.4118  0.0029
 8452NA      NA25700   2.917   5.080   5.573  0.5845 -0.7764 -0.2108
 8453NA      NA25701   2.851   6.046   1.472 -0.1733 -0.2791  0.3118
 8454NA      NA25702   0.661   1.214   5.697 -0.5782  0.3000 -0.1097
 8455NA      NA25703   4.677   4.465   0.731 -0.0729 -0.4487 -0.0967
 8456NA      NA25704   3.531   3.725   5.437 -0.0046 -0.5352  0.0984
 8457NA      NA25705   3.264   5.094   4.082  0.0515 -0.3098  0.0967
 8458CL      CL25706   0.402   2.486   2.836 -0.0196  0.5232  0.1994
 8459CL      CL25707   2.709   5.400   2.674  0.3947  0.4671 -0.6458
 8460CL      CL25708   3.285   5.259   5.267 -0.1220 -0.2748 -0.1413
 8461CL      CL25709   3.839   1.097   0.469 -0.0277 -0.0742  0.1962
 8462CL      CL25710   5.528   5.394   0.433  0.6311 -0.1798 -0.1491
 8463CL      CL25711   2.424   6.110   4.185 -0.4619  0.0372  0.0459
 8464CL      CL25712   1.909   3.846   3.556  0.5385  0.3000 -0.1115
 8465CL      CL25713   2.793   2.384   0.741  0.3467  0.0955 -0.2654
 8466CL      CL25714   4.721   0.273   2.547 -0.0469 -0.1923  0.0502
 8467CL      CL25715   2.935   5.454   4.143 -0.2512  0.2076  0.3248
 8468CL      CL25716   5.595   4.577   3.580 -0.0362 -0.2083  0.1826
 8469CL      CL25717   3.871   3.097   6.137 -0.0721 -0.3456 -0.1338
 8470CL      CL25718   0.382   6.283   0.539  0.0758 -0.0127  0.3136
 8471CL      CL25719   5.188   0.513   5.633 -0.2070 -0.0926 -0.0239
 8472CL      CL25720   3.027   4.671   5.950  0.1599 -0.3451 -0.3629
 8473CL      CL25721   6.165   0.792   1.853  0.3763  0.5177 -0.0384
 8474CL      CL25722   1.593   5.466   6.020 -0.3482 -0.2557 -0.0141
 8475CL      CL25723   3.561   5.720   6.130  0.0086  0.2198 -0.2804
 8476CL      CL25724   4.004   3.178   0.996 -0.3125 -0.1757 -0.1998
 8477CL      CL25725   0.043   5.334   5.066  0.3131  0.1082  0.0879
 8478CL      CL25726   1.464   2.403   4.625 -0.2561  0.1283  0.0721
 8479CL      CL25727   5.171   3.050   4.126 -0.4534 -0.1148 -0.3268
 8480CL      CL25728   3.510   2.639   0.555 -0.1154  0.3680 -0.4696
 8481CL      CL25729   4.961   4.823   4.580  0.0520 -0.2614 -0.0656
   6.38232   6.38232   6.38232
